Control file title. For DL_FIELD 4.10
49956
    1MOL     C1    1   0.876   3.641   0.128 -0.2934 -0.0238  0.0094
    1MOL     C2    2   0.912   3.735   0.246  0.0628  0.2438 -0.7788
    1MOL     C3    3   0.875   3.660   0.381 -0.4080  0.4508  0.0530
    1MOL     O4    4   0.962   3.599   0.448  0.6892 -0.1852  0.2844
    1MOL     O5    5   0.738   3.675   0.413  0.2868  0.1423 -0.6245
    1MOL     C6    6   0.678   3.610   0.522  0.0346 -0.0423  0.2037
    1MOL     C7    7   0.657   3.704   0.644  0.3382  0.5045  0.1982
    1MOL     C8    8   0.564   3.814   0.616  0.0845  0.0281  0.1346
    1MOL     H9    9   0.767   3.643   0.121 -0.2549 -2.9458 -3.4880
    1MOL    H10   10   0.900   3.669   0.025 -1.4510  1.4691  0.1400
    1MOL    H11   11   0.837   3.813   0.237 -1.9674 -1.0400  3.5662
    1MOL    H12   12   0.590   3.568   0.474  1.0600  0.2346 -1.9641
    1MOL    H13   13   0.740   3.532   0.566 -1.4893 -0.5235  1.5807
    1MOL    H14   14   0.628   3.644   0.731  1.8185  2.6369  2.2264
    1MOL    H15   15   0.752   3.748   0.673  0.2870  0.1422  0.9365
    1MOL    H16   16   0.607   3.898   0.561  0.8714 -1.6042 -1.8434
    1MOL    H17   17   0.485   3.775   0.552 -0.8710 -1.7049  2.3062
    1MOL    H18   18   0.534   3.850   0.714 -0.4479 -2.2101  0.8226
    1MOL    H19   19   0.900   3.535   0.141  2.0919  0.5754  0.8036
    1MOL    C20   20   1.060   3.792   0.242  0.0496  0.5867 -0.1854
    1MOL    C21   21   1.094   3.924   0.299  0.4607  0.0523 -0.4720
    1MOL    C22   22   0.985   4.033   0.263  1.1326  0.4486 -0.8004
    1MOL    O23   23   0.907   4.080   0.347  0.6395  0.3380  0.1043
    1MOL    O24   24   0.994   4.082   0.133  0.0897  0.4734  0.0809
    1MOL    C25   25   0.918   4.197   0.102  0.1153  0.2475  0.4224
    1MOL    C26   26   1.000   4.303   0.022 -0.0729 -0.3775  0.5245
    1MOL    C27   27   1.023   4.258   7.759 -0.2282  0.1279  0.2872
    1MOL    H28   28   1.059   3.811   0.135 -2.2625  0.0272 -0.2841
    1MOL    H29   29   1.128   3.710   0.265 -1.3687 -1.3510 -2.6444
    1MOL    H30   30   1.189   3.953   0.255  1.9527 -2.5186  0.9047
    1MOL    H31   31   0.828   4.175   0.044  0.8632 -0.6442 -0.4256
    1MOL    H32   32   0.901   4.260   0.189 -0.0326  0.0886  0.5103
    1MOL    H33   33   0.942   4.393   7.879  2.1145  1.3482  1.5871
    1MOL    H34   34   1.093   4.336   0.068 -0.5549  0.9684  0.5635
    1MOL    H35   35   1.074   4.339   7.706 -0.7484 -0.9400 -1.9157
    1MOL    H36   36   0.928   4.243   7.708 -0.9483 -1.2415  1.9567
    1MOL    H37   37   1.095   4.175   7.753  0.1948  0.5214 -0.1878
    1MOL    C38   38   1.115   3.921   0.456 -0.0704  0.1392  0.0466
    1MOL    C39   39   1.246   3.854   0.506 -0.4123 -0.0361  0.0370
    1MOL    C40   40   1.369   3.932   0.464  0.0788  1.1085  0.2748
    1MOL    O41   41   1.448   3.887   0.382 -0.3532 -0.2409  0.0190
    1MOL    O42   42   1.375   4.052   0.529 -0.3784  0.5897 -0.7139
    1MOL    C43   43   1.490   4.132   0.535  0.3514  0.5522 -0.0941
    1MOL    C44   44   1.585   4.109   0.650 -0.4977  0.3008  0.3778
    1MOL    C45   45   1.519   4.128   0.785 -0.6398 -0.1110 -0.3122
    1MOL    H46   46   1.023   3.873   0.490  0.7003 -2.0083 -0.8272
    1MOL    H47   47   1.125   4.023   0.493 -0.0667 -0.5608  2.0430
    1MOL    H48   48   1.255   3.757   0.457  0.3101  0.7428 -1.3700
    1MOL    H49   49   1.544   4.113   0.443 -0.3302  0.8296 -0.5583
    1MOL    H50   50   1.447   4.233   0.536 -0.4947  0.2156 -1.3889
    1MOL    H51   51   1.620   4.007   0.636  1.2351  0.8658  0.4224
    1MOL    H52   52   1.667   4.181   0.649  1.1697 -1.4266  3.8268
    1MOL    H53   53   1.588   4.098   0.864  0.2446 -0.8655 -1.3524
    1MOL    H54   54   1.422   4.078   0.791 -0.9366  0.6496  1.6375
    1MOL    H55   55   1.493   4.231   0.808  0.7907 -0.5989  4.0024
    1MOL    C56   56   1.238   3.836   0.662 -0.4029 -0.4795 -0.0198
    1MOL    C57   57   1.366   3.751   0.704 -0.0556 -0.1468  0.1906
    1MOL    C58   58   1.366   3.744   0.855 -0.1451 -0.5214  0.4610
    1MOL    O59   59   1.313   3.649   0.915  0.0217 -0.0301 -0.3985
    1MOL    O60   60   1.427   3.844   0.908  0.0544 -0.4159 -0.4949
    1MOL    C61   61   1.459   3.848   1.049  0.1181 -0.0819 -0.5498
    1MOL    C62   62   1.616   3.844   1.075 -0.0186 -0.0353 -0.2017
    1MOL    C63   63   1.644   3.797   1.222  0.2134  0.2664 -0.5146
    1MOL    H64   64   1.145   3.788   0.690 -0.1674  0.2311  2.0256
    1MOL    H65   65   1.246   3.927   0.720  0.3938 -0.6058  0.0757
    1MOL    H66   66   1.452   3.814   0.680  1.1850 -1.6069  0.6858
    1MOL    H67   67   1.421   3.948   1.070  0.9624  0.9488 -3.6367
    1MOL    H68   68   1.402   3.770   1.098  2.9657 -1.7633  0.1679
    1MOL    H69   69   1.668   3.777   1.007 -0.8679  1.4904 -2.4154
    1MOL    H70   70   1.654   3.945   1.065 -3.2161  1.2192 -0.2254
    1MOL    H71   71   1.627   3.692   1.248  1.3874 -0.0338 -0.9210
    1MOL    H72   72   1.582   3.854   1.291  0.7633 -0.4786  0.6091
    1MOL    H73   73   1.745   3.816   1.258 -0.4673  1.3432  0.8878
    1MOL    C74   74   1.380   3.608   0.647  0.3917 -0.0684 -0.1126
    1MOL    C75   75   1.522   3.551   0.637 -0.3996 -0.4301 -0.4708
    1MOL    C76   76   1.620   3.637   0.546 -0.0277 -0.1766 -0.1262
    1MOL    O77   77   1.660   3.743   0.590 -0.5429  0.2341  0.0336
    1MOL    O78   78   1.636   3.594   0.416  0.0636 -0.3031  0.2795
    1MOL    C79   79   1.671   3.672   0.301  0.0044 -1.1128  0.0888
    1MOL    C80   80   1.615   3.604   0.177  0.1531  0.0298  1.2527
    1MOL    C81   81   1.465   3.596   0.169  1.1727  0.6263  0.1929
    1MOL    H82   82   1.330   3.596   0.551 -1.7800  1.5150  0.7642
    1MOL    H83   83   1.327   3.542   0.717  1.6229 -0.5863  0.3548
    1MOL    H84   84   1.502   3.465   0.574 -1.8194  1.5229 -2.7808
    1MOL    H85   85   1.637   3.775   0.313 -0.5625 -1.4194  1.1462
    1MOL    H86   86   1.780   3.676   0.306 -0.0682  1.5259  0.4230
    1MOL    H87   87   1.655   3.653   0.089  3.8739 -2.1132  1.6194
    1MOL    H88   88   1.653   3.502   0.182 -1.0599 -0.5404 -0.9051
    1MOL    H89   89   1.450   3.533   0.081 -0.1154 -0.8708  1.4224
    1MOL    H90   90   1.429   3.696   0.146 -0.3606 -0.1572 -0.9423
    1MOL    H91   91   1.418   3.540   0.251  3.5200  0.2863  1.3454
    1MOL    C92   92   1.585   3.523   0.775  0.4971 -0.0749  0.2525
    1MOL    C93   93   1.730   3.445   0.764 -0.8691  0.4390 -0.5855
    1MOL    C94   94   1.836   3.501   0.863  0.4537 -0.2500 -0.2121
    1MOL    O95   95   1.943   3.546   0.826 -0.7483  0.0482  0.2992
    1MOL    O96   96   1.793   3.490   0.997  0.3145 -0.5822 -0.0455
    1MOL    C97   97   1.887   3.529   1.099 -0.2414  0.0019  0.1245
    1MOL    C98   98   1.865   3.442   1.226  0.1775  0.2213 -0.3002
    1MOL    C99   99   1.839   3.297   1.196  0.3466  0.4135  0.0292
    1MOL   H100  100   1.515   3.482   0.848  1.3589 -0.1456  1.0439
    1MOL   H101  101   1.613   3.619   0.817  2.1041 -1.3766  2.2291
    1MOL   H102  102   1.781   3.472   0.672  1.2448  0.9404  0.6985
    1MOL   H103  103   1.990   3.523   1.064 -0.5407  1.6447 -1.0849
    1MOL   H104  104   1.892   3.634   1.128 -1.6266  0.2150 -0.4065
    1MOL   H105  105   1.946   3.450   1.298  2.0614  0.9883 -2.4642
    1MOL   H106  106   1.779   3.486   1.277 -0.3909 -1.8758  0.6299
    1MOL   H107  107   1.768   3.279   1.115  1.2494 -2.1178 -0.2439
    1MOL   H108  108   1.794   3.240   1.278 -0.2731 -0.5148 -0.9365
    1MOL   H109  109   1.931   3.247   1.166 -0.0739 -0.2260 -0.1953
    1MOL   C110  110   1.724   3.293   0.775  0.0559 -0.7907  0.0804
    1MOL   C111  111   1.636   3.214   0.672 -0.2620 -0.6268  0.1982
    1MOL   C112  112   1.690   3.234   0.529 -0.1038  0.2759  0.5810
    1MOL   O113  113   1.613   3.273   0.440  0.2861  0.4537  0.7127
    1MOL   O114  114   1.815   3.210   0.512 -0.1886  0.0853 -0.0964
    1MOL   C115  115   1.879   3.238   0.389 -0.5364  0.0178  0.1519
    1MOL   C116  116   1.966   3.123   0.349  0.3020 -0.0092  0.8282
    1MOL   C117  117   2.035   3.147   0.215  0.3177 -0.0062  0.1792
    1MOL   H118  118   1.677   3.275   0.871 -1.0180  2.7903  0.2996
    1MOL   H119  119   1.824   3.250   0.776  0.9993  1.3863  1.0406
    1MOL   H120  120   1.536   3.258   0.673  0.6343  1.4686  0.2684
    1MOL   H121  121   1.816   3.279   0.310  1.1430  0.0509 -1.1834
    1MOL   H122  122   1.948   3.319   0.413 -0.0254 -0.6844  1.0882
    1MOL   H123  123   2.040   3.120   0.430  2.0945  0.0366 -0.7819
    1MOL   H124  124   1.920   3.025   0.362  0.6770 -0.0042  2.3668
    1MOL   H125  125   1.961   3.147   0.135 -1.3306  0.9017  1.7027
    1MOL   H126  126   2.106   3.066   0.198  0.3403 -0.3471  1.8780
    1MOL   H127  127   2.090   3.241   0.215  2.0682 -0.9870 -0.3243
    1MOL   C128  128   1.612   3.073   0.713 -0.3643  0.0770 -0.5409
    1MOL   C129  129   1.469   3.024   0.744  0.7212  0.7393  0.3561
    1MOL   C130  130   1.416   3.069   0.880 -0.5104 -0.1506 -0.9659
    1MOL   O131  131   1.365   2.992   0.958  0.1984  0.7958  0.0087
    1MOL   O132  132   1.420   3.206   0.890 -0.1544  0.6473  0.3884
    1MOL   C133  133   1.353   3.280   0.988  0.0061 -0.1454 -0.8329
    1MOL   C134  134   1.467   3.320   1.089 -0.5021 -0.4524  0.3487
    1MOL   C135  135   1.419   3.416   1.193 -0.3707  0.1897 -0.5033
    1MOL   H136  136   1.665   3.051   0.806 -2.6112 -0.8702  0.5536
    1MOL   H137  137   1.659   3.009   0.638  0.4556  0.6230 -0.4961
    1MOL   H138  138   1.478   2.916   0.750 -0.3228  0.6481  0.4563
    1MOL   H139  139   1.309   3.367   0.939  1.2579  0.9648 -0.0318
    1MOL   H140  140   1.267   3.225   1.027  0.8643 -0.8075  0.1515
    1MOL   H141  141   1.510   3.235   1.142 -2.6110 -1.1046  1.0742
    1MOL   H142  142   1.544   3.367   1.028  0.8905  0.4407  2.7147
    1MOL   H143  143   1.320   3.390   1.231 -1.2381  0.1623 -2.7172
    1MOL   H144  144   1.406   3.509   1.137 -1.1661  0.7821  0.6573
    1MOL   H145  145   1.492   3.450   1.266 -0.1885  1.0946 -1.1044
    1MOL   C146  146   1.373   3.051   0.633 -0.4106  0.5738 -0.7071
    1MOL   C147  147   1.413   3.004   0.491  0.2656  0.3716  0.7253
    1MOL   C148  148   1.449   2.860   0.481  0.7892 -0.0163 -0.6752
    1MOL   O149  149   1.560   2.830   0.439 -0.2143  0.4114  0.3447
    1MOL   O150  150   1.345   2.774   0.505 -0.2120  0.2412  0.1905
    1MOL   C151  151   1.356   2.635   0.471  0.8400  0.0076  0.0499
    1MOL   C152  152   1.331   2.608   0.319 -0.2766  0.0159 -1.3274
    1MOL   C153  153   1.198   2.661   0.267  0.5729  0.6872  0.3716
    1MOL   H154  154   1.342   3.155   0.633  1.0229  1.0292  1.6845
    1MOL   H155  155   1.282   2.993   0.648  0.8946 -1.1017  1.0527
    1MOL   H156  156   1.501   3.067   0.476  0.1339  0.7235  1.4003
    1MOL   H157  157   1.442   2.582   0.513  0.4463 -0.9456 -0.3197
    1MOL   H158  158   1.270   2.580   0.511  0.1660  0.4856 -0.7495
    1MOL   H159  159   1.406   2.656   0.257  0.6016  2.8534  1.7396
    1MOL   H160  160   1.334   2.501   0.300 -0.9672 -0.3799  0.6973
    1MOL   H161  161   1.213   2.765   0.238  1.8791  1.5080  3.7327
    1MOL   H162  162   1.109   2.650   0.330 -0.6845 -0.2121 -1.5230
    1MOL   H163  163   1.183   2.619   0.168  1.0368  2.0944 -0.3042
    1MOL   C164  164   1.309   3.052   0.382  0.4188  0.1883 -0.2041
    1MOL   C165  165   1.354   3.022   0.235  0.2567 -0.1419  0.6552
    1MOL   C166  166   1.238   3.062   0.143 -0.8617  0.0072  1.0493
    1MOL   O167  167   1.163   2.975   0.093  0.4638  0.4814  0.4011
    1MOL   O168  168   1.229   3.186   0.108 -0.4012  0.4099 -0.1575
    1MOL   C169  169   1.141   3.215   0.002 -0.2380  0.1807  0.2160
    1MOL   C170  170   1.154   3.365   7.856 -0.5923 -0.0702 -0.1170
    1MOL   C171  171   1.057   3.406   7.750  0.4863  0.4869 -0.1947
    1MOL   H172  172   1.291   3.158   0.402  1.6695  0.3503  0.0570
    1MOL   H173  173   1.208   3.013   0.394  1.6386 -2.9695  0.3184
    1MOL   H174  174   1.369   2.916   0.218 -0.3624 -0.2180  0.5878
    1MOL   H175  175   1.162   3.165   7.788  0.1868 -0.5319  0.6906
    1MOL   H176  176   1.039   3.189   0.032  0.0559 -1.2239  0.0354
    1MOL   H177  177   1.140   3.421   0.068  1.3959  1.4341 -0.6748
    1MOL   H178  178   1.258   3.384   7.827  0.0963 -3.1556  0.1231
    1MOL   H179  179   0.970   3.341   7.751  2.3475 -2.0383  1.1116
    1MOL   H180  180   1.097   3.400   7.649  0.0851  1.2952 -0.4121
    1MOL   H181  181   1.024   3.510   7.760  0.6794  0.3812  1.5746
    1MOL   C182  182   1.482   3.106   0.197 -0.5963  0.0189 -0.3854
    1MOL   C183  183   1.548   3.055   0.063  0.3712 -0.0750  0.4412
    1MOL   C184  184   1.640   3.168   0.003 -0.1772  0.3331 -0.1338
    1MOL   O185  185   1.744   3.200   0.058  0.0955 -0.4222  0.8336
    1MOL   O186  186   1.584   3.234   7.780  0.9448  0.1374 -0.5486
    1MOL   C187  187   1.651   3.330   7.710  0.5519  0.4351 -0.0294
    1MOL   C188  188   1.721   3.278   7.588  0.2932 -0.2136 -0.0499
    1MOL   C189  189   1.821   3.162   7.619 -0.1211 -0.1450  0.0268
    1MOL   H190  190   1.557   3.099   0.275 -1.0147 -1.6140 -0.1151
    1MOL   H191  191   1.454   3.211   0.181 -2.3778 -0.3470  0.1996
    1MOL   H192  192   1.469   3.037   7.870  0.3300  0.1404  0.4321
    1MOL   H193  193   1.571   3.391   7.667  1.2062  0.9925 -0.4452
    1MOL   H194  194   1.721   3.393   7.764 -0.7057  1.0391  0.9314
    1MOL   H195  195   1.647   3.231   7.523  0.0913 -0.9781  0.7333
    1MOL   H196  196   1.772   3.355   7.529 -0.6429 -0.9648 -1.8785
    1MOL   H197  197   1.887   3.133   7.537  1.3784  1.6003  0.5548
    1MOL   H198  198   1.760   3.076   7.643 -0.6828  0.1752 -0.2571
    1MOL   H199  199   1.882   3.197   7.703  0.9234  0.7605 -1.0848
    1MOL   C200  200   1.629   2.926   0.094 -1.2768  0.8986  0.4634
    1MOL   C201  201   1.682   2.853   7.848  1.1911 -0.6657  0.6413
    1MOL   C202  202   1.801   2.755   0.007  0.8911 -1.0497  0.3828
    1MOL   O203  203   1.775   2.644   0.051  0.5206 -0.0833  0.7410
    1MOL   O204  204   1.923   2.821   7.875  0.1027  0.0957 -0.2619
    1MOL   C205  205   2.035   2.736   7.876 -0.4369 -0.0605  0.6249
    1MOL   C206  206   2.157   2.827   7.864  0.0277 -0.2621 -0.1010
    1MOL   C207  207   2.176   2.888   7.730 -0.0568 -0.4826  0.3292
    1MOL   H208  208   1.580   2.845   0.148  0.9204 -1.8165 -1.4952
    1MOL   H209  209   1.711   2.966   0.153 -0.1822  0.9670 -1.0920
    1MOL   H210  210   1.713   2.931   7.778 -0.8407 -0.4423 -0.0455
    1MOL   H211  211   2.018   2.681   0.088 -2.5054 -0.3267  0.0976
    1MOL   H212  212   2.040   2.670   7.790  1.7892 -0.6971  1.2190
    1MOL   H213  213   2.147   2.899   0.065 -1.5672  0.1959 -0.6807
    1MOL   H214  214   2.247   2.774   0.014  0.7640  1.5567  1.0346
    1MOL   H215  215   2.084   2.940   7.703  0.9743  0.8190 -0.7289
    1MOL   H216  216   2.195   2.805   7.662 -0.8808 -3.3906  3.5257
    1MOL   H217  217   2.260   2.957   7.721 -0.9293  0.6506  0.6869
    1MOL   C218  218   1.575   2.781   7.757  0.4594  0.2479  0.2290
    1MOL   C219  219   1.584   2.755   7.600  0.2013 -0.4987  0.0949
    1MOL   C220  220   1.594   2.887   7.521  0.8898 -0.5929 -0.1602
    1MOL   O221  221   1.690   2.932   7.465 -0.0121  0.8757  0.5911
    1MOL   O222  222   1.473   2.948   7.523  0.3027  0.1378 -0.0517
    1MOL   C223  223   1.445   3.059   7.441 -0.1212  0.0705 -0.2443
    1MOL   C224  224   1.303   3.056   7.384  0.4040 -0.5040 -0.1863
    1MOL   C225  225   1.194   3.063   7.490  0.5440  0.3743 -0.0962
    1MOL   H226  226   1.474   2.815   7.783  0.1019  0.0014 -0.8171
    1MOL   H227  227   1.565   2.678   7.789  1.0659  0.6257  1.6851
    1MOL   H228  228   1.491   2.713   7.563  0.8737 -1.9150 -0.0205
    1MOL   H229  229   1.451   3.146   7.507 -0.1065  0.4528 -0.7525
    1MOL   H230  230   1.523   3.075   7.367 -0.8195  0.5823 -0.8712
    1MOL   H231  231   1.298   3.131   7.306  1.8015 -1.6780 -1.4570
    1MOL   H232  232   1.286   2.975   7.313 -0.8467  1.5572 -2.2944
    1MOL   H233  233   1.220   3.131   7.571 -1.4106  2.3891 -1.1185
    1MOL   H234  234   1.156   2.967   7.526 -0.9647  0.3308 -1.7323
    1MOL   H235  235   1.099   3.094   7.446  1.6937  2.8057 -0.9240
    1MOL   C236  236   1.701   2.672   7.548 -0.2975 -0.2404 -0.1230
    1MOL   C237  237   1.716   2.523   7.594 -0.1090  0.5925  0.7821
    1MOL   C238  238   1.581   2.450   7.577  0.1085  0.2851  0.3873
    1MOL   O239  239   1.537   2.394   7.675  1.0068 -0.0328  0.3793
    1MOL   O240  240   1.520   2.452   7.460  0.1107 -0.4848  0.8370
    1MOL   C241  241   1.398   2.381   7.442  0.2546 -0.2498 -0.4889
    1MOL   C242  242   1.346   2.365   7.296 -0.4944 -0.1984 -0.1073
    1MOL   C243  243   1.293   2.505   7.230  0.1697  0.4698 -0.7078
    1MOL   H244  244   1.795   2.716   7.583  0.3336 -1.2141 -0.5631
    1MOL   H245  245   1.703   2.677   7.439  0.3424 -0.4118 -0.1247
    1MOL   H246  246   1.721   2.521   7.702 -0.5985  3.4168  0.9181
    1MOL   H247  247   1.399   2.284   7.493  0.6742 -0.9969 -1.8827
    1MOL   H248  248   1.321   2.433   7.500 -0.4987  0.1125 -1.7826
    1MOL   H249  249   1.419   2.317   7.231 -0.8553 -1.5896  0.5189
    1MOL   H250  250   1.261   2.298   7.300 -0.0335 -0.8446 -1.0460
    1MOL   H251  251   1.347   2.592   7.265 -0.6504  1.7106 -2.4445
    1MOL   H252  252   1.194   2.522   7.274  1.1429  0.2703  1.6186
    1MOL   H253  253   1.285   2.506   7.121  2.3892 -0.2964 -0.8976
    1MOL   C254  254   1.832   2.456   7.525 -0.1877 -0.6156  0.2303
    1MOL   C255  255   1.973   2.458   7.596  0.1937 -0.1366  0.3950
    1MOL   C256  256   1.964   2.371   7.717 -0.5537 -0.8796 -1.0850
    1MOL   O257  257   1.901   2.269   7.718 -0.3569 -0.0777  0.0655
    1MOL   O258  258   2.039   2.421   7.821  0.1782 -0.0009  0.5308
    1MOL   C259  259   2.071   2.342   0.056 -0.4585 -0.0262 -0.3030
    1MOL   C260  260   2.215   2.367   0.095 -0.5152 -0.5103 -0.3145
    1MOL   C261  261   2.321   2.325   7.874 -0.1748 -0.4928  0.6482
    1MOL   H262  262   1.827   2.504   7.428 -0.1578  2.5810  1.7406
    1MOL   H263  263   1.797   2.355   7.503 -1.1240 -0.4630  0.9876
    1MOL   H264  264   2.006   2.553   7.637 -0.3195 -0.7448  2.2746
    1MOL   H265  265   2.007   2.340   0.144  0.9780 -0.5598  0.7572
    1MOL   H266  266   2.070   2.240   0.019 -1.4976 -0.1805  0.1335
    1MOL   H267  267   2.232   2.474   0.108 -0.1702 -0.6186  0.1393
    1MOL   H268  268   2.232   2.329   0.196 -1.3842 -2.2160 -0.7966
    1MOL   H269  269   2.291   2.234   7.823 -1.1087  1.0322 -1.5795
    1MOL   H270  270   2.416   2.309   0.044  1.3244  0.9579 -1.6462
    1MOL   H271  271   2.336   2.401   7.798  1.7599 -1.7107 -0.2124
    1MOL   C272  272   2.078   2.396   7.506 -0.3878  0.4435 -0.0875
    1MOL   C273  273   2.131   2.469   7.383  0.2243 -0.1217 -0.2378
    1MOL   C274  274   2.207   2.602   7.416 -0.1604  0.2796  0.6114
    1MOL   O275  275   2.282   2.613   7.514  0.1344 -0.3147  0.2179
    1MOL   O276  276   2.161   2.703   7.343 -0.3185 -0.2568 -0.4657
    1MOL   C277  277   2.204   2.832   7.369  0.0368  0.6791  0.6948
    1MOL   C278  278   2.083   2.922   7.403  0.0127  0.0334 -0.2608
    1MOL   C279  279   1.987   2.955   7.289 -0.4928  0.0989 -0.1784
    1MOL   H280  280   2.041   2.298   7.475  1.8755 -0.1655 -0.9887
    1MOL   H281  281   2.169   2.367   7.559 -0.4194  0.0726 -0.2366
    1MOL   H282  282   2.043   2.486   7.320 -0.1936 -2.6417 -0.3839
    1MOL   H283  283   2.281   2.838   7.445  0.1411 -0.5586  0.6947
    1MOL   H284  284   2.256   2.862   7.278  0.3534  0.9082  0.9516
    1MOL   H285  285   2.029   2.874   7.485  0.9331  2.3362  1.7408
    1MOL   H286  286   2.137   3.007   7.446  1.5428 -1.1084  0.1365
    1MOL   H287  287   1.927   2.867   7.264  0.8031 -0.8825  0.0843
    1MOL   H288  288   2.039   2.992   7.200 -2.5826  0.6913 -1.1869
    1MOL   H289  289   1.927   3.042   7.313  1.1182  1.2318 -0.1661
    1MOL   C290  290   2.225   2.386   7.302  0.3535  0.7490 -0.4941
    1MOL   C291  291   2.236   2.418   7.155 -0.6063 -0.6864  0.7191
    1MOL   C292  292   2.330   2.536   7.114 -0.0792 -0.2505 -0.3124
    1MOL   O293  293   2.426   2.565   7.186 -0.4721 -0.7157 -0.5550
    1MOL   O294  294   2.309   2.600   6.999 -0.1960  0.1045 -0.0475
    1MOL   C295  295   2.359   2.728   6.964  0.7328 -0.0547 -0.2074
    1MOL   C296  296   2.262   2.810   6.887  0.0399 -0.0711  0.0996
    1MOL   C297  297   2.150   2.868   6.978 -0.5404  0.1884 -0.2746
    1MOL   H298  298   2.186   2.285   7.308  2.7913 -0.2016 -0.1245
    1MOL   H299  299   2.328   2.374   7.335 -0.3050 -1.4916  0.8001
    1MOL   H300  300   2.138   2.461   7.137 -0.2512 -0.4255 -0.6046
    1MOL   H301  301   2.404   2.784   7.046  1.5782 -1.2631  0.1562
    1MOL   H302  302   2.444   2.709   6.899  0.6194  1.1469 -0.7310
    1MOL   H303  303   2.316   2.894   6.844 -0.0916  0.0078  0.0881
    1MOL   H304  304   2.217   2.759   6.803  0.6382  2.7139 -1.9888
    1MOL   H305  305   2.093   2.780   7.008 -0.4003  0.3322  0.4201
    1MOL   H306  306   2.087   2.937   6.922  0.9770  1.3921 -0.5300
    1MOL   H307  307   2.197   2.927   7.056 -1.2380  0.7627 -0.2880
    1MOL   C308  308   2.253   2.288   7.072 -0.3544  0.0350  0.5408
    1MOL   C309  309   2.194   2.298   6.932 -0.2035 -0.1690 -0.5498
    1MOL   C310  310   2.282   2.289   6.810 -0.4034  1.2033 -0.1769
    1MOL   O311  311   2.253   2.216   6.717 -1.2197  0.1031 -0.1124
    1MOL   O312  312   2.394   2.360   6.819 -0.1781  0.5611  0.1429
    1MOL   C313  313   2.502   2.338   6.730  0.3492  0.3766 -0.6063
    1MOL   C314  314   2.491   2.412   6.593  0.1701 -0.8225 -0.4026
    1MOL   C315  315   2.471   2.562   6.602 -0.2674 -0.5341 -0.8015
    1MOL   H316  316   2.216   2.201   7.126 -0.8405 -0.1617 -0.1083
    1MOL   H317  317   2.360   2.273   7.066 -0.2152 -0.3980  3.6119
    1MOL   H318  318   2.159   2.401   6.934 -0.1719 -0.1689  1.4157
    1MOL   H319  319   2.598   2.372   6.769  0.8091 -2.2028  0.6300
    1MOL   H320  320   2.510   2.229   6.719  2.9149  0.0819  3.2649
    1MOL   H321  321   2.571   2.385   6.525  0.0629  0.6626 -1.1434
    1MOL   H322  322   2.399   2.371   6.550 -1.6048  1.8896  0.6753
    1MOL   H323  323   2.558   2.602   6.653  2.4782 -1.5785 -4.4671
    1MOL   H324  324   2.457   2.615   6.507  1.8436  1.3519 -0.0919
    1MOL   H325  325   2.381   2.590   6.657 -0.1269 -0.9357 -0.3598
    1MOL   C326  326   2.065   2.209   6.928  0.7608 -0.4792 -0.8270
    1MOL   C327  327   1.950   2.246   7.024 -0.4390 -0.0621 -0.1096
    1MOL   C328  328   1.906   2.392   7.006  0.4515 -0.4074 -0.9497
    1MOL   O329  329   1.897   2.444   6.897  0.3853 -0.6405 -0.4873
    1MOL   O330  330   1.878   2.449   7.124  0.7273 -0.3176  0.2176
    1MOL   C331  331   1.859   2.586   7.142  0.4783  0.1728  0.3765
    1MOL   C332  332   1.703   2.601   7.145 -0.7481  0.2195  0.2735
    1MOL   C333  333   1.622   2.583   7.011 -0.9024  0.0528 -0.0738
    1MOL   H334  334   2.092   2.105   6.942 -2.5044 -1.0599  1.3557
    1MOL   H335  335   2.022   2.195   6.829  0.6156  2.0492 -1.1568
    1MOL   H336  336   1.988   2.227   7.124  1.4032  0.0125 -0.7858
    1MOL   H337  337   1.901   2.619   7.237 -2.0494 -0.0667  1.6244
    1MOL   H338  338   1.909   2.631   7.056 -0.8417 -2.3016 -1.7414
    1MOL   H339  339   1.651   2.541   7.220  1.1103 -0.8430  0.7515
    1MOL   H340  340   1.695   2.700   7.190  0.1849 -0.0713  1.0766
    1MOL   H341  341   1.605   2.478   6.984 -1.0838  0.4039 -1.3367
    1MOL   H342  342   1.526   2.635   7.016 -0.4665  0.9322 -0.8061
    1MOL   H343  343   1.671   2.623   6.923  0.3129 -0.3652  0.4072
    1MOL   C344  344   1.838   2.140   7.004 -0.0196 -0.0705  0.3110
    1MOL   C345  345   1.721   2.139   7.104 -0.3414 -0.3554 -0.0121
    1MOL   C346  346   1.764   2.110   7.258  0.2037 -0.3910  0.1977
    1MOL   O347  347   1.877   2.072   7.285  0.0329 -0.3655 -0.5791
    1MOL   O348  348   1.659   2.127   7.345  0.6713 -0.4439 -0.5017
    1MOL   C349  349   1.680   2.090   7.485 -0.4079  0.7881  0.4181
    1MOL   C350  350   1.562   2.011   7.545 -0.1207  0.3275 -0.0459
    1MOL   C351  351   1.515   1.879   7.476  0.2983  0.1350  0.2961
    1MOL   H352  352   1.885   2.042   7.009  2.8044  1.1036 -1.8104
    1MOL   H353  353   1.800   2.147   6.902  2.0018 -1.7689 -0.6009
    1MOL   H354  354   1.641   2.071   7.074  0.6042 -0.2668 -2.8465
    1MOL   H355  355   1.765   2.023   7.494 -2.0157 -1.4415 -0.6480
    1MOL   H356  356   1.707   2.181   7.539 -1.2678  1.7643 -0.7729
    1MOL   H357  357   1.586   1.981   7.647  2.4930 -0.3175 -0.8212
    1MOL   H358  358   1.475   2.077   7.546 -0.1142  0.3556 -0.8508
    1MOL   H359  359   1.407   1.876   7.483  0.3588 -0.6399  1.0087
    1MOL   H360  360   1.527   1.886   7.368  1.7678  0.6009  0.4661
    1MOL   H361  361   1.561   1.784   7.504  1.3342  0.8752  1.1987
    1MOL   H362  362   1.672   2.236   7.119 -0.5682 -0.4007 -0.4687
    2MOL     C1  363   0.687   7.408   4.774  0.2336  0.6497  0.1434
    2MOL     C2  364   0.654   7.492   4.904 -0.3797  0.1665 -0.5252
    2MOL     C3  365   0.710   7.638   4.910  0.7490 -0.4697 -0.3235
    2MOL     O4  366   0.794   7.669   5.000 -0.1977  0.7738  0.0254
    2MOL     O5  367   0.669   7.717   4.814 -0.4091  0.3746 -0.2859
    2MOL     C6  368   0.728   7.853   4.812  0.4673  0.4291  0.1249
    2MOL     C7  369   0.844   7.856   4.712 -0.2442  0.2532  0.2605
    2MOL     C8  370   0.870   0.110   4.643 -0.4306  0.2063  0.1446
    2MOL     H9  371   0.785   7.360   4.769 -0.3405 -0.5450  0.4550
    2MOL    H10  372   0.617   7.327   4.756  1.7997 -0.3161 -1.8197
    2MOL    H11  373   0.704   7.435   4.982 -0.4330  0.0976 -0.5423
    2MOL    H12  374   0.643   0.033   4.778 -0.6716  0.9292  3.7015
    2MOL    H13  375   0.756   0.014   4.909 -0.1419  0.0906  0.4458
    2MOL    H14  376   0.933   7.829   4.770 -0.8494  2.0926  2.1216
    2MOL    H15  377   0.836   7.787   4.628  2.9999 -0.6595  0.6140
    2MOL    H16  378   0.786   0.136   4.579 -0.1403 -1.2557 -0.8495
    2MOL    H17  379   0.888   0.192   4.712  2.1267 -0.3795  0.2036
    2MOL    H18  380   0.940   0.107   4.560 -0.3486  1.5365  0.1588
    2MOL    H19  381   0.678   7.472   4.686  1.7300 -0.7966 -1.1031
    2MOL    C20  382   0.499   7.488   4.933  0.5306  0.2782  0.0982
    2MOL    C21  383   0.446   7.355   4.987 -0.6241  0.2972  0.7555
    2MOL    C22  384   0.519   7.330   5.123 -0.1621  0.2351  0.5120
    2MOL    O23  385   0.529   7.419   5.203 -0.1024  0.3508  0.1088
    2MOL    O24  386   0.580   7.211   5.129 -0.0514 -0.0812  0.4564
    2MOL    C25  387   0.657   7.166   5.235  0.4204 -0.3523  0.5692
    2MOL    C26  388   0.754   7.065   5.175 -0.0003 -0.2974  0.4611
    2MOL    C27  389   0.841   7.113   5.069 -0.1290  0.1762  0.2195
    2MOL    H28  390   0.452   7.499   4.835  2.7629  1.4515 -0.8767
    2MOL    H29  391   0.461   7.568   4.997  1.3987  1.0283 -0.3117
    2MOL    H30  392   0.468   7.275   4.916  0.4455  2.1925 -1.1317
    2MOL    H31  393   0.714   7.244   5.285  1.3526 -0.2605 -0.6105
    2MOL    H32  394   0.597   7.115   5.311  1.6453 -0.9080  1.1920
    2MOL    H33  395   0.815   7.039   5.262  1.0355  0.2526 -0.1025
    2MOL    H34  396   0.697   6.979   5.140  0.6700 -0.4243 -0.3107
    2MOL    H35  397   0.912   7.036   5.041  1.8394  2.6059 -1.7814
    2MOL    H36  398   0.898   7.201   5.098 -0.5468  0.3397  0.5539
    2MOL    H37  399   0.777   7.140   4.984  1.0722  0.6637 -0.5468
    2MOL    C38  400   0.298   7.357   5.009  0.3840 -0.2032 -0.7080
    2MOL    C39  401   0.202   7.365   4.892  0.0566  0.4269 -0.2017
    2MOL    C40  402   0.224   7.256   4.784 -0.0066  0.1291 -0.2444
    2MOL    O41  403   0.241   7.140   4.823 -0.3104  0.0016  0.0518
    2MOL    O42  404   0.225   7.306   4.663 -0.1411  0.1479 -0.6143
    2MOL    C43  405   0.252   7.221   4.556  0.0489 -0.8202  0.1908
    2MOL    C44  406   0.126   7.123   4.534  0.9120 -0.0187 -0.0273
    2MOL    C45  407   0.003   7.205   4.489 -0.3900  0.4250  0.1155
    2MOL    H46  408   0.275   7.436   5.081 -1.3317 -0.2789 -1.1527
    2MOL    H47  409   0.268   7.269   5.066 -3.2598  0.9279 -0.7657
    2MOL    H48  410   0.235   7.456   4.842  0.5231  0.1567 -0.3895
    2MOL    H49  411   0.290   7.281   4.474  0.3757  0.6477  1.3910
    2MOL    H50  412   0.333   7.153   4.585 -0.0815 -1.2946 -0.5379
    2MOL    H51  413   0.151   7.059   4.450  0.9146 -0.1529  0.0766
    2MOL    H52  414   0.097   7.057   4.616  0.9447  0.0356  0.0290
    2MOL    H53  415   7.801   7.142   4.458  2.6662 -2.7700 -1.9060
    2MOL    H54  416   0.029   7.246   4.391 -1.6830  2.3774  0.5727
    2MOL    H55  417   7.864   7.293   4.550  0.0090  0.3702  0.3237
    2MOL    C56  418   0.058   7.383   4.939 -0.0216 -0.0811 -0.3358
    2MOL    C57  419   7.839   7.424   4.832 -0.5465 -0.0689  0.0729
    2MOL    C58  420   7.695   7.411   4.873  0.1815  0.0038  0.2695
    2MOL    O59  421   7.648   7.381   4.984 -0.5787 -0.4151  0.0200
    2MOL    O60  422   7.622   7.438   4.767 -0.0149  0.1292  0.3186
    2MOL    C61  423   7.482   7.401   4.771  0.5913 -0.3433  0.3336
    2MOL    C62  424   7.417   7.375   4.632 -0.8713 -0.3850  0.3650
    2MOL    C63  425   7.279   7.309   4.643 -0.1742 -0.4534 -0.2155
    2MOL    H64  426   0.042   7.453   5.021  1.4513  1.3976 -1.2898
    2MOL    H65  427   0.012   7.290   4.972  0.5082 -1.1930 -2.6393
    2MOL    H66  428   7.848   7.353   4.749 -0.1639 -1.0991  0.9926
    2MOL    H67  429   7.467   7.308   4.827  0.3077 -0.6553 -0.2572
    2MOL    H68  430   7.431   7.478   4.829 -0.0808  0.7843 -1.7137
    2MOL    H69  431   7.403   7.466   4.575 -2.4820  0.0084  1.3590
    2MOL    H70  432   7.492   7.321   4.573  0.2976  1.7358 -0.1285
    2MOL    H71  433   7.246   7.278   4.544  2.6442  0.6270 -1.5384
    2MOL    H72  434   7.210   7.375   4.696  1.4770 -0.8262  2.4813
    2MOL    H73  435   7.273   7.213   4.694 -0.5129 -1.3172 -1.8683
    2MOL    C74  436   7.879   7.561   4.757  0.2519  0.1029 -0.7523
    2MOL    C75  437   7.836   7.697   4.823 -0.6199 -0.7268 -0.1406
    2MOL    C76  438   0.022   7.733   4.963 -0.4865  0.1183  0.0644
    2MOL    O77  439   0.125   7.681   5.008 -0.5716  0.0719  0.1860
    2MOL    O78  440   7.825   7.839   5.018  0.7816 -0.6704 -0.2837
    2MOL    C79  441   7.874   0.036   5.122 -0.4509 -0.1089  0.0213
    2MOL    C80  442   7.795   0.163   5.149 -0.1299  0.1192  0.2758
    2MOL    C81  443   7.839   0.230   5.282 -0.5955  0.0632 -0.2074
    2MOL    H82  444   7.819   7.556   4.666  1.7417  0.1463 -1.7429
    2MOL    H83  445   0.103   7.569   4.729  0.4427  2.4331  0.5026
    2MOL    H84  446   7.731   7.680   4.847 -0.8526  0.9523  0.0899
    2MOL    H85  447   7.868   7.848   5.207 -0.3816  0.6537  0.6389
    2MOL    H86  448   0.102   0.048   5.119 -0.4249 -0.4674 -0.4897
    2MOL    H87  449   7.812   0.238   5.072  1.3716 -0.1016  0.3629
    2MOL    H88  450   7.691   0.131   5.161 -0.0483  0.0663  0.8403
    2MOL    H89  451   7.776   0.313   5.315  1.5389  0.2583  3.7726
    2MOL    H90  452   0.061   0.269   5.278 -0.4834 -0.1588  0.3538
    2MOL    H91  453   7.827   0.163   5.368  1.2930 -0.5141 -0.3621
    2MOL    C92  454   7.859   7.810   4.726 -0.6711  0.4328 -0.6132
    2MOL    C93  455   7.761   7.806   4.610 -0.0147 -0.1247 -0.2612
    2MOL    C94  456   7.623   7.841   4.656  0.5491  0.0991  0.3650
    2MOL    O95  457   7.534   7.760   4.664  0.0928  0.2884 -0.1238
    2MOL    O96  458   7.606   0.093   4.687  0.1193  0.3381 -0.4405
    2MOL    C97  459   7.471   0.136   4.722 -0.2382  0.1659  0.0244
    2MOL    C98  460   7.465   0.286   4.769  0.2072  0.1932 -0.2765
    2MOL    C99  461   7.478   0.307   4.920  0.1527  0.1120  0.4977
    2MOL   H100  462   0.083   7.803   4.693 -0.5671  0.9233 -0.3876
    2MOL   H101  463   7.861   0.030   4.769  3.9645  1.0006 -1.8767
    2MOL   H102  464   7.743   7.705   4.574  0.0173 -0.4952  0.7456
    2MOL   H103  465   7.410   0.119   4.633  0.1956  1.6619 -0.5792
    2MOL   H104  466   7.415   0.074   4.792  0.8991  0.2233  0.9980
    2MOL   H105  467   7.539   0.351   4.723  1.1383 -0.5909  0.0933
    2MOL   H106  468   7.371   0.336   4.747 -0.6321 -0.4194  1.7451
    2MOL   H107  469   7.578   0.270   4.946  0.5192  0.9643  0.3416
    2MOL   H108  470   7.405   0.243   4.969 -0.2253  0.6852  0.7004
    2MOL   H109  471   7.480   0.410   4.958 -0.6853  0.5631 -0.6605
    2MOL   C110  472   7.812   7.878   4.489  0.3892 -0.1463 -0.4342
    2MOL   C111  473   0.040   7.787   4.412 -0.1278  0.4604  0.4348
    2MOL   C112  474   0.006   7.640   4.369 -0.2456 -0.4447 -0.1619
    2MOL   O113  475   0.078   7.550   4.396  0.3562 -0.5786 -0.6490
    2MOL   O114  476   7.773   7.635   4.294 -0.5140 -0.1981 -0.2281
    2MOL   C115  477   7.725   7.514   4.240 -0.4584  0.6962 -0.3700
    2MOL   C116  478   7.600   7.465   4.317  0.7736 -0.4113  0.0147
    2MOL   C117  479   7.480   7.557   4.300  0.7874 -0.3222  0.2504
    2MOL   H118  480   7.861   0.092   4.516 -1.7558  1.1215 -0.8662
    2MOL   H119  481   7.727   0.035   4.432 -1.5147 -1.4359  1.4847
    2MOL   H120  482   0.135   7.769   4.462 -2.1086 -1.8658  3.4867
    2MOL   H121  483   7.692   7.521   4.136  2.1419 -0.3794 -1.3072
    2MOL   H122  484   7.795   7.431   4.245 -1.2264  0.0883  0.4099
    2MOL   H123  485   7.570   7.365   4.285  2.5493 -0.5010 -1.4888
    2MOL   H124  486   7.621   7.470   4.424 -1.0877  1.7233  0.3245
    2MOL   H125  487   7.497   7.655   4.344  0.9098 -1.2850  2.4123
    2MOL   H126  488   7.393   7.519   4.354 -0.1712  1.8816  0.3098
    2MOL   H127  489   7.446   7.569   4.197  0.2752  0.1122  0.4658
    2MOL   C128  490   0.082   7.860   4.286  0.1103 -0.5007 -0.4770
    2MOL   C129  491   0.195   0.084   4.308  0.1500  0.5015  0.2490
    2MOL   C130  492   0.327   0.020   4.349  0.5880  0.6136  0.1822
    2MOL   O131  493   0.409   7.862   4.267  0.4905  0.0949  0.0532
    2MOL   O132  494   0.344   0.016   4.481  0.0200 -0.1825  0.8157
    2MOL   C133  495   0.463   7.848   4.535  0.3341  0.9202  0.4478
    2MOL   C134  496   0.486   7.692   4.525 -0.1354 -0.0439 -0.2566
    2MOL   C135  497   0.367   7.623   4.580  0.6816  0.4460  0.2623
    2MOL   H136  498   7.873   0.034   4.255 -1.0204 -0.7385  2.2246
    2MOL   H137  499   0.105   7.796   4.201 -1.9363 -1.8632 -0.0379
    2MOL   H138  500   0.171   0.150   4.392 -2.9637  0.3958 -0.4995
    2MOL   H139  501   0.551   0.015   4.491  1.4812 -1.0578  0.5640
    2MOL   H140  502   0.458   7.866   4.643  0.0605  0.9732  0.4272
    2MOL   H141  503   0.505   7.666   4.420 -0.3395 -0.6489 -0.1481
    2MOL   H142  504   0.571   7.655   4.582 -0.3189  1.1664  0.8103
    2MOL   H143  505   0.269   7.647   4.540 -0.1249  1.2830  2.6301
    2MOL   H144  506   0.357   7.656   4.684  1.6077 -0.2888  0.5893
    2MOL   H145  507   0.389   7.517   4.584 -0.8758  0.0598 -1.1590
    2MOL   C146  508   0.204   0.164   4.172 -0.0251  0.0633  0.1083
    2MOL   C147  509   0.169   0.314   4.183 -0.3781  0.0937  0.0238
    2MOL   C148  510   0.260   0.382   4.283 -0.8792 -0.3583  0.4435
    2MOL   O149  511   0.219   0.414   4.393 -0.4167 -0.4261 -0.1207
    2MOL   O150  512   0.385   0.389   4.240 -0.1179 -0.1531  0.1950
    2MOL   C151  513   0.485   0.429   4.339  0.3509  0.6330 -0.4321
    2MOL   C152  514   0.627   0.405   4.278  0.5580 -0.0443 -0.0695
    2MOL   C153  515   0.666   0.256   4.282 -0.2113 -0.2238  0.6075
    2MOL   H154  516   0.143   0.116   4.097 -1.5330  2.2624 -0.1287
    2MOL   H155  517   0.303   0.152   4.127 -0.2738  0.2167 -0.4741
    2MOL   H156  518   0.069   0.312   4.226 -0.5239  2.9198 -0.1223
    2MOL   H157  519   0.470   0.537   4.350 -0.0555  0.7632 -2.1988
    2MOL   H158  520   0.467   0.374   4.431 -0.2779 -0.1456 -1.0191
    2MOL   H159  521   0.623   0.452   4.180 -0.7577 -0.9885 -0.4902
    2MOL   H160  522   0.702   0.464   4.330 -0.8825  1.7118  0.0658
    2MOL   H161  523   0.601   0.200   4.214 -0.1000 -0.0787  0.3789
    2MOL   H162  524   0.654   0.215   4.382 -2.4529 -0.2465  0.3624
    2MOL   H163  525   0.768   0.238   4.250  0.3568 -0.0355  2.2841
    2MOL   C164  526   0.155   0.380   4.040 -0.0349 -0.5364  0.4351
    2MOL   C165  527   0.071   0.512   4.037  0.5459 -0.4518  0.2841
    2MOL   C166  528   0.154   0.635   4.074 -0.1121 -0.6031  0.2754
    2MOL   O167  529   0.213   0.706   3.996 -0.5559  0.2130 -1.0518
    2MOL   O168  530   0.154   0.662   4.205  0.0405 -0.3766  0.5100
    2MOL   C169  531   0.227   0.773   4.249  0.0506  0.1568 -0.4683
    2MOL   C170  532   0.226   0.788   4.400  0.0593 -0.5450 -0.0341
    2MOL   C171  533   0.352   0.840   4.451 -0.3593 -0.1580  0.1616
    2MOL   H172  534   0.112   0.313   3.966  0.4615 -0.5375  0.1403
    2MOL   H173  535   0.253   0.392   3.993  1.3868 -1.3892  3.0466
    2MOL   H174  536   7.873   0.499   4.113  1.5359 -1.6203  1.1185
    2MOL   H175  537   0.329   0.770   4.211 -0.7233 -0.1042 -2.5647
    2MOL   H176  538   0.197   0.865   4.199  0.0569 -0.5062 -1.7029
    2MOL   H177  539   0.148   0.861   4.420 -2.1315 -3.3942  2.4451
    2MOL   H178  540   0.196   0.697   4.452  0.2752 -0.8209 -0.3947
    2MOL   H179  541   0.433   0.769   4.463 -0.9975 -0.6815  1.4119
    2MOL   H180  542   0.336   0.885   4.549 -0.5714 -1.3056  0.6623
    2MOL   H181  543   0.390   0.921   4.389  1.3321  0.3525  1.8407
    2MOL   C182  544   7.873   0.537   3.910  0.1822  0.5819 -0.1530
    2MOL   C183  545   7.747   0.634   3.933  0.4532  0.8678 -0.6898
    2MOL   C184  546   7.707   0.695   3.795  0.6278  0.0109  0.3506
    2MOL   O185  547   7.728   0.634   3.687 -0.1469  0.1410 -0.1130
    2MOL   O186  548   7.667   0.824   3.816  0.0335 -0.3662  0.4727
    2MOL   C187  549   7.652   0.927   3.714 -0.4526 -0.1282 -0.1893
    2MOL   C188  550   7.789   0.968   3.651  0.1615 -0.0575  0.2911
    2MOL   C189  551   7.778   1.081   3.536 -0.2828 -1.0024  0.2013
    2MOL   H190  552   7.834   0.445   3.868  2.4844 -0.3780 -0.2322
    2MOL   H191  553   0.066   0.560   3.833  0.3988  2.8201  0.6847
    2MOL   H192  554   7.779   0.720   3.991  2.0023  0.7109 -1.2797
    2MOL   H193  555   7.584   0.888   3.639 -0.1944 -0.1442 -0.4124
    2MOL   H194  556   7.603   1.015   3.756 -2.4427 -2.3384  2.2501
    2MOL   H195  557   7.859   1.006   3.725 -0.5132 -0.7915  1.3189
    2MOL   H196  558   7.837   0.882   3.604 -1.2517 -2.3051  2.8169
    2MOL   H197  559   7.681   1.077   3.486 -0.4554  1.6309  0.2305
    2MOL   H198  560   7.841   1.057   3.451  0.3899  0.2117  0.3542
    2MOL   H199  561   7.800   1.183   3.567 -0.0637 -0.4569 -1.7111
    2MOL   C200  562   7.628   0.565   4.012 -0.0276 -0.0570 -0.0152
    2MOL   C201  563   7.564   0.641   4.134  0.3336 -0.2406 -0.7204
    2MOL   C202  564   7.664   0.665   4.244  0.1696 -0.4829  0.1448
    2MOL   O203  565   7.693   0.785   4.269  0.0089  0.4065  0.6380
    2MOL   O204  566   7.707   0.556   4.308  0.3731  0.0789 -0.0524
    2MOL   C205  567   7.773   0.564   4.430  0.6628 -0.7584 -0.5904
    2MOL   C206  568   7.731   0.440   4.510  0.1149  0.6864 -0.1736
    2MOL   C207  569   7.841   0.403   4.606  0.5058  0.2707 -0.7954
    2MOL   H208  570   7.663   0.464   4.033  1.9605  0.9878  1.8839
    2MOL   H209  571   7.545   0.556   3.942  0.2420 -0.9871 -0.2224
    2MOL   H210  572   7.495   0.577   4.189  0.6018 -0.5037 -0.6846
    2MOL   H211  573   0.000   0.567   4.410  0.4617 -1.3500 -1.7533
    2MOL   H212  574   7.746   0.652   4.489 -0.4605 -0.7081 -1.1796
    2MOL   H213  575   7.635   0.457   4.558  0.2227  0.6857  0.0403
    2MOL   H214  576   7.716   0.359   4.438 -2.1513  1.4245 -0.5752
    2MOL   H215  577   7.809   0.330   4.680 -0.4944 -1.2826 -2.7147
    2MOL   H216  578   0.018   0.490   4.639 -0.6215  0.4232  0.8603
    2MOL   H217  579   0.033   0.354   4.543 -1.0886  0.6287 -2.9618
    2MOL   C218  580   7.478   0.767   4.092  0.3939  0.0978  0.2180
    2MOL   C219  581   7.340   0.747   4.016 -0.8994  0.7907  0.2065
    2MOL   C220  582   7.229   0.687   4.104 -0.2950 -0.3515 -0.5790
    2MOL   O221  583   7.226   0.704   4.225  0.2450 -0.3767 -0.1513
    2MOL   O222  584   7.129   0.628   4.036  0.8866 -0.2138 -0.1565
    2MOL   C223  585   7.011   0.597   4.102  0.2225 -0.0559 -0.3167
    2MOL   C224  586   7.015   0.477   4.188  0.1383  0.0367 -0.3720
    2MOL   C225  587   6.874   0.419   4.232  0.6431 -0.1151 -0.5526
    2MOL   H226  588   7.543   0.839   4.043 -0.0743  0.9377  0.8292
    2MOL   H227  589   7.455   0.828   4.180 -2.6467  0.3536 -0.7136
    2MOL   H228  590   7.353   0.666   3.945 -0.3501  0.3868  0.7566
    2MOL   H229  591   6.974   0.682   4.159  1.0194  0.1727 -0.1475
    2MOL   H230  592   6.944   0.572   4.019  0.3089 -1.0090 -0.1092
    2MOL   H231  593   7.070   0.411   4.120 -0.0754  0.1058 -0.6139
    2MOL   H232  594   7.067   0.505   4.280  1.1195 -0.1894 -0.8570
    2MOL   H233  595   6.885   0.339   4.305 -0.2473  1.3973  1.2834
    2MOL   H234  596   6.818   0.385   4.146  0.6812 -1.5413 -0.0198
    2MOL   H235  597   6.809   0.496   4.273  2.0097  0.8654 -0.1818
    2MOL   C236  598   7.299   0.877   3.942 -0.5266 -0.6056  0.7516
    2MOL   C237  599   7.239   0.993   4.031 -0.7320  0.2680  0.5190
    2MOL   C238  600   7.346   1.082   4.092  0.3967  0.6825 -0.3855
    2MOL   O239  601   7.462   1.082   4.054 -0.1880 -0.0148 -0.3994
    2MOL   O240  602   7.305   1.174   4.182  0.0244  0.1271  0.0936
    2MOL   C241  603   7.400   1.271   4.237 -0.3618 -0.5542 -0.5665
    2MOL   C242  604   7.438   1.391   4.155  0.5613  0.6184 -0.1418
    2MOL   C243  605   7.325   1.477   4.118 -0.7680  0.1735 -0.2691
    2MOL   H244  606   7.228   0.842   3.867  0.8781  3.6986 -2.8549
    2MOL   H245  607   7.378   0.919   3.880 -0.5900  0.8794  1.6727
    2MOL   H246  608   7.183   0.958   4.117 -0.4702  0.7709  0.8932
    2MOL   H247  609   7.374   1.304   4.338  0.6513 -1.0069 -0.1589
    2MOL   H248  610   7.488   1.209   4.251  0.0232  0.0843 -0.1074
    2MOL   H249  611   7.507   1.445   4.220  1.5517  0.0370 -0.6911
    2MOL   H250  612   7.494   1.361   4.066  0.3425 -0.8519  0.2172
    2MOL   H251  613   7.262   1.512   4.200 -2.1858 -1.2639 -0.7124
    2MOL   H252  614   7.255   1.422   4.054 -0.5949  3.8436 -3.8507
    2MOL   H253  615   7.358   1.558   4.052 -0.1798  0.9784  0.9870
    2MOL   C254  616   7.143   1.079   3.957  0.2735 -0.7702 -0.4939
    2MOL   C255  617   7.004   1.027   3.948  0.0317 -0.3306 -0.8349
    2MOL   C256  618   6.934   0.997   4.087 -0.2443 -0.5143 -0.0871
    2MOL   O257  619   6.962   1.046   4.199  0.4117 -0.0625  0.2399
    2MOL   O258  620   6.824   0.931   4.066  0.1300  0.3086  0.4050
    2MOL   C259  621   6.733   0.912   4.165 -0.2303  0.4660  0.4052
    2MOL   C260  622   6.604   0.976   4.124  0.4981  0.1981  0.3218
    2MOL   C261  623   6.600   1.132   4.130 -0.7359  0.5170  0.5467
    2MOL   H262  624   7.167   1.086   3.851  0.4570  3.7934 -0.2332
    2MOL   H263  625   7.147   1.183   3.989 -1.4307 -1.3236  1.6822
    2MOL   H264  626   7.010   0.930   3.899  3.3837  0.3571 -1.9429
    2MOL   H265  627   6.736   0.803   4.175  0.8420  0.6841  2.8916
    2MOL   H266  628   6.767   0.956   4.259  0.2989 -1.2819  1.0703
    2MOL   H267  629   6.565   0.940   4.028  0.1253  0.1328  0.4958
    2MOL   H268  630   6.523   0.945   4.189  0.5024 -4.2375 -1.5488
    2MOL   H269  631   6.663   1.167   4.048  2.1827 -0.5665  2.2498
    2MOL   H270  632   6.636   1.170   4.226 -1.9967  1.4225  0.6888
    2MOL   H271  633   6.498   1.170   4.117 -0.7777  0.1751 -0.1424
    2MOL   C272  634   6.924   1.131   3.868 -0.2694 -0.7419  0.4968
    2MOL   C273  635   6.942   1.133   3.710  0.2084 -0.2928 -0.8937
    2MOL   C274  636   6.870   1.016   3.646  0.1121  0.6578 -0.2895
    2MOL   O275  637   6.943   0.931   3.595 -0.2984 -0.3406  0.4891
    2MOL   O276  638   6.727   1.017   3.645  0.4135 -0.0746 -0.0789
    2MOL   C277  639   6.651   0.911   3.578  0.2959 -0.6480  0.3265
    2MOL   C278  640   6.521   0.883   3.654  0.1108 -0.3431  0.3496
    2MOL   C279  641   6.534   0.755   3.736 -0.0699  0.3937  0.6901
    2MOL   H280  642   6.934   1.233   3.906  1.7209  0.1987 -2.4414
    2MOL   H281  643   6.818   1.109   3.881 -0.5486 -1.0191 -2.0128
    2MOL   H282  644   7.047   1.127   3.683  0.7197  1.2000  0.6871
    2MOL   H283  645   6.626   0.938   3.475 -1.6433 -0.1157  0.9284
    2MOL   H284  646   6.707   0.818   3.585  0.6441 -0.3832  1.1134
    2MOL   H285  647   6.498   0.967   3.720  1.8578  1.8055 -1.6855
    2MOL   H286  648   6.436   0.879   3.587  0.1936 -0.4171  0.2494
    2MOL   H287  649   6.442   0.718   3.783 -0.9052  0.3422 -0.9421
    2MOL   H288  650   6.613   0.748   3.810  0.4700  0.3448  0.1111
    2MOL   H289  651   6.546   0.671   3.668 -0.3232  0.0746  1.0386
    2MOL   C290  652   6.883   1.268   3.650 -0.4124  0.5061  0.6163
    2MOL   C291  653   6.963   1.388   3.692 -0.1943 -0.3502  0.5822
    2MOL   C292  654   7.115   1.373   3.652  0.6022  0.8017 -0.0427
    2MOL   O293  655   7.155   1.347   3.540 -0.2480 -0.2768  0.1729
    2MOL   O294  656   7.188   1.378   3.759 -0.3163 -0.3763 -0.7381
    2MOL   C295  657   7.328   1.331   3.756 -0.1290  0.1186 -0.0296
    2MOL   C296  658   7.435   1.430   3.723 -0.0752  0.1227  0.4831
    2MOL   C297  659   7.577   1.371   3.739  0.4161 -0.2525  1.1017
    2MOL   H298  660   6.780   1.282   3.682 -0.8542  2.0915 -1.3938
    2MOL   H299  661   6.876   1.246   3.544 -1.0104 -0.7182  0.8994
    2MOL   H300  662   6.971   1.392   3.800  2.9520  2.4367  0.3504
    2MOL   H301  663   7.351   1.271   3.844 -1.9205 -0.0628  0.3173
    2MOL   H302  664   7.334   1.254   3.680  0.5500  0.6224 -0.4971
    2MOL   H303  665   7.423   1.459   3.618  2.1918 -1.5432 -0.2756
    2MOL   H304  666   7.423   1.524   3.777  0.9927  1.8026 -2.0691
    2MOL   H305  667   7.613   1.328   3.833 -0.7761 -0.5672  1.4175
    2MOL   H306  668   7.651   1.447   3.712 -0.0909 -0.3053 -0.4778
    2MOL   H307  669   7.593   1.293   3.664 -0.2118  0.5772  0.0863
    2MOL   C308  670   6.906   1.522   3.637  0.2752  0.0726 -0.4509
    2MOL   C309  671   6.964   1.654   3.677 -0.4494 -1.4486  0.5412
    2MOL   C310  672   7.008   1.669   3.826 -0.5695  0.0234 -0.2369
    2MOL   O311  673   7.129   1.686   3.857  0.2540 -0.1376  0.4358
    2MOL   O312  674   6.908   1.675   3.911 -0.6388 -0.2151  0.3777
    2MOL   C313  675   6.928   1.697   4.050  0.7727 -0.3766  0.4841
    2MOL   C314  676   6.794   1.657   4.112 -0.0696 -0.4731 -0.0006
    2MOL   C315  677   6.754   1.515   4.112 -0.0344  0.2072  0.0554
    2MOL   H316  678   6.806   1.536   3.679  0.4062 -0.0868 -0.0870
    2MOL   H317  679   6.900   1.527   3.528 -0.4247  1.4431 -0.3638
    2MOL   H318  680   6.882   1.726   3.667 -1.3485 -2.5441 -0.0492
    2MOL   H319  681   7.016   1.642   4.081  0.0477 -0.9267  1.6010
    2MOL   H320  682   6.942   1.803   4.071 -1.1960  0.4121 -1.8718
    2MOL   H321  683   6.798   1.675   4.220  3.1316 -1.1178  0.0339
    2MOL   H322  684   6.711   1.722   4.084  1.4494  1.6646  0.2569
    2MOL   H323  685   6.838   1.445   4.105 -0.4352 -0.4024  1.3322
    2MOL   H324  686   6.695   1.502   4.202  1.0441  2.5604  1.1453
    2MOL   H325  687   6.689   1.490   4.028 -0.3749 -1.3180  0.7474
    2MOL   C326  688   7.079   1.709   3.579  0.1598 -0.5114 -0.1014
    2MOL   C327  689   7.113   1.861   3.598 -0.1976  0.1123  0.1033
    2MOL   C328  690   7.254   1.903   3.547  0.2445  0.2937 -0.4773
    2MOL   O329  691   7.262   1.979   3.449 -0.0461  0.2766  0.8006
    2MOL   O330  692   7.351   1.846   3.617 -0.1162  0.8015 -0.4248
    2MOL   C331  693   7.488   1.868   3.589  0.0606 -0.2957 -0.1113
    2MOL   C332  694   7.570   1.822   3.705 -1.0467 -0.0541  0.4463
    2MOL   C333  695   7.724   1.830   3.687 -0.0476  0.2944 -0.3871
    2MOL   H334  696   7.063   1.681   3.475  1.4421 -2.8036  0.2685
    2MOL   H335  697   7.172   1.662   3.613 -0.0930 -1.9723 -1.3654
    2MOL   H336  698   7.136   1.865   3.705 -0.2700 -1.8191  0.2091
    2MOL   H337  699   7.515   1.808   3.502 -1.3624 -2.0328  0.6035
    2MOL   H338  700   7.510   1.971   3.563  0.7802  0.4303  3.1495
    2MOL   H339  701   7.550   1.871   3.800 -0.7175 -0.2229  0.6034
    2MOL   H340  702   7.545   1.717   3.722 -3.0319  0.1944 -0.8528
    2MOL   H341  703   7.749   1.800   3.586 -4.4766  0.0541 -1.4968
    2MOL   H342  704   7.753   1.934   3.699 -2.9258  1.0497  0.4832
    2MOL   H343  705   7.767   1.766   3.764  0.2287 -0.0493 -0.8232
    2MOL   C344  706   6.996   1.950   3.554 -0.4117 -0.2720 -0.7959
    2MOL   C345  707   6.942   1.928   3.411 -0.0741  0.2427  0.0984
    2MOL   C346  708   6.825   2.024   3.375 -0.3078  0.6183  0.8095
    2MOL   O347  709   6.823   2.139   3.416  0.2058  0.1975 -0.3443
    2MOL   O348  710   6.724   1.964   3.302  0.3011 -0.5914  0.0004
    2MOL   C349  711   6.591   2.015   3.297  0.1415  0.0774 -0.3919
    2MOL   C350  712   6.521   1.947   3.177 -0.1765 -0.1200 -0.5735
    2MOL   C351  713   6.399   2.028   3.140  0.1469 -0.4921  0.2250
    2MOL   H352  714   7.020   2.056   3.563  0.2863 -0.4936  0.1483
    2MOL   H353  715   6.907   1.943   3.616  0.4066 -0.1582  0.4064
    2MOL   H354  716   6.912   1.824   3.400 -0.9454  0.3707  1.1323
    2MOL   H355  717   6.548   1.990   3.394  1.7529  0.7925  0.5464
    2MOL   H356  718   6.602   2.123   3.288 -0.4060  0.1418 -0.3021
    2MOL   H357  719   6.595   1.941   3.097 -1.1828 -0.4282 -1.4991
    2MOL   H358  720   6.489   1.846   3.202  2.7592 -0.7152  1.0031
    2MOL   H359  721   6.323   2.034   3.218  1.0131 -0.2513  1.0632
    2MOL   H360  722   6.440   2.117   3.093  3.2874 -2.7995 -1.6374
    2MOL   H361  723   6.341   1.978   3.062 -1.5782  2.5771 -0.5223
    2MOL   H362  724   7.027   1.941   3.345  0.8687  0.2018  1.2868
    3MOL     C1  725   3.446   5.559   4.050  0.1901  0.3516  0.2889
    3MOL     C2  726   3.388   5.458   3.958  0.2448 -0.1877  0.6242
    3MOL     C3  727   3.488   5.353   3.917 -0.1599  0.4172  0.1443
    3MOL     O4  728   3.502   5.319   3.799 -0.1437 -0.5972  0.0511
    3MOL     O5  729   3.545   5.293   4.021 -0.1307 -0.5015  0.1229
    3MOL     C6  730   3.631   5.186   3.993 -0.1557  0.3499  0.2707
    3MOL     C7  731   3.548   5.056   3.996  0.0198  0.1676 -0.0934
    3MOL     C8  732   3.499   5.007   4.129  0.5151  0.6230 -0.7026
    3MOL     H9  733   3.458   5.529   4.154  2.3936 -2.1631 -0.6340
    3MOL    H10  734   3.547   5.574   4.014 -0.2037 -0.5280 -1.2396
    3MOL    H11  735   3.369   5.507   3.863 -2.6117 -1.6023  0.4014
    3MOL    H12  736   3.683   5.205   3.899  0.3640 -1.0697  0.2524
    3MOL    H13  737   3.714   5.190   4.063  1.4133  2.5623 -1.6656
    3MOL    H14  738   3.462   5.072   3.931 -0.4607  1.1293  0.7739
    3MOL    H15  739   3.603   4.972   3.953  2.7138  1.5291  0.6530
    3MOL    H16  740   3.438   5.092   4.158 -1.2693 -1.1974  1.0291
    3MOL    H17  741   3.440   4.916   4.116  2.0603 -0.3982 -0.7016
    3MOL    H18  742   3.587   4.986   4.189 -0.4346  1.3869  0.9906
    3MOL    H19  743   3.395   5.655   4.053  0.4405  0.5025 -0.3236
    3MOL    C20  744   3.261   5.385   4.007  0.2701 -0.8357  0.7282
    3MOL    C21  745   3.128   5.477   4.023 -0.5496 -0.8212  0.6947
    3MOL    C22  746   3.083   5.539   3.892 -0.1453 -0.5552  0.0007
    3MOL    O23  747   3.075   5.662   3.872  0.6460  0.3355 -0.2221
    3MOL    O24  748   3.049   5.451   3.804 -0.1010 -0.3336 -0.2625
    3MOL    C25  749   3.004   5.505   3.675  0.2913  0.3618 -0.7012
    3MOL    C26  750   3.119   5.551   3.588 -0.1628  0.9231  0.5976
    3MOL    C27  751   3.070   5.580   3.450  0.4153 -0.6027  0.8116
    3MOL    H28  752   3.284   5.324   4.095  0.0569 -0.3849  1.1011
    3MOL    H29  753   3.230   5.306   3.939  3.1208  0.2087 -1.8994
    3MOL    H30  754   3.169   5.556   4.085 -1.3846  1.6721 -1.8190
    3MOL    H31  755   2.958   5.418   3.628 -2.2566  1.0545  0.4403
    3MOL    H32  756   2.931   5.585   3.687  0.4420  0.4590 -0.4197
    3MOL    H33  757   3.175   5.634   3.631 -1.1811  0.3417  3.1276
    3MOL    H34  758   3.189   5.467   3.586 -0.0032  1.0310  1.6037
    3MOL    H35  759   2.969   5.544   3.426  0.0748  1.1907 -0.6105
    3MOL    H36  760   3.123   5.550   3.360  0.8529  0.9678  0.5293
    3MOL    H37  761   3.053   5.688   3.445  0.2512 -0.5565  2.1377
    3MOL    C38  762   3.023   5.415   4.112  0.1443 -0.1075 -0.2653
    3MOL    C39  763   2.908   5.496   4.179 -0.1358  0.1549 -0.3097
    3MOL    C40  764   2.959   5.604   4.268 -1.4872  0.7283 -0.3492
    3MOL    O41  765   2.950   5.572   4.386  0.2548  0.5900  0.5609
    3MOL    O42  766   3.025   5.715   4.210 -0.3927  0.1272 -0.3389
    3MOL    C43  767   3.070   5.826   4.284 -0.1636  0.4060  0.3588
    3MOL    C44  768   3.189   5.884   4.205  0.1521  0.3191  0.0709
    3MOL    C45  769   3.158   5.918   4.057  0.2457  0.1487 -0.5015
    3MOL    H46  770   3.070   5.373   4.201  0.4020  2.6971  1.0081
    3MOL    H47  771   2.972   5.328   4.072 -1.1290 -0.0137  1.1190
    3MOL    H48  772   2.847   5.435   4.246 -2.4228  1.1286 -1.4328
    3MOL    H49  773   2.991   5.901   4.284 -0.6499 -0.0807 -0.8422
    3MOL    H50  774   3.083   5.805   4.390 -0.1830  0.0430  0.2902
    3MOL    H51  775   3.232   5.965   4.264  1.1887  0.0185 -0.2640
    3MOL    H52  776   3.267   5.809   4.212  2.1460  2.2158 -0.8898
    3MOL    H53  777   3.241   5.886   3.994  0.0444 -1.4455  0.0200
    3MOL    H54  778   3.160   6.027   4.043  2.8790  0.9035  4.6625
    3MOL    H55  779   3.058   5.882   4.034 -1.1324  3.2677  0.3075
    3MOL    C56  780   2.804   5.554   4.075 -0.0662 -0.4180  0.5368
    3MOL    C57  781   2.732   5.438   4.001 -0.6522  0.0136 -0.4202
    3MOL    C58  782   2.645   5.341   4.080 -0.0458  0.1326  0.6602
    3MOL    O59  783   2.688   5.232   4.114 -0.0661  0.5648 -1.0383
    3MOL    O60  784   2.527   5.386   4.113  0.1315 -0.3036  0.3163
    3MOL    C61  785   2.439   5.314   4.201  0.5668 -1.9683 -0.2006
    3MOL    C62  786   2.352   5.402   4.289 -0.5246 -0.2038  1.2261
    3MOL    C63  787   2.441   5.466   4.390 -0.5696  0.1765  0.4387
    3MOL    H64  788   2.855   5.630   4.016 -0.0743 -2.3562 -2.0211
    3MOL    H65  789   2.731   5.602   4.141 -0.9894  0.1577 -0.8980
    3MOL    H66  790   2.807   5.381   3.946 -0.1095 -0.4097  0.7516
    3MOL    H67  791   2.363   5.274   4.134 -0.7247 -1.7046  1.0736
    3MOL    H68  792   2.491   5.235   4.256  0.0102 -1.0706  1.6787
    3MOL    H69  793   2.306   5.480   4.228  2.2932 -0.4897 -1.3692
    3MOL    H70  794   2.293   5.325   4.337 -0.2142 -0.4836  1.1632
    3MOL    H71  795   2.377   5.513   4.465  2.3591  1.7990  2.0130
    3MOL    H72  796   2.493   5.555   4.354 -1.3683 -0.3466 -2.1659
    3MOL    H73  797   2.517   5.401   4.433 -2.0078 -0.9138  1.3815
    3MOL    C74  798   2.651   5.503   3.888  0.2895 -0.3011 -0.3423
    3MOL    C75  799   2.573   5.404   3.794  0.6403 -0.4001  0.9689
    3MOL    C76  800   2.469   5.471   3.707  0.0387 -0.1133 -0.6476
    3MOL    O77  801   2.468   5.459   3.587 -0.3909  0.5500  0.0113
    3MOL    O78  802   2.378   5.546   3.773  0.3741  0.2541  0.0603
    3MOL    C79  803   2.274   5.611   3.698  0.2304  0.2116  0.5423
    3MOL    C80  804   2.151   5.664   3.778 -0.8216  0.2769  0.1120
    3MOL    C81  805   2.079   5.558   3.860 -0.2942  0.4024 -0.0608
    3MOL    H82  806   2.702   5.564   3.813 -1.2761 -0.4249 -1.5500
    3MOL    H83  807   2.577   5.566   3.937 -0.8176 -1.5046 -0.4145
    3MOL    H84  808   2.520   5.334   3.858  0.7436 -0.7990  0.6222
    3MOL    H85  809   2.318   5.693   3.639 -2.3273  1.2049 -0.0544
    3MOL    H86  810   2.237   5.530   3.635 -1.1521  1.5851 -0.4553
    3MOL    H87  811   2.195   5.734   3.849  0.9423 -0.3285 -0.3724
    3MOL    H88  812   2.081   5.721   3.716 -1.5359 -0.9649 -0.2500
    3MOL    H89  813   2.021   5.491   3.797  3.0006 -1.2656 -1.4682
    3MOL    H90  814   2.016   5.597   3.940 -0.5391  1.9756 -0.9977
    3MOL    H91  815   2.144   5.490   3.915  0.6924  0.7511 -0.7888
    3MOL    C92  816   2.668   5.304   3.717 -0.6944 -0.5208  0.0045
    3MOL    C93  817   2.613   5.162   3.675  0.3185  0.2304  0.8911
    3MOL    C94  818   2.682   5.106   3.550 -0.2668  0.1141  0.5195
    3MOL    O95  819   2.616   5.072   3.449  0.1069  0.3310 -0.3991
    3MOL    O96  820   2.812   5.096   3.570 -0.4396  0.5403 -0.0795
    3MOL    C97  821   2.898   5.050   3.467  0.2687  1.0304 -0.1497
    3MOL    C98  822   3.010   4.984   3.545  0.0928  0.5358 -0.4322
    3MOL    C99  823   2.956   4.857   3.602 -0.4238  0.7108 -0.3817
    3MOL   H100  824   2.759   5.274   3.769  0.3515  1.6069 -0.5316
    3MOL   H101  825   2.717   5.345   3.628  2.0033 -0.0981  1.6513
    3MOL   H102  826   2.513   5.183   3.637  0.7183  0.0830 -0.2882
    3MOL   H103  827   2.854   4.973   3.404 -1.3062  0.3294  1.7540
    3MOL   H104  828   2.926   5.129   3.397  0.8458  0.6882 -0.3116
    3MOL   H105  829   3.090   4.948   3.481 -0.7542 -2.6790  0.2332
    3MOL   H106  830   3.058   5.047   3.620  0.2625 -0.0245 -0.0663
    3MOL   H107  831   2.877   4.876   3.674  0.2117 -1.6605  1.0059
    3MOL   H108  832   3.035   4.801   3.652 -0.9134  0.2835 -0.0800
    3MOL   H109  833   2.916   4.791   3.524 -1.2453  0.3075  0.3645
    3MOL   C110  834   2.617   5.059   3.796 -0.3780  0.7437  0.1326
    3MOL   C111  835   2.502   4.956   3.820 -0.0493 -0.1430 -0.0890
    3MOL   C112  836   2.375   5.029   3.856 -0.7606 -0.2777 -0.3335
    3MOL   O113  837   2.324   5.037   3.964  0.4536  0.4096  0.5314
    3MOL   O114  838   2.316   5.098   3.749  0.0086  0.1967 -0.1095
    3MOL   C115  839   2.204   5.184   3.769  0.5266  0.5451 -0.2389
    3MOL   C116  840   2.157   5.222   3.629 -0.5201 -0.0590 -0.6522
    3MOL   C117  841   2.131   5.095   3.548  0.0307  0.3231 -0.2225
    3MOL   H118  842   2.643   5.106   3.891 -0.3440  2.3699 -0.6615
    3MOL   H119  843   2.706   4.998   3.779 -2.2693 -2.6323  1.9186
    3MOL   H120  844   2.505   4.891   3.908  0.6973 -0.5475 -0.4104
    3MOL   H121  845   2.128   5.127   3.822 -1.2607  3.1652  0.0826
    3MOL   H122  846   2.224   5.266   3.838  0.9995  1.2985 -1.2486
    3MOL   H123  847   2.068   5.282   3.642 -2.6074 -3.3875  1.2510
    3MOL   H124  848   2.233   5.276   3.572  1.8739 -1.3318  1.1978
    3MOL   H125  849   2.227   5.047   3.530  0.1732  0.3757  0.4127
    3MOL   H126  850   2.091   5.123   3.450 -3.8652  2.1098  1.7647
    3MOL   H127  851   2.067   5.025   3.601  1.8279 -1.4684 -0.3530
    3MOL   C128  852   2.467   4.853   3.709 -0.1785  0.5225  0.4952
    3MOL   C129  853   2.588   4.760   3.673  0.1389  0.0176 -0.8044
    3MOL   C130  854   2.635   4.659   3.774 -0.3745  0.7629  0.2133
    3MOL   O131  855   2.727   4.686   3.850 -0.0829  0.8384  0.0540
    3MOL   O132  856   2.558   4.546   3.775 -0.0907  0.1603 -0.3172
    3MOL   C133  857   2.562   4.457   3.885 -0.4770  0.0882  0.4841
    3MOL   C134  858   2.437   4.461   3.968  0.3348 -0.2421 -0.4564
    3MOL   C135  859   2.415   4.595   4.043  0.8697  0.1571  0.1322
    3MOL   H136  860   2.440   4.914   3.623 -1.4998  0.2153  0.6793
    3MOL   H137  861   2.377   4.796   3.733 -0.8613  1.0924 -0.6607
    3MOL   H138  862   2.672   4.828   3.661 -0.8685  1.7485  1.6949
    3MOL   H139  863   2.571   4.357   3.842  2.5254  0.7492 -0.5896
    3MOL   H140  864   2.661   4.466   3.931  0.8370  0.5841 -2.3044
    3MOL   H141  865   2.354   4.430   3.905 -1.0390 -0.3329  1.3564
    3MOL   H142  866   2.462   4.383   4.039  0.3326  0.2417  0.0851
    3MOL   H143  867   2.389   4.680   3.979  1.6465  0.3305  0.0448
    3MOL   H144  868   2.505   4.620   4.099  1.0025  3.1877 -1.3036
    3MOL   H145  869   2.333   4.585   4.115  1.0593 -1.5320  0.1222
    3MOL   C146  870   2.579   4.688   3.529 -0.2354  0.0881 -0.2946
    3MOL   C147  871   2.439   4.631   3.483  0.0697  0.0585  0.1431
    3MOL   C148  872   2.369   4.742   3.400  0.4036  0.7244 -0.0748
    3MOL   O149  873   2.262   4.803   3.433 -0.2845 -0.4760  0.4875
    3MOL   O150  874   2.435   4.763   3.289  0.5008 -0.3169 -0.7528
    3MOL   C151  875   2.401   4.878   3.212 -0.0407 -0.0416  0.2606
    3MOL   C152  876   2.287   4.855   3.115  0.0578  0.4626 -0.3319
    3MOL   C153  877   2.313   4.749   3.009 -0.1608  0.2759  0.2017
    3MOL   H154  878   2.649   4.605   3.527 -0.3500 -0.0454  0.7109
    3MOL   H155  879   2.627   4.750   3.453 -1.9813 -2.8575 -3.9202
    3MOL   H156  880   2.380   4.611   3.572 -2.7505 -0.3646 -1.7306
    3MOL   H157  881   2.378   4.972   3.263  0.1558 -0.6720  1.5341
    3MOL   H158  882   2.486   4.906   3.150 -1.8087  0.2660 -2.0649
    3MOL   H159  883   2.195   4.831   3.168 -0.8658  3.0064 -0.7209
    3MOL   H160  884   2.251   4.947   3.070 -0.0817  0.1035 -0.9717
    3MOL   H161  885   2.287   4.788   2.910 -1.3067 -1.2439 -0.1005
    3MOL   H162  886   2.236   4.672   3.016 -1.0272  0.7640 -2.9911
    3MOL   H163  887   2.417   4.718   3.004  0.7617  3.2496 -0.5746
    3MOL   C164  888   2.459   4.503   3.398  0.0237  0.0341 -1.1167
    3MOL   C165  889   2.470   4.380   3.485  0.4828 -0.2772  0.0928
    3MOL   C166  890   2.338   4.354   3.558  0.9266 -0.0402 -0.1783
    3MOL   O167  891   2.326   4.370   3.680 -0.4551  0.7383  0.6208
    3MOL   O168  892   2.238   4.309   3.475  0.7167 -0.4018 -0.4129
    3MOL   C169  893   2.111   4.264   3.531  0.5380 -0.4888 -0.3928
    3MOL   C170  894   2.006   4.232   3.426 -0.2000 -0.5571 -0.1853
    3MOL   C171  895   1.887   4.153   3.486 -0.1640  0.0095 -0.0722
    3MOL   H172  896   2.549   4.511   3.338  1.5859 -1.0851  1.0186
    3MOL   H173  897   2.388   4.492   3.315 -0.2746 -2.4526 -0.5813
    3MOL   H174  898   2.550   4.402   3.556  1.2278  0.1351 -0.8524
    3MOL   H175  899   2.122   4.188   3.608  1.4753 -0.7803 -0.8009
    3MOL   H176  900   2.078   4.348   3.592  1.4766 -0.5527  0.1995
    3MOL   H177  901   1.980   4.317   3.364 -2.2237 -0.8083  0.2939
    3MOL   H178  902   2.055   4.160   3.361 -1.7532 -1.5665 -0.2745
    3MOL   H179  903   1.832   4.103   3.406  1.6331 -1.1149 -0.6235
    3MOL   H180  904   1.818   4.212   3.547 -1.3130  0.3131 -1.6483
    3MOL   H181  905   1.925   4.066   3.539  0.1357  1.3226  1.9571
    3MOL   C182  906   2.513   4.258   3.404  0.1390 -0.1098  0.3626
    3MOL   C183  907   2.574   4.142   3.471  0.0846  0.4415  0.0869
    3MOL   C184  908   2.719   4.165   3.521 -1.0860 -1.2199  0.2102
    3MOL   O185  909   2.813   4.110   3.463 -0.3287  0.1257  0.1179
    3MOL   O186  910   2.726   4.247   3.624  0.0536  0.0301 -0.1663
    3MOL   C187  911   2.854   4.275   3.681 -0.1153  0.1172  0.1034
    3MOL   C188  912   2.904   4.407   3.606 -0.2448  0.4334 -0.4484
    3MOL   C189  913   3.041   4.456   3.648 -1.1856 -0.5488  0.5756
    3MOL   H190  914   2.581   4.291   3.326 -1.3755  0.6808 -0.6347
    3MOL   H191  915   2.425   4.215   3.356  0.4618 -0.1046 -0.2274
    3MOL   H192  916   2.584   4.064   3.395  0.4673  0.6321 -0.0575
    3MOL   H193  917   2.842   4.289   3.789  1.2686 -0.4901  0.3468
    3MOL   H194  918   2.930   4.197   3.669 -0.0925  0.0842  0.4570
    3MOL   H195  919   2.900   4.395   3.498  1.0908  2.0008 -0.6809
    3MOL   H196  920   2.821   4.474   3.632 -0.7285 -0.8102  1.3064
    3MOL   H197  921   3.120   4.382   3.640 -1.2354 -0.5974  0.5379
    3MOL   H198  922   3.032   4.481   3.754 -0.8639 -1.4973  0.8250
    3MOL   H199  923   3.070   4.549   3.599  0.1937 -2.6463 -2.7207
    3MOL   C200  924   2.486   4.082   3.594 -0.4567  0.1474 -0.1011
    3MOL   C201  925   2.517   3.932   3.616 -0.0910 -0.2751 -0.6771
    3MOL   C202  926   2.647   3.897   3.688 -0.2447  0.1668 -0.1005
    3MOL   O203  927   2.664   3.945   3.801 -0.6147 -0.2690  0.4554
    3MOL   O204  928   2.737   3.830   3.619  0.3558 -0.0258  0.0912
    3MOL   C205  929   2.862   3.792   3.677  0.2513 -0.6107 -1.1180
    3MOL   C206  930   2.937   3.691   3.595  0.1505 -0.3092  0.0188
    3MOL   C207  931   3.065   3.651   3.679  0.1995  0.6420  0.8465
    3MOL   H208  932   2.379   4.089   3.573 -0.4372  0.2608 -0.1649
    3MOL   H209  933   2.493   4.132   3.690  0.7318 -0.5285  0.1723
    3MOL   H210  934   2.525   3.882   3.519  0.4238  0.9475 -1.2617
    3MOL   H211  935   2.916   3.884   3.699  0.6202 -0.8280 -1.1080
    3MOL   H212  936   2.846   3.750   3.776 -0.5834 -1.3850 -1.5762
    3MOL   H213  937   2.872   3.607   3.571 -1.8271  1.5566 -1.3538
    3MOL   H214  938   2.964   3.740   3.502 -0.8798  0.0551 -0.0922
    3MOL   H215  939   3.150   3.718   3.669  1.2018 -0.8157 -0.8217
    3MOL   H216  940   3.101   3.554   3.643  0.3418  0.5139  1.3386
    3MOL   H217  941   3.055   3.624   3.784 -0.5488 -0.5526  0.4923
    3MOL   C218  942   2.409   3.859   3.698  0.3113  0.0564 -0.0300
    3MOL   C219  943   2.415   3.712   3.675  0.1093  0.6900  0.6743
    3MOL   C220  944   2.416   3.633   3.806  0.4119 -0.1889 -0.8233
    3MOL   O221  945   2.327   3.549   3.825 -0.6910  0.1889  0.2740
    3MOL   O222  946   2.523   3.665   3.886  0.4596  0.4749  0.0041
    3MOL   C223  947   2.547   3.595   4.006 -0.6199 -0.5669  0.4007
    3MOL   C224  948   2.693   3.609   4.020 -0.0504 -1.0678 -0.1802
    3MOL   C225  949   2.727   3.749   4.071 -0.4797 -0.0441 -0.2692
    3MOL   H226  950   2.305   3.882   3.675 -0.3415 -2.1328  0.5725
    3MOL   H227  951   2.424   3.883   3.804 -1.0313 -1.5749  0.5576
    3MOL   H228  952   2.507   3.680   3.625 -0.0777  0.4439  0.4836
    3MOL   H229  953   2.507   3.643   4.095  1.4893 -0.0567  1.1062
    3MOL   H230  954   2.525   3.490   3.993  0.4623 -1.0240  2.1193
    3MOL   H231  955   2.726   3.533   4.090  1.6507 -0.6364 -0.4967
    3MOL   H232  956   2.752   3.593   3.929  0.1315  0.6418 -0.3846
    3MOL   H233  957   2.655   3.817   4.025 -2.2680  0.7757  3.5971
    3MOL   H234  958   2.823   3.796   4.048  0.1542 -1.1450  0.0879
    3MOL   H235  959   2.697   3.748   4.175 -2.9631 -2.4280 -0.9706
    3MOL   C236  960   2.310   3.666   3.561  0.0935 -0.8033  0.0108
    3MOL   C237  961   2.340   3.711   3.417  0.1778 -0.9754  0.3038
    3MOL   C238  962   2.462   3.628   3.368  0.1707 -0.0998  0.4250
    3MOL   O239  963   2.465   3.507   3.386  0.6052 -0.2414 -0.2503
    3MOL   O240  964   2.559   3.698   3.312  0.3038  0.1470 -0.2157
    3MOL   C241  965   2.672   3.640   3.263 -0.6585  0.2299 -0.2031
    3MOL   C242  966   2.772   3.757   3.252  0.2133  0.8290  0.2201
    3MOL   C243  967   2.898   3.702   3.171  0.4623  0.0331  0.1927
    3MOL   H244  968   2.214   3.707   3.592 -0.3918  0.1915 -2.6441
    3MOL   H245  969   2.296   3.558   3.552 -0.9589 -0.5219 -2.2141
    3MOL   H246  970   2.369   3.816   3.415 -1.7827 -0.4251 -0.7759
    3MOL   H247  971   2.715   3.563   3.327 -0.9773 -2.7058 -3.4052
    3MOL   H248  972   2.658   3.598   3.164 -1.3916 -0.1137  0.0412
    3MOL   H249  973   2.731   3.844   3.199 -4.2225 -0.8258  0.7855
    3MOL   H250  974   2.798   3.788   3.353  0.3118 -1.0218  0.7755
    3MOL   H251  975   2.869   3.692   3.066  1.0193  0.5634 -0.0100
    3MOL   H252  976   2.939   3.608   3.207  0.0996  0.7017  2.3786
    3MOL   H253  977   2.983   3.768   3.181 -0.6644  1.5354 -0.0013
    3MOL   C254  978   2.222   3.705   3.322 -0.1510  0.1122  0.2506
    3MOL   C255  979   2.250   3.762   3.179  0.6929 -0.1571  0.3725
    3MOL   C256  980   2.147   3.699   3.080 -0.3629  0.3352 -0.1143
    3MOL   O257  981   2.175   3.624   2.981  0.3959 -0.3348  0.2926
    3MOL   O258  982   2.016   3.726   3.117  0.3326  0.3094  0.0015
    3MOL   C259  983   1.902   3.661   3.057  0.3019  0.5464  0.3174
    3MOL   C260  984   1.852   3.572   3.174  0.6603  0.2938  0.4292
    3MOL   C261  985   1.819   3.648   3.302  0.5697 -0.0637  0.0014
    3MOL   H262  986   2.134   3.760   3.357 -0.8454 -0.1161 -1.1184
    3MOL   H263  987   2.169   3.610   3.317 -0.0972 -0.0679  2.5767
    3MOL   H264  988   2.350   3.730   3.147  0.9277  1.9098 -1.0587
    3MOL   H265  989   1.826   3.732   3.023  0.3026  0.1163 -0.6120
    3MOL   H266  990   1.928   3.615   2.961 -0.4903  1.0742 -0.1573
    3MOL   H267  991   1.767   3.516   3.135  1.0745 -0.9495  1.2713
    3MOL   H268  992   1.928   3.495   3.183 -0.9385 -1.0914  2.2366
    3MOL   H269  993   1.784   3.583   3.383  0.8575  1.0679  1.0500
    3MOL   H270  994   1.738   3.719   3.288  0.2167 -0.0280  2.0478
    3MOL   H271  995   1.903   3.687   3.359  1.8692 -1.3245 -1.0294
    3MOL   C272  996   2.251   3.914   3.173  0.0504  0.0958 -0.6914
    3MOL   C273  997   2.320   3.982   3.051 -0.6203  0.0095 -0.3091
    3MOL   C274  998   2.283   4.127   3.028  0.2645  0.1802  0.2479
    3MOL   O275  999   2.284   4.207   3.123 -0.6419 -0.2709 -0.0661
    3MOL   O276 1000   2.279   4.161   2.895  0.0527  0.7204 -0.0341
    3MOL   C277 1001   2.272   4.300   2.857  0.2857 -0.1702  0.5303
    3MOL   C278 1002   2.400   4.335   2.784 -0.4308 -0.0343 -0.1821
    3MOL   C279 1003   2.417   4.489   2.767  0.3971  0.6413  0.4230
    3MOL   H280 1004   2.303   3.947   3.262  0.2922 -2.3719  0.1181
    3MOL   H281 1005   2.147   3.946   3.181 -0.7125 -2.8356  1.9408
    3MOL   H282 1006   2.288   3.945   2.953  0.2440 -0.4009 -0.4384
    3MOL   H283 1007   2.187   4.297   2.789  0.0082  1.4541  0.7928
    3MOL   H284 1008   2.248   4.357   2.947 -2.4749 -0.5319  0.0659
    3MOL   H285 1009   2.496   4.296   2.818 -0.2771 -1.0697 -1.7239
    3MOL   H286 1010   2.403   4.295   2.682  0.9846  2.8696 -1.3489
    3MOL   H287 1011   2.329   4.538   2.728  0.8112  1.5788  0.6584
    3MOL   H288 1012   2.484   4.519   2.686  0.0789 -0.4118 -0.2379
    3MOL   H289 1013   2.439   4.550   2.855  0.8396  1.2734 -0.1212
    3MOL   C290 1014   2.474   3.974   3.064  0.5545  0.4776 -1.1980
    3MOL   C291 1015   2.537   3.946   2.927  0.2792  0.3072  0.2655
    3MOL   C292 1016   2.685   4.004   2.915  0.3858  0.4934  0.7414
    3MOL   O293 1017   2.779   3.921   2.910 -0.8460 -0.4693 -0.2254
    3MOL   O294 1018   2.698   4.138   2.910 -0.3112 -0.2167 -0.6529
    3MOL   C295 1019   2.829   4.195   2.903 -0.7298  0.3184  0.3641
    3MOL   C296 1020   2.822   4.339   2.933 -0.4793  0.7352 -0.4964
    3MOL   C297 1021   2.760   4.375   3.066  0.3341 -0.2552  0.4623
    3MOL   H298 1022   2.504   3.899   3.137 -1.8012 -0.1383 -0.8306
    3MOL   H299 1023   2.508   4.060   3.122  2.0274 -1.8069  1.4279
    3MOL   H300 1024   2.474   4.002   2.857  0.1001 -0.3660 -0.1151
    3MOL   H301 1025   2.890   4.152   2.983  0.8721  1.2979 -0.2994
    3MOL   H302 1026   2.884   4.170   2.811 -0.0514 -0.3907  0.9483
    3MOL   H303 1027   2.924   4.378   2.929  0.2526 -1.1987 -1.3379
    3MOL   H304 1028   2.761   4.386   2.856 -1.0063  0.5367 -0.1960
    3MOL   H305 1029   2.653   4.352   3.070  0.1741  0.5123  0.6769
    3MOL   H306 1030   2.759   4.483   3.076  0.5634 -0.0472 -1.5847
    3MOL   H307 1031   2.812   4.328   3.149 -1.9895  0.8740  2.6326
    3MOL   C308 1032   2.512   3.799   2.897  0.5182  0.4078 -0.2055
    3MOL   C309 1033   2.530   3.754   2.751 -0.2209 -0.4065  0.7015
    3MOL   C310 1034   2.618   3.624   2.738  0.3423  0.8891  0.0481
    3MOL   O311 1035   2.616   3.537   2.825  0.5479 -0.1923  0.3857
    3MOL   O312 1036   2.668   3.605   2.611  0.0201  0.6935  0.2975
    3MOL   C313 1037   2.733   3.486   2.572 -0.5178 -0.1970 -0.3696
    3MOL   C314 1038   2.768   3.495   2.420  0.7959  0.5721  0.6702
    3MOL   C315 1039   2.643   3.479   2.325 -0.2070 -0.1232  0.0930
    3MOL   H316 1040   2.416   3.765   2.936  0.0192  0.2712 -1.5105
    3MOL   H317 1041   2.592   3.744   2.946 -0.3501  1.7800  2.8713
    3MOL   H318 1042   2.590   3.826   2.695  0.2775 -0.7675  0.7580
    3MOL   H319 1043   2.818   3.465   2.637 -1.9646 -0.1094  1.5826
    3MOL   H320 1044   2.669   3.399   2.583 -0.7880 -0.0496 -0.7770
    3MOL   H321 1045   2.819   3.589   2.399 -2.4172  1.7644 -2.1528
    3MOL   H322 1046   2.844   3.418   2.405  1.2677  1.1591 -0.0067
    3MOL   H323 1047   2.672   3.480   2.220 -1.8564  0.8467 -0.3787
    3MOL   H324 1048   2.603   3.379   2.340 -0.9448  0.1978  0.2990
    3MOL   H325 1049   2.574   3.557   2.357 -1.6442 -1.1795 -0.3189
    3MOL   C326 1050   2.396   3.734   2.681 -0.5861 -0.1149  0.2410
    3MOL   C327 1051   2.314   3.860   2.655  0.1861  0.5320  0.1734
    3MOL   C328 1052   2.383   3.967   2.565  0.1587 -0.0712 -0.1745
    3MOL   O329 1053   2.353   4.087   2.576  0.1759  0.2949 -0.2283
    3MOL   O330 1054   2.477   3.915   2.478  0.1886  0.0892 -0.0669
    3MOL   C331 1055   2.535   4.003   2.389 -0.0413 -0.3706  0.0310
    3MOL   C332 1056   2.647   3.932   2.308  0.1139  0.1534  0.4884
    3MOL   C333 1057   2.600   3.839   2.194  0.1655  0.1965  0.3063
    3MOL   H334 1058   2.349   3.661   2.747  1.7071 -0.8713  1.0945
    3MOL   H335 1059   2.421   3.685   2.586 -2.0277 -2.4633  1.0150
    3MOL   H336 1060   2.286   3.910   2.748 -0.4189  1.8579 -0.7144
    3MOL   H337 1061   2.465   4.034   2.311  0.3827 -1.2458 -0.6950
    3MOL   H338 1062   2.565   4.099   2.433 -0.5196  0.1443 -0.7454
    3MOL   H339 1063   2.711   4.011   2.268 -1.2211  1.5639  1.0810
    3MOL   H340 1064   2.704   3.869   2.377  0.5900 -0.0792 -0.1089
    3MOL   H341 1065   2.556   3.889   2.107  0.3414  0.4157  0.3429
    3MOL   H342 1066   2.673   3.768   2.156 -0.0039 -0.3762  1.0614
    3MOL   H343 1067   2.522   3.771   2.229 -0.1346 -0.6167 -1.8198
    3MOL   C344 1068   2.176   3.818   2.610  0.2409 -0.6930  0.0333
    3MOL   C345 1069   2.080   3.938   2.615  0.0306 -0.0618  0.5059
    3MOL   C346 1070   2.022   3.967   2.753 -0.5198  0.5191 -0.2436
    3MOL   O347 1071   2.043   3.894   2.852 -0.5993 -0.3197 -0.0865
    3MOL   O348 1072   1.938   4.073   2.757 -0.4534  0.6740 -0.7561
    3MOL   C349 1073   1.852   4.088   2.874  0.8090  0.1479 -0.1807
    3MOL   C350 1074   1.917   4.181   2.977 -0.5758  0.7138  0.3688
    3MOL   C351 1075   1.825   4.226   3.082 -0.5941 -0.4069  0.2957
    3MOL   H352 1076   2.137   3.732   2.664  0.8367 -0.0205  1.5537
    3MOL   H353 1077   2.187   3.782   2.508  0.5238  0.0818 -0.2105
    3MOL   H354 1078   1.999   3.907   2.549 -0.1937 -0.8430  1.1362
    3MOL   H355 1079   1.762   4.130   2.828  3.8654  3.2238 -3.7354
    3MOL   H356 1080   1.829   3.990   2.916  0.9705 -0.2025 -0.8961
    3MOL   H357 1081   2.006   4.125   3.005 -0.7733 -0.3148 -1.0277
    3MOL   H358 1082   1.940   4.273   2.924  1.5757  0.2489  0.4494
    3MOL   H359 1083   1.791   4.154   3.156  1.9897 -1.2591  0.6765
    3MOL   H360 1084   1.879   4.310   3.124 -0.2586 -0.6270  0.3013
    3MOL   H361 1085   1.730   4.270   3.050 -0.3811 -0.8268 -0.9539
    3MOL   H362 1086   2.124   4.028   2.572  1.3246  0.2589  2.4468
    4MOL     C1 1087   3.376   0.067   0.348 -0.3116  0.5818 -0.2342
    4MOL     C2 1088   3.239   0.129   0.381 -0.0867 -0.3723  0.3925
    4MOL     C3 1089   3.121   0.049   0.320  0.0203 -0.7309 -0.6867
    4MOL     O4 1090   3.068   0.088   0.221 -0.3595 -0.3346  0.2302
    4MOL     O5 1091   3.090   7.815   0.388  0.3312  0.0330  0.1457
    4MOL     C6 1092   2.973   7.747   0.349  0.7710  0.2135 -0.2016
    4MOL     C7 1093   2.925   7.645   0.460 -0.3445  0.6627  0.1134
    4MOL     C8 1094   3.017   7.523   0.447 -0.1164  0.2282  0.3853
    4MOL     H9 1095   3.384   7.852   0.400 -3.0189  0.8721  0.7772
    4MOL    H10 1096   3.390   0.062   0.240  1.0108 -0.0132 -0.0410
    4MOL    H11 1097   3.235   0.224   0.327  0.0778  0.4357  1.7615
    4MOL    H12 1098   2.886   7.811   0.334  0.4107 -0.3700 -0.6585
    4MOL    H13 1099   2.976   7.704   0.249 -3.5040 -1.1246  0.1529
    4MOL    H14 1100   2.943   7.696   0.555  0.8881  2.1530 -0.8960
    4MOL    H15 1101   2.820   7.616   0.460 -0.1895  0.0916  0.9776
    4MOL    H16 1102   3.000   7.451   0.527 -1.6012  0.4987  0.3286
    4MOL    H17 1103   3.006   7.474   0.350  0.2080 -1.6972  1.3214
    4MOL    H18 1104   3.119   7.560   0.451 -0.1418  0.3715 -0.2380
    4MOL    H19 1105   3.461   0.131   0.373 -0.6586  0.5954  0.9177
    4MOL    C20 1106   3.219   0.150   0.537 -0.3586 -0.3575 -0.5578
    4MOL    C21 1107   3.321   0.241   0.615  0.0395  0.3724 -0.2679
    4MOL    C22 1108   3.321   0.383   0.560 -0.4902 -0.2893 -0.0629
    4MOL    O23 1109   3.422   0.427   0.495  0.9400  0.1887  0.0770
    4MOL    O24 1110   3.210   0.455   0.590  0.2058 -0.1309  0.0399
    4MOL    C25 1111   3.203   0.597   0.559 -0.1751 -0.9520  0.7162
    4MOL    C26 1112   3.093   0.663   0.648  0.5761 -0.4643  0.0563
    4MOL    C27 1113   3.129   0.658   0.797 -0.9644  0.9393  0.4457
    4MOL    H28 1114   3.215   0.053   0.585 -0.3545 -1.6643 -3.1145
    4MOL    H29 1115   3.120   0.195   0.551 -0.5656 -1.3606  1.3575
    4MOL    H30 1116   3.420   0.199   0.595  0.2843  1.0714 -0.5422
    4MOL    H31 1117   3.300   0.645   0.570  0.2704 -1.6464 -0.1122
    4MOL    H32 1118   3.180   0.612   0.454  0.3727  1.7800  0.9619
    4MOL    H33 1119   3.068   0.765   0.617  1.5833  0.6887  2.8250
    4MOL    H34 1120   3.008   0.596   0.650  0.3550 -0.1589  1.1293
    4MOL    H35 1121   3.213   0.725   0.812  1.5435 -1.6056 -1.7451
    4MOL    H36 1122   3.145   0.559   0.839 -1.9320 -0.6616 -2.8082
    4MOL    H37 1123   3.050   0.700   0.860 -2.2452 -2.2435  1.0360
    4MOL    C38 1124   3.286   0.232   0.769 -0.4325 -0.3238 -0.0283
    4MOL    C39 1125   3.357   0.319   0.879 -0.0634 -0.0368 -0.1025
    4MOL    C40 1126   3.282   0.299   1.015  0.4236  0.4931 -0.2944
    4MOL    O41 1127   3.339   0.239   1.101 -0.1415  0.6021 -0.1934
    4MOL    O42 1128   3.162   0.365   1.026 -0.1387 -0.3800  0.1911
    4MOL    C43 1129   3.092   0.372   1.146 -0.0243 -0.4109  0.7181
    4MOL    C44 1130   2.946   0.411   1.127  0.2843  1.2959  0.6728
    4MOL    C45 1131   2.865   0.301   1.064 -0.4839  0.3184 -0.6500
    4MOL    H46 1132   3.297   0.125   0.786  0.0614 -0.5812 -1.9224
    4MOL    H47 1133   3.180   0.252   0.784 -0.1552  0.7503  0.5534
    4MOL    H48 1134   3.338   0.415   0.831  4.0415  1.7222  1.5512
    4MOL    H49 1135   3.102   0.280   1.204  1.8789  0.3096  1.5816
    4MOL    H50 1136   3.146   0.448   1.202  0.0795 -0.2326  0.3765
    4MOL    H51 1137   2.902   0.414   1.227 -1.2346  0.6884  0.0352
    4MOL    H52 1138   2.947   0.504   1.071  1.6339 -0.3254 -2.0419
    4MOL    H53 1139   2.759   0.325   1.063 -0.6444 -0.1839  1.6693
    4MOL    H54 1140   2.878   0.211   1.124 -2.6122  1.0129  0.9139
    4MOL    H55 1141   2.900   0.270   0.965  1.5952 -1.5608  0.6276
    4MOL    C56 1142   3.511   0.288   0.877 -0.0764  0.1018 -1.0058
    4MOL    C57 1143   3.592   0.402   0.945  0.6637 -0.1602  0.8382
    4MOL    C58 1144   3.724   0.345   1.006  0.6210 -0.4528 -0.3632
    4MOL    O59 1145   3.822   0.338   0.938 -0.0330  0.2588 -0.0290
    4MOL    O60 1146   3.710   0.302   1.129 -0.2701 -0.1253  0.4964
    4MOL    C61 1147   3.819   0.245   1.202  0.1609 -0.0024  0.2850
    4MOL    C62 1148   3.775   0.133   1.295  0.1758 -0.1057  0.0900
    4MOL    C63 1149   3.678   0.184   1.397  0.6227  0.5281 -1.0717
    4MOL    H64 1150   3.553   0.270   0.778 -0.4397 -0.5177 -1.0492
    4MOL    H65 1151   3.531   0.196   0.931 -0.5801 -0.2032 -1.3313
    4MOL    H66 1152   3.540   0.438   1.034 -0.4786 -0.1951  0.1873
    4MOL    H67 1153   3.889   0.220   1.122  0.1050 -2.4538  0.9963
    4MOL    H68 1154   3.871   0.321   1.261 -3.2293  3.2104 -0.6050
    4MOL    H69 1155   3.714   0.070   1.231  1.3906  0.5328 -1.7169
    4MOL    H70 1156   3.847   0.074   1.352 -0.7278 -0.6299  0.7070
    4MOL    H71 1157   3.730   0.262   1.451 -2.3820  3.4868 -2.2621
    4MOL    H72 1158   3.646   0.096   1.454  0.4210  0.5607 -1.1333
    4MOL    H73 1159   3.597   0.242   1.354 -1.8514 -0.8594  1.5291
    4MOL    C74 1160   3.613   0.518   0.847 -0.1544  0.6481 -0.0793
    4MOL    C75 1161   3.653   0.649   0.919 -0.2698  0.2829  0.3051
    4MOL    C76 1162   3.541   0.708   1.008  0.5361 -0.2836  0.5347
    4MOL    O77 1163   3.456   0.779   0.956  0.0935  0.2268 -0.0313
    4MOL    O78 1164   3.536   0.657   1.126 -0.1371  0.1267  0.1523
    4MOL    C79 1165   3.421   0.676   1.204 -0.0136 -0.4171 -0.1958
    4MOL    C80 1166   3.457   0.622   1.345  0.0276  0.0544  0.4859
    4MOL    C81 1167   3.454   0.475   1.358 -0.4554  0.8375  0.1577
    4MOL    H82 1168   3.513   0.536   0.807 -0.4567  0.3412  0.5310
    4MOL    H83 1169   3.679   0.484   0.767 -0.3663 -0.7415  0.3137
    4MOL    H84 1170   3.655   0.722   0.838 -2.0768 -0.3211 -0.2925
    4MOL    H85 1171   3.412   0.784   1.206 -0.3808 -0.4559  1.7064
    4MOL    H86 1172   3.327   0.640   1.162 -0.1343 -0.9937  0.5557
    4MOL    H87 1173   3.556   0.654   1.376 -0.0721  0.1540  0.7003
    4MOL    H88 1174   3.390   0.652   1.426 -0.7123 -1.4626  0.4593
    4MOL    H89 1175   3.536   0.438   1.296  1.8419 -1.0682  4.1457
    4MOL    H90 1176   3.361   0.443   1.310  1.4499 -0.1289 -3.0134
    4MOL    H91 1177   3.468   0.445   1.462  2.2130 -2.1905 -0.9862
    4MOL    C92 1178   3.796   0.654   0.967  0.7328  0.2085  0.2318
    4MOL    C93 1179   3.874   0.786   0.963 -0.3383 -0.0607  0.2544
    4MOL    C94 1180   3.829   0.879   1.074 -0.3819 -0.3861 -0.3984
    4MOL    O95 1181   3.747   0.847   1.159  0.2793 -0.4775 -0.0041
    4MOL    O96 1182   3.890   1.005   1.073  0.4039  0.1117  0.4605
    4MOL    C97 1183   3.842   1.114   1.147  0.3924 -0.6455 -0.7234
    4MOL    C98 1184   3.919   1.136   1.281 -0.9901  0.2148 -0.4933
    4MOL    C99 1185   4.068   1.145   1.258  0.6911  0.3397  0.9445
    4MOL   H100 1186   3.858   0.595   0.899 -0.0475  0.0481 -0.3537
    4MOL   H101 1187   3.801   0.602   1.062 -0.7291 -2.1443 -0.9150
    4MOL   H102 1188   3.853   0.846   0.875  1.6474  0.5793  0.1914
    4MOL   H103 1189   3.852   1.210   1.096 -2.4789 -0.1576 -0.4650
    4MOL   H104 1190   3.736   1.112   1.171  0.8708  0.8877  1.6406
    4MOL   H105 1191   3.885   1.233   1.317 -2.6046 -1.1629  1.8047
    4MOL   H106 1192   3.884   1.059   1.350 -3.0577  0.5061 -1.1848
    4MOL   H107 1193   4.097   1.231   1.198  0.4935 -0.4130 -0.2517
    4MOL   H108 1194   4.106   1.058   1.204  0.3422  0.4105  0.5718
    4MOL   H109 1195   4.128   1.151   1.348  0.0649  0.3218  1.3667
    4MOL   C110 1196   4.032   0.773   0.943 -0.3032  0.4039 -0.2802
    4MOL   C111 1197   4.102   0.709   1.070 -0.0395  0.1421 -0.1770
    4MOL   C112 1198   4.118   0.554   1.060 -0.3885  0.0701  0.2622
    4MOL   O113 1199   4.058   0.477   1.144  0.6771 -0.2304  0.2458
    4MOL   O114 1200   4.183   0.509   0.954  0.2617 -0.0703  0.0072
    4MOL   C115 1201   4.171   0.373   0.908  0.2990 -0.5710  0.2463
    4MOL   C116 1202   4.234   0.361   0.768  0.3025 -0.5178 -0.9811
    4MOL   C117 1203   4.158   0.440   0.658 -0.5760  0.1660  0.2686
    4MOL   H118 1204   4.076   0.872   0.930 -1.4962  0.6581 -2.6371
    4MOL   H119 1205   4.056   0.717   0.853 -2.7866  1.1555 -1.4503
    4MOL   H120 1206   4.049   0.733   1.162  4.4793 -0.7452  2.8185
    4MOL   H121 1207   4.212   0.313   0.989  2.4948  1.1106  0.4322
    4MOL   H122 1208   4.069   0.342   0.890  0.1485 -1.8161  3.0938
    4MOL   H123 1209   4.334   0.402   0.776 -0.0219 -0.0709  1.0704
    4MOL   H124 1210   4.258   0.257   0.744 -1.3066 -1.1737  0.2037
    4MOL   H125 1211   4.054   0.405   0.655 -0.0307 -1.4214 -0.5780
    4MOL   H126 1212   4.208   0.409   0.567 -2.3924 -1.4494 -0.2106
    4MOL   H127 1213   4.159   0.549   0.666  3.3367  0.4278 -2.5650
    4MOL   C128 1214   4.242   0.757   1.099 -0.2644  0.5792  0.4828
    4MOL   C129 1215   4.308   0.707   1.227 -0.1038 -0.3435 -0.0641
    4MOL   C130 1216   4.463   0.699   1.228  0.1625  0.5258  0.4259
    4MOL   O131 1217   4.530   0.767   1.301  0.0944  0.1436  0.0453
    4MOL   O132 1218   4.516   0.622   1.133  0.4456 -0.0467 -0.1769
    4MOL   C133 1219   4.666   0.614   1.133  0.2561  0.1543  0.3671
    4MOL   C134 1220   4.714   0.477   1.075 -0.4879 -0.7340  0.0958
    4MOL   C135 1221   4.676   0.447   0.925 -0.2252 -0.3070  0.0249
    4MOL   H136 1222   4.235   0.866   1.099 -1.3926  0.5284  1.5658
    4MOL   H137 1223   4.305   0.739   1.012 -0.2463  0.2882  0.5570
    4MOL   H138 1224   4.280   0.602   1.239  0.4319 -0.1838  2.8947
    4MOL   H139 1225   4.716   0.702   1.093 -0.1227  0.2398  0.0773
    4MOL   H140 1226   4.690   0.619   1.239 -1.2881  0.1823  0.7294
    4MOL   H141 1227   4.822   0.466   1.085 -0.3676  0.1111 -0.1785
    4MOL   H142 1228   4.669   0.396   1.131  1.8108 -1.0422  1.5748
    4MOL   H143 1229   4.718   0.519   0.855 -0.1243 -1.2025 -0.8644
    4MOL   H144 1230   4.568   0.446   0.912 -0.4511  2.2226  1.4823
    4MOL   H145 1231   4.718   0.348   0.902  0.7874  0.0335  0.3916
    4MOL   C146 1232   4.257   0.780   1.351  0.1331  0.3459  0.2649
    4MOL   C147 1233   4.248   0.694   1.481 -0.0797 -0.1084 -0.4311
    4MOL   C148 1234   4.161   0.770   1.580 -0.0736 -0.4847  0.0243
    4MOL   O149 1235   4.128   0.887   1.567 -0.0028  0.1369  0.8869
    4MOL   O150 1236   4.150   0.710   1.701  0.4183  0.8948  0.0337
    4MOL   C151 1237   4.089   0.767   1.808 -0.3962 -0.2157  0.5601
    4MOL   C152 1238   4.159   0.706   1.937  0.1647 -0.4615  0.1677
    4MOL   C153 1239   4.062   0.739   2.048 -0.2317 -0.1878  0.1832
    4MOL   H154 1240   4.156   0.809   1.323  1.2679  2.0701 -2.2040
    4MOL   H155 1241   4.303   0.876   1.371 -1.8071  1.2571  0.4814
    4MOL   H156 1242   4.346   0.701   1.526  0.7166 -1.6172 -1.8693
    4MOL   H157 1243   4.100   0.875   1.800  0.3724 -0.3153  0.2013
    4MOL   H158 1244   3.982   0.748   1.800 -0.0642 -1.6564 -0.7266
    4MOL   H159 1245   4.174   0.598   1.929 -0.4772 -0.5118 -0.4286
    4MOL   H160 1246   4.259   0.748   1.945  0.6352 -1.8729  2.2393
    4MOL   H161 1247   3.966   0.689   2.040  0.2636 -1.0335 -0.5812
    4MOL   H162 1248   4.051   0.847   2.061  0.1697 -0.0574 -0.4980
    4MOL   H163 1249   4.115   0.708   2.138 -2.1515 -0.3799  1.2825
    4MOL   C164 1250   4.196   0.543   1.470 -0.3023 -0.1832 -0.3198
    4MOL   C165 1251   4.314   0.444   1.450 -0.5294 -0.2211  0.1417
    4MOL   C166 1252   4.418   0.460   1.566 -0.3773 -0.1272 -0.7189
    4MOL   O167 1253   4.529   0.503   1.543 -0.0110 -0.3850  0.3164
    4MOL   O168 1254   4.365   0.438   1.685 -0.8145 -0.4082 -0.0344
    4MOL   C169 1255   4.449   0.441   1.797  0.4521  0.3669 -0.4596
    4MOL   C170 1256   4.392   0.336   1.892  0.2289  0.9188  0.3976
    4MOL   C171 1257   4.414   0.191   1.842 -0.2286  0.0306  0.0540
    4MOL   H172 1258   4.116   0.543   1.397 -1.4578  0.7812  0.9259
    4MOL   H173 1259   4.148   0.512   1.563 -0.1597  0.0084 -0.1807
    4MOL   H174 1260   4.365   0.469   1.357 -1.8169  0.9798 -0.2578
    4MOL   H175 1261   4.552   0.408   1.781  0.4041 -0.8867  1.6509
    4MOL   H176 1262   4.434   0.539   1.841 -0.8753  0.2903 -0.7235
    4MOL   H177 1263   4.407   0.345   2.000  3.3777 -0.2903  0.1130
    4MOL   H178 1264   4.285   0.355   1.893 -0.1661 -0.9369 -2.3491
    4MOL   H179 1265   4.402   0.173   1.735  0.3646 -0.9941  0.1494
    4MOL   H180 1266   4.337   0.133   1.894  1.3721 -0.6075  1.7843
    4MOL   H181 1267   4.513   0.149   1.857 -0.1673  0.0714 -0.2441
    4MOL   C182 1268   4.253   0.301   1.442  0.2726  0.4043 -0.0470
    4MOL   C183 1269   4.316   0.198   1.345 -0.1141  0.1336 -0.5832
    4MOL   C184 1270   4.465   0.175   1.372 -0.2996  1.3505 -0.0972
    4MOL   O185 1271   4.546   0.193   1.281 -0.0726  0.0735  0.1273
    4MOL   O186 1272   4.498   0.125   1.497  0.3814 -0.2602 -0.3630
    4MOL   C187 1273   4.625   0.106   1.535 -0.1210 -0.7025 -0.5166
    4MOL   C188 1274   4.695   0.232   1.582  0.6227  0.3909 -0.7116
    4MOL   C189 1275   4.828   0.193   1.651  0.3916 -0.2585 -0.0450
    4MOL   H190 1276   4.151   0.320   1.409 -0.1422 -0.8514  0.4661
    4MOL   H191 1277   4.237   0.259   1.542 -3.7480  0.7377 -0.4748
    4MOL   H192 1278   4.327   0.261   1.256  2.5714 -0.6611 -0.8753
    4MOL   H193 1279   4.614   0.032   1.615  0.2769 -0.1979  0.0107
    4MOL   H194 1280   4.684   0.052   1.460  0.4149  0.1581 -0.7221
    4MOL   H195 1281   4.713   0.296   1.496 -4.1266 -0.4273 -2.4802
    4MOL   H196 1282   4.621   0.286   1.640 -0.9187 -1.5567 -0.8138
    4MOL   H197 1283   4.899   0.149   1.581  0.2763 -3.4449  1.7755
    4MOL   H198 1284   4.816   0.114   1.725 -0.7705 -1.1552 -1.1541
    4MOL   H199 1285   4.881   0.273   1.703  1.4692 -1.0574  0.0985
    4MOL   C200 1286   4.242   0.066   1.316  0.0556 -0.0626  0.0044
    4MOL   C201 1287   4.304   7.851   1.209  0.9689  0.5624  0.0767
    4MOL   C202 1288   4.319   7.707   1.268 -0.0574  0.1463  0.5040
    4MOL   O203 1289   4.431   7.664   1.284 -0.3022  0.3089 -0.0856
    4MOL   O204 1290   4.204   7.657   1.292 -0.5200  0.2453 -0.0620
    4MOL   C205 1291   4.200   7.517   1.313 -0.5715 -0.2457 -0.0545
    4MOL   C206 1292   4.087   7.468   1.219  0.5188  0.1571 -0.3982
    4MOL   C207 1293   3.949   7.539   1.252  0.0051 -0.8235  0.5373
    4MOL   H208 1294   4.136   0.086   1.300  0.6093  0.2557 -3.7867
    4MOL   H209 1295   4.229   0.023   1.415  1.5067  1.1104  0.7352
    4MOL   H210 1296   4.400   0.018   1.186 -0.0435  0.8118 -4.0293
    4MOL   H211 1297   4.297   7.468   1.309  0.7293  2.3304 -1.2255
    4MOL   H212 1298   4.167   7.503   1.416  0.8505 -0.7810  0.3344
    4MOL   H213 1299   4.121   7.485   1.117 -0.6993 -2.6932 -1.3217
    4MOL   H214 1300   4.068   7.363   1.241 -0.5029  0.0939 -1.4761
    4MOL   H215 1301   3.878   7.493   1.183 -0.7022 -0.6273  1.1249
    4MOL   H216 1302   3.951   7.647   1.235  1.3430 -0.4951  2.5564
    4MOL   H217 1303   3.918   7.518   1.354 -0.4790  0.8812  0.7523
    4MOL   C218 1304   4.228   7.855   1.074  0.5059  0.6035  0.2125
    4MOL   C219 1305   4.292   7.771   0.962 -0.8318  0.1042 -0.0818
    4MOL   C220 1306   4.195   7.769   0.844 -0.5599  0.3206 -0.0798
    4MOL   O221 1307   4.134   7.671   0.817  0.5998  0.4612  0.1931
    4MOL   O222 1308   4.179   0.008   0.785 -0.2565 -0.6341 -0.3308
    4MOL   C223 1309   4.069   0.027   0.702  0.2249  0.0373 -0.8768
    4MOL   C224 1310   3.937   0.026   0.791 -0.2128 -0.4504  0.4913
    4MOL   C225 1311   3.814   0.080   0.720  0.0154 -0.3875 -0.4347
    4MOL   H226 1312   4.226   0.079   1.043 -0.4531  0.1476 -1.3320
    4MOL   H227 1313   4.127   7.826   1.104  0.9951 -2.0108 -0.5732
    4MOL   H228 1314   4.308   7.667   0.990 -1.6460  0.5228  2.0123
    4MOL   H229 1315   4.071   0.121   0.647 -0.3167  0.7499  0.2946
    4MOL   H230 1316   4.050   7.836   0.622 -0.6325 -0.3039 -0.3831
    4MOL   H231 1317   3.914   7.804   0.820  1.2274 -1.4784 -1.7735
    4MOL   H232 1318   3.938   0.085   0.882 -1.2750 -1.9576  1.5032
    4MOL   H233 1319   3.729   0.052   0.781  1.7800 -0.7179  1.9240
    4MOL   H234 1320   3.792   0.028   0.627  1.5604  1.6739 -2.0263
    4MOL   H235 1321   3.812   0.188   0.705  1.1086 -0.0909  1.4478
    4MOL   C236 1322   4.426   7.829   0.907 -0.6048 -0.0763 -0.6569
    4MOL   C237 1323   4.509   7.766   0.795 -0.4120  0.2517 -0.2983
    4MOL   C238 1324   4.471   7.812   0.655 -0.0894  0.5753  0.7994
    4MOL   O239 1325   4.419   7.734   0.569 -0.5325  0.4408 -0.0044
    4MOL   O240 1326   4.478   0.062   0.642 -0.4200 -0.3867  0.1232
    4MOL   C241 1327   4.457   0.123   0.516  0.2688 -0.1787 -0.3638
    4MOL   C242 1328   4.528   0.264   0.507  0.1969  0.2492  0.3442
    4MOL   C243 1329   4.675   0.244   0.528  0.3266  0.1225 -0.4140
    4MOL   H244 1330   4.490   7.847   0.993  0.6417  0.7110 -1.7232
    4MOL   H245 1331   4.413   0.055   0.886  1.8362  0.6427  1.2104
    4MOL   H246 1332   4.497   7.657   0.796  1.1517  0.0286 -1.7521
    4MOL   H247 1333   4.506   0.060   0.442  0.8256 -1.9719  1.4817
    4MOL   H248 1334   4.351   0.146   0.500  0.7707  1.5157 -1.4341
    4MOL   H249 1335   4.519   0.302   0.406  2.0676 -2.5540 -0.9737
    4MOL   H250 1336   4.482   0.334   0.576 -1.6279  0.3997 -1.0015
    4MOL   H251 1337   4.702   0.163   0.460  1.0856 -1.1161  1.3082
    4MOL   H252 1338   4.699   0.200   0.625 -1.9545  0.1651  0.2075
    4MOL   H253 1339   4.740   0.329   0.508 -0.9741  0.9594 -1.2159
    4MOL   C254 1340   4.658   7.801   0.810  0.1371  0.1092  0.1879
    4MOL   C255 1341   4.751   7.681   0.777 -0.3744  0.2121 -0.2030
    4MOL   C256 1342   4.793   7.680   0.630  0.2244  0.1820  0.2442
    4MOL   O257 1343   4.812   7.780   0.566 -0.1241 -0.1279  0.3968
    4MOL   O258 1344   4.827   7.554   0.592 -0.1641  0.0519 -0.0806
    4MOL   C259 1345   4.883   7.527   0.462  0.1796  0.5401 -0.1659
    4MOL   C260 1346   5.026   7.501   0.455  0.2584  0.1655  0.0663
    4MOL   C261 1347   5.087   7.465   0.313  0.4512  0.2341 -0.6357
    4MOL   H262 1348   4.678   7.826   0.914  0.4581 -0.2850  0.2192
    4MOL   H263 1349   4.685   0.004   0.744  1.1538  0.0547  0.5210
    4MOL   H264 1350   4.694   7.588   0.780  0.5270 -0.3361  0.1831
    4MOL   H265 1351   4.832   7.439   0.426  0.0779 -0.5739  2.5399
    4MOL   H266 1352   4.856   7.611   0.398 -0.9560 -2.0316 -3.1044
    4MOL   H267 1353   5.083   7.585   0.495  0.4978  0.2689 -0.4829
    4MOL   H268 1354   5.037   7.427   0.534 -0.4868  0.9956  0.9662
    4MOL   H269 1355   5.191   7.433   0.326  0.0763  0.0825  2.2966
    4MOL   H270 1356   5.099   7.559   0.259  3.1013  1.4669  1.9678
    4MOL   H271 1357   5.031   7.384   0.266 -1.0994  0.2415  1.1476
    4MOL   C272 1358   4.868   7.658   0.877  0.0909 -0.5298  0.3357
    4MOL   C273 1359   4.987   7.754   0.882 -0.3197  0.9730  0.1696
    4MOL   C274 1360   4.946   0.023   0.915 -0.0681 -0.2154 -1.1517
    4MOL   O275 1361   4.938   0.108   0.828 -0.0164 -0.7829 -0.1286
    4MOL   O276 1362   4.907   0.034   1.043 -0.6003 -0.6408 -0.0480
    4MOL   C277 1363   4.863   0.160   1.090 -0.3672 -0.6794  0.5190
    4MOL   C278 1364   4.903   0.206   1.238  0.5029  0.1636 -0.4121
    4MOL   C279 1365   5.050   0.217   1.270 -0.1797 -0.1655  0.1761
    4MOL   H280 1366   4.923   7.568   0.849 -1.2920 -0.7192 -1.9303
    4MOL   H281 1367   4.837   7.619   0.974  0.3061 -0.8465  0.2798
    4MOL   H282 1368   5.029   7.772   0.783  1.8367 -0.3972  0.7914
    4MOL   H283 1369   4.881   0.241   1.020  1.1064 -1.3384  0.1385
    4MOL   H284 1370   4.754   0.158   1.095 -0.3654 -1.4480  0.2416
    4MOL   H285 1371   4.868   0.308   1.254 -0.7712 -0.0706 -1.4985
    4MOL   H286 1372   4.846   0.144   1.307  1.0280  2.0425  1.7834
    4MOL   H287 1373   5.090   0.118   1.251 -0.3430  0.0974 -1.7047
    4MOL   H288 1374   5.075   0.245   1.372 -2.0838 -1.2441  0.9684
    4MOL   H289 1375   5.090   0.291   1.201 -0.2384 -0.6733 -0.4087
    4MOL   C290 1376   5.103   7.708   0.974 -0.4816 -0.2720 -0.2953
    4MOL   C291 1377   5.245   7.709   0.909 -0.1852 -0.1528 -0.5352
    4MOL   C292 1378   5.349   7.716   1.023 -0.1718  1.2213  0.5095
    4MOL   O293 1379   5.434   7.802   1.027 -0.1224 -0.1561  0.2886
    4MOL   O294 1380   5.329   7.636   1.129 -0.6695  0.1307  0.0946
    4MOL   C295 1381   5.410   7.658   1.247 -0.2083  0.9409 -0.0243
    4MOL   C296 1382   5.343   7.566   1.351 -0.8894 -0.1916 -0.0097
    4MOL   C297 1383   5.194   7.601   1.381 -0.3044  0.2728 -0.7926
    4MOL   H298 1384   5.077   7.611   1.014 -0.0168  0.0163  0.7264
    4MOL   H299 1385   5.106   7.772   1.063  1.7985 -0.1615 -0.4060
    4MOL   H300 1386   5.240   7.797   0.846 -0.2788 -0.6413 -1.2261
    4MOL   H301 1387   5.515   7.644   1.221 -0.2345 -2.1412  1.2524
    4MOL   H302 1388   5.400   7.765   1.263  1.7634  1.1801 -0.2461
    4MOL   H303 1389   5.343   7.462   1.318 -1.8142 -0.2654  0.2295
    4MOL   H304 1390   5.408   7.574   1.438  0.1147  0.2510 -0.7828
    4MOL   H305 1391   5.131   7.555   1.305 -0.1103 -1.0766 -0.1441
    4MOL   H306 1392   5.181   7.707   1.402  3.3020  0.7802 -0.8151
    4MOL   H307 1393   5.155   7.554   1.471 -0.4133  0.1019 -0.9306
    4MOL   C308 1394   5.265   7.577   0.828 -0.1573  0.4899 -0.4201
    4MOL   C309 1395   5.392   7.545   0.742 -0.4395  0.6041  0.3318
    4MOL   C310 1396   5.384   7.429   0.640  0.3389  0.0501  0.4077
    4MOL   O311 1397   5.279   7.383   0.594 -0.5231 -0.4571 -0.2885
    4MOL   O312 1398   5.507   7.384   0.617 -0.3846 -0.4699  0.2790
    4MOL   C313 1399   5.518   7.267   0.546  0.0490  0.0545 -0.1679
    4MOL   C314 1400   5.660   7.211   0.549  0.1568 -0.2680 -0.6557
    4MOL   C315 1401   5.765   7.316   0.516  0.5752 -0.1227  0.3697
    4MOL   H316 1402   5.171   7.573   0.773  0.2901 -1.6278 -1.0686
    4MOL   H317 1403   5.248   7.488   0.888 -1.5978 -1.1934 -3.2146
    4MOL   H318 1404   5.466   7.514   0.815  1.4204  1.5586 -1.0965
    4MOL   H319 1405   5.455   7.197   0.601  3.1000 -1.1541  1.9177
    4MOL   H320 1406   5.483   7.264   0.443  1.5627 -2.1347 -0.6547
    4MOL   H321 1407   5.674   7.174   0.651  0.5983 -2.9214 -1.6168
    4MOL   H322 1408   5.678   7.121   0.491 -1.4499  1.2325 -3.5708
    4MOL   H323 1409   5.758   7.362   0.417 -4.6111  1.9874  1.5853
    4MOL   H324 1410   5.748   7.387   0.596  0.5180 -0.1348  0.3682
    4MOL   H325 1411   5.863   7.280   0.548 -0.4537 -1.9924  1.4980
    4MOL   C326 1412   5.470   7.663   0.674 -1.0787 -0.2377 -0.0988
    4MOL   C327 1413   5.421   7.715   0.539  0.6821 -0.0387 -0.2998
    4MOL   C328 1414   5.314   7.820   0.557 -0.0574  0.7720 -0.1037
    4MOL   O329 1415   5.335   0.032   0.634 -0.1734  0.9622 -0.1872
    4MOL   O330 1416   5.198   7.801   0.479  0.3432  0.0456 -0.1506
    4MOL   C331 1417   5.099   0.030   0.474 -0.6155  0.5811  0.1408
    4MOL   C332 1418   5.122   0.125   0.357  0.3150 -1.0708  0.3526
    4MOL   C333 1419   5.001   0.223   0.326 -0.5044  0.1808  0.8473
    4MOL   H334 1420   5.574   7.632   0.657 -0.9103  0.3731 -0.1809
    4MOL   H335 1421   5.482   7.737   0.754 -1.6067 -1.1509  0.8407
    4MOL   H336 1422   5.392   7.628   0.479  0.2866 -2.0126  2.6236
    4MOL   H337 1423   5.012   7.848   0.456  0.4082 -0.9849  0.5620
    4MOL   H338 1424   5.076   0.080   0.568 -0.1440 -0.0161  0.5720
    4MOL   H339 1425   5.217   0.179   0.360  0.1023 -0.6469 -0.4174
    4MOL   H340 1426   5.123   0.065   0.266  3.5601 -0.7198  0.0794
    4MOL   H341 1427   4.989   0.279   0.234  0.3480  1.6950  1.6423
    4MOL   H342 1428   4.909   0.164   0.336 -1.0775  0.7247 -1.1245
    4MOL   H343 1429   4.985   0.293   0.408  0.0608 -2.6581  3.5013
    4MOL   C344 1430   5.529   7.780   0.447 -0.6142  0.1344 -0.7677
    4MOL   C345 1431   5.501   7.820   0.303  0.1932 -0.3308  0.0382
    4MOL   C346 1432   5.490   7.695   0.220 -0.0598  0.7621  0.5711
    4MOL   O347 1433   5.530   7.590   0.258  0.3279  0.0230 -0.1802
    4MOL   O348 1434   5.446   7.713   0.089 -0.0398  0.3221 -0.5328
    4MOL   C349 1435   5.434   7.596   0.006 -0.4241 -0.2410 -0.4115
    4MOL   C350 1436   5.383   7.648   7.752 -0.2643  0.2013  0.0019
    4MOL   C351 1437   5.336   7.534   7.668 -0.0749  0.2078 -0.6884
    4MOL   H352 1438   5.607   7.705   0.452 -0.4489  0.3845  0.4778
    4MOL   H353 1439   5.569   7.865   0.503  1.9043 -1.2572 -0.4062
    4MOL   H354 1440   5.583   0.002   0.270 -1.0525  0.4433 -1.6692
    4MOL   H355 1441   5.530   7.547   7.870 -1.1437 -1.2940 -1.6062
    4MOL   H356 1442   5.375   7.522   0.061  1.0119 -0.5777  0.6948
    4MOL   H357 1443   5.307   7.725   7.767  0.3416  0.6489  0.7828
    4MOL   H358 1444   5.464   7.695   7.696 -0.3985 -1.5452 -1.7000
    4MOL   H359 1445   5.420   7.468   7.645 -0.0110 -0.4702  1.3650
    4MOL   H360 1446   5.247   7.498   7.720 -0.6469  1.6886 -0.6424
    4MOL   H361 1447   5.312   7.590   7.578  0.9222 -0.2200 -1.2283
    4MOL   H362 1448   5.407   7.871   0.281  1.8922  2.7579 -0.3051
    5MOL     C1 1449   2.564   5.511   2.179  0.1652  0.4608 -0.0486
    5MOL     C2 1450   2.614   5.365   2.163  0.6042  0.6426 -0.2403
    5MOL     C3 1451   2.519   5.275   2.239 -0.4230  0.0184  0.2963
    5MOL     O4 1452   2.535   5.251   2.358  0.0553 -0.0303  0.2510
    5MOL     O5 1453   2.417   5.231   2.166  0.3637 -0.2079 -0.5168
    5MOL     C6 1454   2.312   5.152   2.217  0.1871 -0.1614  0.0379
    5MOL     C7 1455   2.342   5.005   2.210 -0.5721 -0.0498  0.1545
    5MOL     C8 1456   2.360   4.970   2.060  0.2384  0.6263 -0.2846
    5MOL     H9 1457   2.546   5.549   2.279 -0.8124  0.4948 -0.2315
    5MOL    H10 1458   2.641   5.570   2.130  0.6453 -1.2732 -1.4364
    5MOL    H11 1459   2.703   5.348   2.222  0.3332 -1.5141 -0.3859
    5MOL    H12 1460   2.264   5.170   2.313 -0.0239 -0.6784  0.0376
    5MOL    H13 1461   2.231   5.165   2.144 -0.2810 -0.0489  0.5772
    5MOL    H14 1462   2.434   4.981   2.264  0.9444 -0.4423 -2.5384
    5MOL    H15 1463   2.262   4.941   2.249 -0.6886  0.0048  0.0035
    5MOL    H16 1464   2.354   4.864   2.038 -1.1046  1.0790 -2.2935
    5MOL    H17 1465   2.286   5.023   1.999 -1.6496 -2.2410 -0.5604
    5MOL    H18 1466   2.454   5.015   2.029  0.5387  0.4358  0.3500
    5MOL    H19 1467   2.476   5.529   2.117  0.5541  0.0076 -0.7447
    5MOL    C20 1468   2.649   5.320   2.020 -0.3307  0.9206 -0.2712
    5MOL    C21 1469   2.720   5.184   2.007 -0.7208  0.6968  0.0884
    5MOL    C22 1470   2.725   5.137   1.862 -0.0677  0.8899 -0.7269
    5MOL    O23 1471   2.698   5.019   1.834  0.0828  0.1948  0.1900
    5MOL    O24 1472   2.770   5.220   1.773 -0.4658 -0.1724 -0.1702
    5MOL    C25 1473   2.826   5.161   1.655 -0.0235  0.1807 -0.6949
    5MOL    C26 1474   2.913   5.252   1.574 -0.1506  0.5792  0.8133
    5MOL    C27 1475   3.018   5.337   1.649 -0.5765 -0.4164  0.3460
    5MOL    H28 1476   2.712   5.398   1.978  1.9723 -1.5732 -1.6464
    5MOL    H29 1477   2.558   5.311   1.960  0.8980 -1.9379 -1.8239
    5MOL    H30 1478   2.659   5.110   2.060  0.4683 -1.0603 -0.9399
    5MOL    H31 1479   2.884   5.071   1.678  0.5950  0.5252 -0.9075
    5MOL    H32 1480   2.739   5.133   1.595 -0.3069 -0.5777  0.0488
    5MOL    H33 1481   2.972   5.187   1.510  1.8671  3.9843 -0.8908
    5MOL    H34 1482   2.843   5.319   1.523  0.7325  0.1666 -0.9543
    5MOL    H35 1483   2.979   5.389   1.736  0.3142 -0.3347  0.7029
    5MOL    H36 1484   3.039   5.423   1.584  2.0136 -1.7797 -0.7348
    5MOL    H37 1485   3.108   5.281   1.675  0.0786 -0.2478 -1.4255
    5MOL    C38 1486   2.867   5.190   2.067  0.2849 -0.1684 -0.5775
    5MOL    C39 1487   2.883   5.146   2.219  0.1957  0.2040 -0.2068
    5MOL    C40 1488   2.850   4.996   2.238 -0.2898 -0.6063  0.0897
    5MOL    O41 1489   2.758   4.964   2.316  0.2413 -0.0410  0.1471
    5MOL    O42 1490   2.923   4.908   2.157  0.5491 -0.0676  0.0806
    5MOL    C43 1491   2.901   4.774   2.149 -0.1260  0.3056 -0.3468
    5MOL    C44 1492   2.795   4.739   2.046  0.6060 -0.0529  0.2797
    5MOL    C45 1493   2.663   4.780   2.088  0.7578  0.2512  0.8147
    5MOL    H46 1494   2.907   5.291   2.063  2.0752 -0.8860 -1.4374
    5MOL    H47 1495   2.948   5.148   2.007  1.1192 -0.8816  1.0120
    5MOL    H48 1496   2.815   5.200   2.285  0.4522  1.0019 -0.5844
    5MOL    H49 1497   2.995   4.728   2.120 -0.0712  0.5855 -0.6148
    5MOL    H50 1498   2.878   4.721   2.242  3.2557 -1.0438 -0.2366
    5MOL    H51 1499   2.826   4.804   1.964 -0.7667  1.3985  0.8876
    5MOL    H52 1500   2.793   4.634   2.018 -3.6696  0.5713 -2.1635
    5MOL    H53 1501   2.626   4.745   2.185  2.4525  0.4795  1.5632
    5MOL    H54 1502   2.594   4.737   2.016 -0.3835  0.5880  1.6912
    5MOL    H55 1503   2.644   4.887   2.076  2.1145  0.4358  0.2903
    5MOL    C56 1504   3.027   5.180   2.274  0.0463  0.6311 -1.0839
    5MOL    C57 1505   3.062   5.330   2.293 -0.0599 -0.6392  0.5540
    5MOL    C58 1506   2.960   5.418   2.362  0.0907 -0.5808  0.0108
    5MOL    O59 1507   2.903   5.510   2.305 -0.2481  0.2606  0.5029
    5MOL    O60 1508   2.937   5.386   2.482  0.1094 -0.1556  0.1280
    5MOL    C61 1509   2.849   5.454   2.566 -0.0356 -0.5312 -0.1972
    5MOL    C62 1510   2.804   5.356   2.675 -0.3284 -0.0437 -0.1151
    5MOL    C63 1511   2.657   5.367   2.719  0.1666 -0.6152  0.0090
    5MOL    H64 1512   3.096   5.140   2.200 -0.5987  1.1976 -2.0124
    5MOL    H65 1513   3.048   5.129   2.368 -0.0143  1.4532 -0.6247
    5MOL    H66 1514   3.078   5.373   2.194  2.1049  0.4943  1.3697
    5MOL    H67 1515   2.903   5.540   2.605 -2.3587  1.4714 -1.3287
    5MOL    H68 1516   2.767   5.500   2.511 -0.7061 -1.2003  0.2197
    5MOL    H69 1517   2.828   5.255   2.642  0.6064  0.1802 -0.1448
    5MOL    H70 1518   2.870   5.364   2.762  0.9519  0.0742 -1.0768
    5MOL    H71 1519   2.646   5.302   2.806 -0.4959 -0.1990  0.2358
    5MOL    H72 1520   2.586   5.343   2.640  0.0127  0.7639 -0.2764
    5MOL    H73 1521   2.637   5.468   2.755  1.1221 -0.7140  0.8503
    5MOL    C74 1522   3.194   5.348   2.365  0.3198 -0.1158  0.7063
    5MOL    C75 1523   3.208   5.293   2.506  0.4031  0.3035  0.0303
    5MOL    C76 1524   3.338   5.200   2.512  0.1886  0.3642 -0.1144
    5MOL    O77 1525   3.330   5.080   2.535  0.1607  0.0138  0.6236
    5MOL    O78 1526   3.452   5.263   2.484 -0.1639  0.3264 -0.0916
    5MOL    C79 1527   3.581   5.211   2.517 -0.5111 -0.1827 -0.0974
    5MOL    C80 1528   3.672   5.244   2.393  0.1860 -0.6678  0.5810
    5MOL    C81 1529   3.645   5.165   2.261  0.7382  0.5206 -0.3066
    5MOL    H82 1530   3.207   5.456   2.365 -0.3443 -0.0340  1.3290
    5MOL    H83 1531   3.276   5.311   2.303 -0.9684  0.1769 -1.2405
    5MOL    H84 1532   3.117   5.241   2.537 -0.2125  1.4668  0.2196
    5MOL    H85 1533   3.610   5.277   2.599  1.5559 -1.7727  0.5200
    5MOL    H86 1534   3.593   5.111   2.559  0.9538 -0.2961 -0.7414
    5MOL    H87 1535   3.669   5.352   2.385  2.4463 -0.7556 -2.2665
    5MOL    H88 1536   3.771   5.218   2.431  0.4826  0.5106  0.6415
    5MOL    H89 1537   3.652   5.059   2.287  1.1278  0.5654 -0.2331
    5MOL    H90 1538   3.723   5.166   2.186  2.1859 -5.7285  0.7773
    5MOL    H91 1539   3.552   5.182   2.207  1.1578 -0.3660 -1.3236
    5MOL    C92 1540   3.230   5.412   2.604  0.4243  0.1175  0.7738
    5MOL    C93 1541   3.242   5.373   2.752 -0.7790  1.0328 -0.5821
    5MOL    C94 1542   3.320   5.483   2.823  0.3833 -0.5883 -0.0773
    5MOL    O95 1543   3.434   5.468   2.861 -0.3436  0.5147  0.2946
    5MOL    O96 1544   3.260   5.605   2.834  0.1841  0.3623  0.3142
    5MOL    C97 1545   3.321   5.713   2.901  0.6531 -0.3660 -0.8259
    5MOL    C98 1546   3.329   5.832   2.813 -0.4456  0.5861 -0.3220
    5MOL    C99 1547   3.190   5.885   2.768 -0.4775 -0.0007 -0.5534
    5MOL   H100 1548   3.146   5.480   2.586  1.4752  0.9703 -0.9855
    5MOL   H101 1549   3.315   5.473   2.576 -0.1313 -0.3170 -2.0061
    5MOL   H102 1550   3.306   5.286   2.762 -0.8025  1.3009  2.1054
    5MOL   H103 1551   3.265   5.727   2.993 -0.2253  2.5805 -1.7485
    5MOL   H104 1552   3.421   5.684   2.934 -0.0422 -0.8420  0.9052
    5MOL   H105 1553   3.386   5.906   2.871  0.3208 -0.6019  0.4584
    5MOL   H106 1554   3.397   5.812   2.730  1.2918 -0.1545  1.2231
    5MOL   H107 1555   3.196   5.982   2.720 -0.6453  1.1460  1.6659
    5MOL   H108 1556   3.126   5.894   2.856 -2.5157  1.0063 -2.1237
    5MOL   H109 1557   3.135   5.820   2.700  1.3087 -1.2053 -0.9044
    5MOL   C110 1558   3.115   5.331   2.825 -0.0139 -0.0220  0.6619
    5MOL   C111 1559   3.127   5.279   2.966  0.3496  0.3935 -0.0086
    5MOL   C112 1560   3.007   5.305   3.054  0.2218  0.3860 -0.4568
    5MOL   O113 1561   3.014   5.360   3.162 -0.2863 -0.2236  0.1447
    5MOL   O114 1562   2.891   5.263   2.995  0.5704  0.3356 -0.9758
    5MOL   C115 1563   2.769   5.268   3.070 -0.2704  0.5625 -0.6028
    5MOL   C116 1564   2.720   5.124   3.113  0.2189  0.1984  0.3938
    5MOL   C117 1565   2.679   5.030   3.000  0.0520  0.4128 -0.2297
    5MOL   H118 1566   3.078   5.249   2.763 -1.5474  0.5286  0.8217
    5MOL   H119 1567   3.047   5.416   2.821  0.3116  0.2162  0.1459
    5MOL   H120 1568   3.202   5.345   3.010  0.0615  2.1846 -2.1309
    5MOL   H121 1569   2.773   5.314   3.169  1.0809  0.6800 -0.6968
    5MOL   H122 1570   2.699   5.318   3.004  0.5405  0.3937 -1.6056
    5MOL   H123 1571   2.783   5.083   3.191 -1.1018 -0.9991  0.8554
    5MOL   H124 1572   2.626   5.143   3.165 -0.7673 -1.0792 -0.8473
    5MOL   H125 1573   2.601   5.076   2.939 -0.8773  0.8891  1.2966
    5MOL   H126 1574   2.644   4.935   3.039 -0.6835  1.2725  1.2777
    5MOL   H127 1575   2.766   5.002   2.940  1.0398  1.6289  0.6071
    5MOL   C128 1576   3.183   5.134   2.977 -0.3352  0.1182  0.7723
    5MOL   C129 1577   3.245   5.105   3.114 -1.0307  0.2499  0.2515
    5MOL   C130 1578   3.285   4.957   3.136  1.0371 -0.2307 -0.7879
    5MOL   O131 1579   3.397   4.914   3.123  0.3214 -0.1522 -0.0084
    5MOL   O132 1580   3.181   4.881   3.171 -0.2606 -0.2902  0.0934
    5MOL   C133 1581   3.191   4.740   3.169 -0.2243 -0.7826  0.3306
    5MOL   C134 1582   3.058   4.670   3.149  0.0957 -0.2255 -0.3739
    5MOL   C135 1583   2.980   4.706   3.020 -0.4863  0.0257  0.0409
    5MOL   H136 1584   3.259   5.112   2.902 -0.0893  2.6158  0.2336
    5MOL   H137 1585   3.101   5.065   2.957 -1.0092  0.2671  2.9013
    5MOL   H138 1586   3.160   5.131   3.177  0.3830 -0.2478  2.4309
    5MOL   H139 1587   3.262   4.703   3.096 -1.1023 -1.0959 -0.3773
    5MOL   H140 1588   3.231   4.704   3.264  1.7991  2.1158  0.6594
    5MOL   H141 1589   3.071   4.562   3.142  0.0477 -0.0885 -3.9258
    5MOL   H142 1590   2.991   4.696   3.231 -0.1046  3.0704 -1.5033
    5MOL   H143 1591   2.882   4.661   3.006 -2.1690  3.1397  1.2794
    5MOL   H144 1592   3.033   4.674   2.930 -1.5858 -0.4293 -0.4556
    5MOL   H145 1593   2.964   4.813   3.014 -0.5618 -0.0350 -0.9113
    5MOL   C146 1594   3.367   5.192   3.138 -0.0729  0.3298  1.0546
    5MOL   C147 1595   3.346   5.297   3.254  0.1030  0.0569 -0.4410
    5MOL   C148 1596   3.289   5.233   3.384 -0.4856 -0.3418  0.3101
    5MOL   O149 1597   3.174   5.255   3.415 -0.4834 -0.1965 -0.2189
    5MOL   O150 1598   3.380   5.151   3.442 -0.8706 -0.3915 -0.4655
    5MOL   C151 1599   3.350   5.095   3.570 -0.1054 -0.2494  0.2665
    5MOL   C152 1600   3.445   4.971   3.586 -0.3293  0.8244 -0.2443
    5MOL   C153 1601   3.409   4.864   3.489 -0.6456  0.1627  0.0580
    5MOL   H154 1602   3.388   5.246   3.046 -1.1113 -1.7965 -0.4840
    5MOL   H155 1603   3.461   5.138   3.143  1.1771  2.2352 -1.1739
    5MOL   H156 1604   3.263   5.361   3.223 -0.1561  0.1075  0.3462
    5MOL   H157 1605   3.372   5.178   3.637 -1.0102 -1.2372  1.8221
    5MOL   H158 1606   3.244   5.075   3.583  0.1268 -0.7704  1.4598
    5MOL   H159 1607   3.549   5.002   3.589 -0.1322  0.1389 -0.0018
    5MOL   H160 1608   3.442   4.929   3.686  1.6389 -0.6114 -0.7507
    5MOL   H161 1609   3.465   4.772   3.505 -0.3620 -0.1163 -2.4690
    5MOL   H162 1610   3.430   4.893   3.387  1.3791  0.9625  0.6928
    5MOL   H163 1611   3.315   4.811   3.509 -0.5600 -0.0408 -0.0811
    5MOL   C164 1612   3.475   5.383   3.276  0.1798  0.4758 -0.0694
    5MOL   C165 1613   3.455   5.523   3.347 -0.0347  0.4280  0.1202
    5MOL   C166 1614   3.535   5.528   3.477 -0.5785  0.2454 -0.3489
    5MOL   O167 1615   3.478   5.543   3.590 -0.3286 -0.1708  0.5473
    5MOL   O168 1616   3.672   5.519   3.453 -0.6957 -0.3274  0.2840
    5MOL   C169 1617   3.774   5.520   3.563  0.3729  0.5652  0.6195
    5MOL   C170 1618   3.798   5.379   3.611 -0.0643  0.9875  0.2004
    5MOL   C171 1619   3.865   5.283   3.523  0.7388 -0.1757 -0.1608
    5MOL   H172 1620   3.524   5.393   3.179  1.4073  0.0361  0.4972
    5MOL   H173 1621   3.548   5.328   3.335 -0.6983 -1.5962 -0.8408
    5MOL   H174 1622   3.349   5.530   3.368  0.5563  1.0189  3.1123
    5MOL   H175 1623   3.870   5.562   3.532 -1.0309  2.7041 -0.8958
    5MOL   H176 1624   3.726   5.576   3.643 -3.4799  0.6033 -1.6467
    5MOL   H177 1625   3.857   5.383   3.702 -0.0154 -0.3898  0.2359
    5MOL   H178 1626   3.699   5.344   3.640  0.8376  0.3607  2.6403
    5MOL   H179 1627   3.795   5.254   3.445 -2.3280  3.0198  1.2249
    5MOL   H180 1628   3.908   5.189   3.558  0.1430 -0.5445 -0.4055
    5MOL   H181 1629   3.945   5.331   3.468  0.4350  0.4304 -0.0809
    5MOL   C182 1630   3.502   5.633   3.250  0.7853  0.1060 -0.2815
    5MOL   C183 1631   3.485   5.782   3.298  0.2833  0.5097  0.3085
    5MOL   C184 1632   3.562   5.873   3.207 -0.1807  0.2534  0.7702
    5MOL   O185 1633   3.524   5.894   3.091  0.2178  0.1966  0.1864
    5MOL   O186 1634   3.674   5.936   3.258  0.1941 -0.0707 -0.4673
    5MOL   C187 1635   3.769   5.996   3.175 -0.2854 -0.1817  0.0705
    5MOL   C188 1636   3.843   6.093   3.266 -0.1762 -0.3409 -0.6471
    5MOL   C189 1637   3.931   6.020   3.367 -0.2092 -0.1018  0.4238
    5MOL   H190 1638   3.459   5.613   3.151  1.0998  2.5173 -0.9252
    5MOL   H191 1639   3.608   5.622   3.227  1.4418  0.1114  2.5372
    5MOL   H192 1640   3.520   5.796   3.400  0.1395  1.2394  0.2601
    5MOL   H193 1641   3.835   5.922   3.130 -0.2502  0.5323 -1.0902
    5MOL   H194 1642   3.723   6.051   3.093 -1.1448  0.4445  0.9584
    5MOL   H195 1643   3.913   6.159   3.214 -0.1608 -0.1697 -0.4086
    5MOL   H196 1644   3.771   6.152   3.323 -0.9579 -0.8788 -1.0691
    5MOL   H197 1645   4.008   5.957   3.323  1.3918  1.5324  0.8128
    5MOL   H198 1646   3.873   5.955   3.432  0.4662  0.3311  1.4858
    5MOL   H199 1647   3.963   6.094   3.440 -1.3400  0.8290 -0.0096
    5MOL   C200 1648   3.328   5.813   3.290 -0.4728 -0.7008 -0.8216
    5MOL   C201 1649   3.269   5.941   3.359 -0.0606 -0.5722 -0.0385
    5MOL   C202 1650   3.125   5.959   3.312 -0.1696  0.0521  0.5502
    5MOL   O203 1651   3.050   5.865   3.281 -0.5052 -0.2916  0.2782
    5MOL   O204 1652   3.088   6.087   3.316  0.8398 -0.1888 -0.3866
    5MOL   C205 1653   2.959   6.139   3.280  0.6733  0.2760  0.2402
    5MOL   C206 1654   2.957   6.166   3.124  0.0906  0.5221 -0.5891
    5MOL   C207 1655   2.814   6.207   3.082  0.2592 -0.0602 -0.4014
    5MOL   H208 1656   3.273   5.720   3.308  0.1844 -1.3022 -1.8498
    5MOL   H209 1657   3.306   5.820   3.183  0.5086 -0.4316 -1.0127
    5MOL   H210 1658   3.315   6.035   3.329  0.3535  0.3119  3.1530
    5MOL   H211 1659   2.884   6.063   3.301 -1.0223  1.5094 -1.1560
    5MOL   H212 1660   2.930   6.220   3.348 -1.1186 -3.4139  4.0877
    5MOL   H213 1661   3.017   6.254   3.101  1.9658 -0.7606 -0.7685
    5MOL   H214 1662   2.992   6.081   3.065  0.2751  0.3412 -0.2223
    5MOL   H215 1663   2.742   6.126   3.089 -0.0018  0.1043 -1.1429
    5MOL   H216 1664   2.826   6.241   2.979  0.6177 -0.6293 -0.5488
    5MOL   H217 1665   2.771   6.291   3.136 -0.8336  0.0706 -1.4621
    5MOL   C218 1666   3.269   5.935   3.515 -0.7819 -0.6573 -0.2432
    5MOL   C219 1667   3.393   5.984   3.589 -0.6162  0.5879 -0.7431
    5MOL   C220 1668   3.410   6.130   3.577  0.1322 -0.1810  1.0999
    5MOL   O221 1669   3.496   6.181   3.504  0.5397 -0.2904  0.1906
    5MOL   O222 1670   3.324   6.201   3.645  0.2397 -0.2831 -0.0174
    5MOL   C223 1671   3.326   6.347   3.644  0.1085  0.0591  0.3638
    5MOL   C224 1672   3.191   6.411   3.615  0.7280  0.7012  0.3432
    5MOL   C225 1673   3.148   6.370   3.479  0.1086 -0.1811  0.0416
    5MOL   H226 1674   3.267   5.831   3.548  0.9795 -0.1029  1.7096
    5MOL   H227 1675   3.180   5.985   3.553 -0.8143 -1.6741  1.0168
    5MOL   H228 1676   3.482   5.953   3.535  0.9974  1.5221  1.2796
    5MOL   H229 1677   3.361   6.382   3.741 -1.5550 -1.0486  1.3955
    5MOL   H230 1678   3.398   6.392   3.576  2.2448 -0.8797  1.9416
    5MOL   H231 1679   3.117   6.389   3.693  2.1299  3.1804  2.4570
    5MOL   H232 1680   3.203   6.519   3.625  0.6629  0.7575 -0.1949
    5MOL   H233 1681   3.140   6.261   3.470  1.3936 -0.3286  0.6150
    5MOL   H234 1682   3.224   6.403   3.408  0.5464  2.1492  1.5663
    5MOL   H235 1683   3.057   6.421   3.448  0.2239  0.6860  1.1383
    5MOL   C236 1684   3.404   5.946   3.740 -0.6611 -0.2844 -0.9380
    5MOL   C237 1685   3.544   5.955   3.801 -0.3381 -0.1841  0.3057
    5MOL   C238 1686   3.523   5.976   3.949 -0.1752 -0.7678 -0.1004
    5MOL   O239 1687   3.514   5.886   4.036 -0.4343 -0.4738  0.2261
    5MOL   O240 1688   3.512   6.109   3.970  0.6452 -0.4875  0.6888
    5MOL   C241 1689   3.479   6.165   4.093  0.4184  0.0352 -0.0165
    5MOL   C242 1690   3.431   6.306   4.074  0.3999 -0.5803  0.2036
    5MOL   C243 1691   3.286   6.317   4.021 -0.8704  0.0356 -0.0073
    5MOL   H244 1692   3.368   5.844   3.738  0.7446 -0.7873 -2.1109
    5MOL   H245 1693   3.322   5.985   3.800 -0.8498  0.2433 -1.5240
    5MOL   H246 1694   3.591   6.046   3.763 -1.1767 -0.5019 -1.5522
    5MOL   H247 1695   3.401   6.110   4.146  0.7011  0.3163  0.6907
    5MOL   H248 1696   3.568   6.156   4.155 -0.3012 -0.4174  0.9770
    5MOL   H249 1697   3.450   6.360   4.166  0.7536 -2.2965  1.1608
    5MOL   H250 1698   3.491   6.357   3.999  2.4522  0.7973  2.7089
    5MOL   H251 1699   3.206   6.297   4.092 -0.6769 -1.0641 -0.0972
    5MOL   H252 1700   3.276   6.259   3.929 -0.2263 -2.0912  1.2423
    5MOL   H253 1701   3.261   6.420   3.993 -0.8978 -0.4397 -1.7678
    5MOL   C254 1702   3.636   5.836   3.773 -0.6633  0.2744  0.1214
    5MOL   C255 1703   3.777   5.857   3.846 -0.4503  0.2372  0.7784
    5MOL   C256 1704   3.847   5.719   3.849 -0.9672 -0.1562 -0.4117
    5MOL   O257 1705   3.940   5.698   3.776 -0.2493 -0.2340 -0.0981
    5MOL   O258 1706   3.807   5.644   3.962  0.2203 -0.3941 -0.0882
    5MOL   C259 1707   3.878   5.533   4.004 -0.1913 -0.1769  0.0095
    5MOL   C260 1708   3.896   5.544   4.156  0.2496 -0.8937  0.0659
    5MOL   C261 1709   3.767   5.506   4.224  0.3881 -0.2263 -0.2139
    5MOL   H262 1710   3.660   5.823   3.668  0.8127  1.0669  0.3549
    5MOL   H263 1711   3.595   5.737   3.795 -0.6218  0.2480  0.0804
    5MOL   H264 1712   3.754   5.892   3.947 -1.8849 -0.0760  0.5711
    5MOL   H265 1713   3.834   5.435   3.985  1.3221 -1.2961  2.0546
    5MOL   H266 1714   3.977   5.541   3.961 -0.4790 -0.1736 -0.6555
    5MOL   H267 1715   3.992   5.497   4.178  0.7838  0.3682  0.5378
    5MOL   H268 1716   3.903   5.645   4.198  2.8762 -1.0064 -0.0005
    5MOL   H269 1717   3.741   5.402   4.209 -0.5758 -0.3388  2.0812
    5MOL   H270 1718   3.691   5.577   4.190  0.7496 -0.1583 -0.8892
    5MOL   H271 1719   3.770   5.507   4.333 -2.1915  4.1331 -0.0767
    5MOL   C272 1720   3.858   5.965   3.774 -0.7953 -0.2611  0.1455
    5MOL   C273 1721   3.968   6.039   3.871 -0.1806  0.1113 -0.6422
    5MOL   C274 1722   4.116   5.998   3.849  0.0639  0.0282 -0.1009
    5MOL   O275 1723   4.159   6.000   3.737 -0.1107  0.4866 -0.5136
    5MOL   O276 1724   4.191   5.997   3.957  0.3338 -0.1863 -0.1020
    5MOL   C277 1725   4.324   5.960   3.939 -0.5321 -0.0727 -0.9805
    5MOL   C278 1726   4.412   6.052   4.022 -0.0517  0.2259  0.0131
    5MOL   C279 1727   4.412   6.019   4.167 -0.4292  0.4346 -0.3487
    5MOL   H280 1728   3.786   6.038   3.736  1.8572  1.1292 -2.4336
    5MOL   H281 1729   3.900   5.925   3.682  0.0950  2.7598 -0.8054
    5MOL   H282 1730   3.958   6.020   3.978 -1.9019 -1.2724 -1.0206
    5MOL   H283 1731   4.335   5.864   3.990 -0.5366 -0.0698 -0.9736
    5MOL   H284 1732   4.355   5.939   3.837  0.6568  0.7265 -0.7913
    5MOL   H285 1733   4.512   6.044   3.979 -0.0193 -0.5277  0.2231
    5MOL   H286 1734   4.373   6.153   4.007  1.6978  0.6349 -2.0694
    5MOL   H287 1735   4.322   6.056   4.217  0.1359 -0.2366  1.1670
    5MOL   H288 1736   4.497   6.058   4.223  0.2401  0.8881 -1.6597
    5MOL   H289 1737   4.410   5.911   4.177 -1.3611  0.3163 -1.6555
    5MOL   C290 1738   3.947   6.192   3.859 -0.4371  0.7966  0.4222
    5MOL   C291 1739   3.971   6.250   3.713  0.2684  0.1900 -0.3420
    5MOL   C292 1740   3.852   6.323   3.660  0.0630  0.0823 -0.5968
    5MOL   O293 1741   3.759   6.356   3.733 -0.7001  0.3691  0.4963
    5MOL   O294 1742   3.862   6.338   3.531  0.3556  0.1435  0.8137
    5MOL   C295 1743   3.755   6.409   3.462  0.0875  0.3274  0.0501
    5MOL   C296 1744   3.763   6.563   3.467  0.0187 -0.5985 -0.0378
    5MOL   C297 1745   3.866   6.633   3.384  0.9096 -0.8049  0.0135
    5MOL   H298 1746   4.019   6.246   3.922  0.5900  1.2744 -1.1169
    5MOL   H299 1747   3.853   6.225   3.904  0.2510 -0.1822  2.6443
    5MOL   H300 1748   3.980   6.162   3.648 -0.7559 -0.1753 -0.0015
    5MOL   H301 1749   3.736   6.369   3.363 -1.0367  1.7884 -0.3538
    5MOL   H302 1750   3.657   6.385   3.504  0.6478 -2.7719 -0.3130
    5MOL   H303 1751   3.667   6.606   3.440 -1.1579  0.4557  5.2048
    5MOL   H304 1752   3.772   6.607   3.567  0.7375 -2.9593  0.9699
    5MOL   H305 1753   3.870   6.624   3.275 -0.3865 -0.1033 -0.1017
    5MOL   H306 1754   3.959   6.615   3.437 -0.2017  2.4328  3.2911
    5MOL   H307 1755   3.850   6.740   3.397  0.4076 -0.6100 -1.9908
    5MOL   C308 1756   4.101   6.334   3.703 -0.3891 -0.3733  0.4635
    5MOL   C309 1757   4.107   6.460   3.801 -0.3830  0.0802 -0.0618
    5MOL   C310 1758   4.238   6.449   3.886  0.1671  0.1679  0.8175
    5MOL   O311 1759   4.238   6.440   4.003 -0.0737  0.0145 -0.1244
    5MOL   O312 1760   4.348   6.454   3.803  0.0655  0.4972  0.3449
    5MOL   C313 1761   4.474   6.429   3.856 -0.3970  0.2755 -0.1498
    5MOL   C314 1762   4.575   6.486   3.751  0.1935 -0.0429  0.6224
    5MOL   C315 1763   4.718   6.497   3.811 -0.4606  0.3250 -0.4864
    5MOL   H316 1764   4.121   6.371   3.603 -0.4545 -0.0900  0.5549
    5MOL   H317 1765   4.178   6.260   3.724 -0.0430  0.1137  0.9180
    5MOL   H318 1766   4.020   6.448   3.865 -1.1613  1.0014 -0.9498
    5MOL   H319 1767   4.490   6.477   3.953 -0.1611 -0.3684  0.1293
    5MOL   H320 1768   4.484   6.323   3.879 -0.2829  0.5744  1.2433
    5MOL   H321 1769   4.582   6.430   3.658  0.0677 -1.6976  1.5959
    5MOL   H322 1770   4.550   6.592   3.742 -2.6560 -0.7378  0.0480
    5MOL   H323 1771   4.755   6.395   3.823 -0.5474  0.1197 -1.9263
    5MOL   H324 1772   4.791   6.556   3.756  2.9691 -1.6866  1.7113
    5MOL   H325 1773   4.705   6.548   3.907 -1.1142 -0.5279 -0.1146
    5MOL   C326 1774   4.090   6.593   3.731  0.1590  0.5202  0.1321
    5MOL   C327 1775   4.075   6.725   3.813  0.0080  0.0674 -0.5193
    5MOL   C328 1776   4.062   6.843   3.728  0.6224 -0.5157 -0.0503
    5MOL   O329 1777   4.069   6.823   3.609  0.0141 -0.8226 -0.2631
    5MOL   O330 1778   4.046   6.956   3.790  0.3780  0.0637  0.4327
    5MOL   C331 1779   4.019   7.075   3.720  0.3175 -0.1987  0.5329
    5MOL   C332 1780   4.129   7.166   3.669 -0.5394 -0.3458 -0.1205
    5MOL   C333 1781   4.218   7.111   3.561 -0.0529 -0.4286 -0.1117
    5MOL   H334 1782   3.999   6.577   3.673  1.0428  0.6617 -1.3177
    5MOL   H335 1783   4.172   6.605   3.660  1.4784 -0.5966  1.4401
    5MOL   H336 1784   4.165   6.738   3.873 -1.3952 -1.7505  2.0866
    5MOL   H337 1785   3.969   7.037   3.630 -0.2771  2.7153 -0.3958
    5MOL   H338 1786   3.944   7.122   3.784 -1.5073  0.5234 -2.0539
    5MOL   H339 1787   4.082   7.258   3.633  1.8586  1.7310  1.8599
    5MOL   H340 1788   4.183   7.201   3.757  0.5821 -3.3657  0.4589
    5MOL   H341 1789   4.247   7.007   3.574  0.3252 -0.4670 -1.2198
    5MOL   H342 1790   4.177   7.107   3.460  0.2281  1.3900 -0.3175
    5MOL   H343 1791   4.309   7.171   3.556  0.1291 -0.7615 -0.9102
    5MOL   C344 1792   3.963   6.722   3.923 -0.0664  0.0374 -0.4207
    5MOL   C345 1793   3.820   6.734   3.875  0.7903 -0.1637 -0.0322
    5MOL   C346 1794   3.720   6.760   3.988  0.1641  0.3919 -1.3582
    5MOL   O347 1795   3.632   6.675   4.006 -0.1819  0.2417 -0.1132
    5MOL   O348 1796   3.732   6.876   4.057 -0.0424  0.8930 -0.7145
    5MOL   C349 1797   3.637   6.912   4.158 -0.0225 -0.2586  0.8686
    5MOL   C350 1798   3.531   7.000   4.103 -0.4344 -0.5213 -0.3688
    5MOL   C351 1799   3.400   7.007   4.177 -0.6095 -0.2116 -0.1470
    5MOL   H352 1800   3.983   6.800   3.995  1.1859 -0.6423 -0.0129
    5MOL   H353 1801   3.962   6.632   3.985 -1.7800 -1.0684 -1.9944
    5MOL   H354 1802   3.792   6.645   3.817 -3.0427  0.6715  0.3671
    5MOL   H355 1803   3.604   6.815   4.195  0.0297 -0.9260 -0.8349
    5MOL   H356 1804   3.685   6.958   4.245  1.5069  2.5401 -1.3583
    5MOL   H357 1805   3.576   7.099   4.106  0.8232 -1.0213 -2.0053
    5MOL   H358 1806   3.511   6.967   4.001 -3.1184 -0.5625  0.1511
    5MOL   H359 1807   3.411   7.037   4.281 -0.8830 -0.5913 -0.0073
    5MOL   H360 1808   3.328   7.079   4.139  0.3082  0.3127 -0.9221
    5MOL   H361 1809   3.351   6.910   4.180  1.2302 -1.1704 -0.5669
    5MOL   H362 1810   3.806   6.810   3.799 -0.4240 -0.8098 -0.4909
    6MOL     C1 1811   5.144   6.800   1.618 -0.9532 -0.4566 -0.4457
    6MOL     C2 1812   5.043   6.685   1.633  0.0669  0.5240 -0.3487
    6MOL     C3 1813   4.924   6.719   1.536 -0.2952 -0.7152  0.2954
    6MOL     O4 1814   4.891   6.632   1.455 -0.0429  0.0236  0.3751
    6MOL     O5 1815   4.860   6.840   1.557 -0.0097  0.0271  0.0339
    6MOL     C6 1816   4.744   6.882   1.476 -0.5956  0.0428 -0.4520
    6MOL     C7 1817   4.764   6.979   1.361 -0.1671  0.1228 -0.1254
    6MOL     C8 1818   4.868   6.917   1.270  0.0918 -0.1795  0.6577
    6MOL     H9 1819   5.234   6.796   1.678 -0.2842 -0.8611 -1.4568
    6MOL    H10 1820   5.168   6.828   1.515 -1.6283  0.0434 -0.4720
    6MOL    H11 1821   5.006   6.680   1.736 -0.0891  0.5778 -0.4023
    6MOL    H12 1822   4.678   6.807   1.432 -2.1607  0.9532  0.2716
    6MOL    H13 1823   4.677   6.923   1.552  0.3040  1.5939 -0.4863
    6MOL    H14 1824   4.673   6.999   1.304  1.1837 -0.2400 -2.5037
    6MOL    H15 1825   4.794   7.080   1.389  1.7214 -0.4680  0.0168
    6MOL    H16 1826   4.879   6.981   1.182 -0.1169  2.3948  2.4190
    6MOL    H17 1827   4.972   6.914   1.302 -0.1011 -0.2652  1.2851
    6MOL    H18 1828   4.833   6.817   1.245 -2.4920  1.0927 -1.0562
    6MOL    H19 1829   5.093   6.889   1.655 -0.4574 -1.8203  3.7597
    6MOL    C20 1830   5.113   6.554   1.585 -0.3134  0.2464 -0.0164
    6MOL    C21 1831   5.232   6.518   1.673 -0.7189  0.7527  0.5938
    6MOL    C22 1832   5.182   6.472   1.812 -0.3929 -0.4611 -0.1679
    6MOL    O23 1833   5.068   6.436   1.834 -0.1205  0.0256 -0.4219
    6MOL    O24 1834   5.279   6.460   1.899 -0.1143 -0.2181  0.2319
    6MOL    C25 1835   5.254   6.449   2.039 -0.1269 -0.3139  0.2532
    6MOL    C26 1836   5.259   6.305   2.093  0.2235  0.2473 -0.3650
    6MOL    C27 1837   5.402   6.249   2.058 -0.0142 -0.3768 -0.2309
    6MOL    H28 1838   5.148   6.573   1.483  0.3111  1.0072  0.3392
    6MOL    H29 1839   5.039   6.473   1.587 -0.0487 -0.0265 -0.8528
    6MOL    H30 1840   5.291   6.607   1.693 -0.7492  0.8427  0.2767
    6MOL    H31 1841   5.334   6.501   2.091 -0.2744  0.9078 -0.7367
    6MOL    H32 1842   5.170   6.513   2.067 -0.1533  0.0818 -0.7050
    6MOL    H33 1843   5.251   6.328   2.200 -0.4864 -0.2326 -0.3083
    6MOL    H34 1844   5.178   6.242   2.056 -0.8659  1.1233  0.4713
    6MOL    H35 1845   5.479   6.312   2.101 -1.9431  1.1379  1.0985
    6MOL    H36 1846   5.409   6.232   1.951  1.8352  0.6329 -0.2825
    6MOL    H37 1847   5.415   6.149   2.099 -3.5099 -1.1387 -0.8497
    6MOL    C38 1848   5.321   6.407   1.608 -0.5662 -0.4879 -0.3306
    6MOL    C39 1849   5.475   6.420   1.606 -1.1945  0.8674  0.0083
    6MOL    C40 1850   5.542   6.289   1.632  0.3587  0.4739 -0.8572
    6MOL    O41 1851   5.623   6.280   1.724  0.4247 -0.7055  0.2830
    6MOL    O42 1852   5.490   6.186   1.552  0.0230 -0.2710 -0.5225
    6MOL    C43 1853   5.535   6.055   1.583  0.0158  0.3007 -0.2925
    6MOL    C44 1854   5.431   5.959   1.523  0.6704  0.6175 -0.0127
    6MOL    C45 1855   5.427   5.957   1.372 -0.4032  0.0182  0.1562
    6MOL    H46 1856   5.294   6.401   1.503 -1.7102 -1.1594 -0.0112
    6MOL    H47 1857   5.298   6.308   1.649  1.8050 -1.3948 -1.0966
    6MOL    H48 1858   5.500   6.477   1.696 -1.1611  0.8780 -0.0075
    6MOL    H49 1859   5.630   6.034   1.534 -0.4903 -2.8712 -0.0067
    6MOL    H50 1860   5.531   6.037   1.690 -1.1169  3.4322  0.2639
    6MOL    H51 1861   5.437   5.856   1.555  3.1383  0.5349 -0.6259
    6MOL    H52 1862   5.338   6.004   1.558 -0.7130 -1.7315 -0.6035
    6MOL    H53 1863   5.449   6.053   1.327  1.7218 -0.4357  0.1544
    6MOL    H54 1864   5.327   5.939   1.333 -0.2199  2.2226 -1.4193
    6MOL    H55 1865   5.485   5.873   1.333 -0.0730  1.3042 -2.2072
    6MOL    C56 1866   5.546   6.488   1.496  1.1957  0.0868  0.1973
    6MOL    C57 1867   5.499   6.636   1.482  0.3697  0.0206  0.1634
    6MOL    C58 1868   5.562   6.738   1.577  0.4318  0.2668  0.1453
    6MOL    O59 1869   5.491   6.807   1.649 -0.6637  1.4656  0.0861
    6MOL    O60 1870   5.698   6.740   1.575  0.2234  0.8232  0.2791
    6MOL    C61 1871   5.776   6.791   1.685 -0.4588 -0.3753 -0.2303
    6MOL    C62 1872   5.808   6.672   1.778 -0.1134 -0.1460  0.3836
    6MOL    C63 1873   5.903   6.703   1.896  0.2326  0.7326  0.0281
    6MOL    H64 1874   5.510   6.443   1.403 -0.3677  0.4319  0.6098
    6MOL    H65 1875   5.655   6.486   1.497  1.2204 -1.0365 -1.9511
    6MOL    H66 1876   5.390   6.636   1.484  0.3259  0.9744 -1.8514
    6MOL    H67 1877   5.872   6.830   1.651 -0.1772 -1.5852 -0.8264
    6MOL    H68 1878   5.721   6.869   1.738  1.1338  0.5360  0.1258
    6MOL    H69 1879   5.712   6.640   1.819 -0.9270  2.1036  0.3155
    6MOL    H70 1880   5.837   6.592   1.709 -0.3647  0.4611 -0.4426
    6MOL    H71 1881   5.858   6.772   1.968 -0.2525 -2.0477  2.5045
    6MOL    H72 1882   6.000   6.741   1.865  1.3456 -2.1787 -0.2551
    6MOL    H73 1883   5.947   6.626   1.961 -0.6840 -0.9674 -1.3281
    6MOL    C74 1884   5.514   6.691   1.337  0.5132 -0.2622  0.0127
    6MOL    C75 1885   5.407   6.799   1.293  0.0457  0.3185 -0.0664
    6MOL    C76 1886   5.418   6.945   1.341  0.2369  0.3987 -0.2121
    6MOL    O77 1887   5.527   7.005   1.356 -0.0155  0.2104 -0.3839
    6MOL    O78 1888   5.303   7.010   1.355 -0.3353 -0.9309 -0.2843
    6MOL    C79 1889   5.304   7.146   1.410  0.0723 -1.0968 -0.2382
    6MOL    C80 1890   5.158   7.177   1.450 -0.9044  0.4802 -0.6061
    6MOL    C81 1891   5.061   7.212   1.340  0.9428  0.9876  0.0131
    6MOL    H82 1892   5.491   6.609   1.269 -1.0060  1.5155 -1.6545
    6MOL    H83 1893   5.616   6.724   1.315  0.3490  2.1765  2.6768
    6MOL    H84 1894   5.316   6.770   1.345  0.2638 -1.8817 -0.8181
    6MOL    H85 1895   5.366   7.138   1.499  0.1071  1.5905  0.0139
    6MOL    H86 1896   5.345   7.224   1.347 -0.2439 -0.5956  0.1690
    6MOL    H87 1897   5.132   7.085   1.502  2.5213  0.2916  0.9109
    6MOL    H88 1898   5.166   7.259   1.521  1.1127  0.0742 -0.3196
    6MOL    H89 1899   4.960   7.233   1.374  0.8741  0.0060  0.4490
    6MOL    H90 1900   5.054   7.126   1.273  2.2259  0.3428  0.6746
    6MOL    H91 1901   5.110   7.298   1.294  0.2403  1.6621  0.5261
    6MOL    C92 1902   5.371   6.797   1.143 -0.2302  0.2949  0.2277
    6MOL    C93 1903   5.480   6.847   1.043  0.3336 -0.8755  0.3720
    6MOL    C94 1904   5.587   6.751   1.004  0.0490 -0.2160 -0.0243
    6MOL    O95 1905   5.559   6.652   0.935 -0.1903 -0.1082 -0.7360
    6MOL    O96 1906   5.711   6.784   1.051 -0.3566 -0.5215 -0.1382
    6MOL    C97 1907   5.815   6.691   1.049 -0.4767  0.2278 -0.1587
    6MOL    C98 1908   5.940   6.762   1.099  0.4630  0.1338  0.1577
    6MOL    C99 1909   5.922   6.820   1.244  0.3345 -0.5832 -0.0273
    6MOL   H100 1910   5.288   6.863   1.118  0.4261  1.0094 -0.0811
    6MOL   H101 1911   5.348   6.696   1.108  2.2353 -0.7392  1.4338
    6MOL   H102 1912   5.541   6.918   1.100  0.2902 -0.0724 -0.5735
    6MOL   H103 1913   5.799   6.610   1.120 -0.2416  0.6567  0.3933
    6MOL   H104 1914   5.824   6.637   0.955 -1.4405 -0.4987  0.1548
    6MOL   H105 1915   6.030   6.700   1.102 -0.6547 -1.5270  0.3341
    6MOL   H106 1916   5.955   6.844   1.029 -2.3580  1.1340  0.6699
    6MOL   H107 1917   5.838   6.888   1.254 -0.0312 -1.0637  0.2263
    6MOL   H108 1918   6.012   6.861   1.289 -0.9343  2.1336  0.0944
    6MOL   H109 1919   5.906   6.732   1.307  0.7999  0.7862  2.0556
    6MOL   C110 1920   5.426   6.926   0.920  0.3732  0.3650  0.7077
    6MOL   C111 1921   5.343   7.053   0.952  0.2386  0.0925 -0.7583
    6MOL   C112 1922   5.418   7.169   1.020 -0.0986 -0.0887 -0.0478
    6MOL   O113 1923   5.359   7.239   1.105  0.4541 -0.3260 -0.3392
    6MOL   O114 1924   5.549   7.186   0.987 -0.3320  0.1190 -0.3104
    6MOL   C115 1925   5.622   7.292   1.050 -0.6081 -0.2036 -0.8466
    6MOL   C116 1926   5.778   7.250   1.065  0.5528  0.4989  0.2122
    6MOL   C117 1927   5.810   7.132   1.151 -0.1404 -0.3832 -0.5274
    6MOL   H118 1928   5.367   6.853   0.864  2.5511 -0.0294 -1.1400
    6MOL   H119 1929   5.511   6.958   0.860  0.4693 -3.6759 -1.5014
    6MOL   H120 1930   5.266   7.026   1.024  0.4056 -0.9021 -0.9528
    6MOL   H121 1931   5.617   7.385   0.993 -1.2644  0.2309 -0.0841
    6MOL   H122 1932   5.583   7.308   1.151  0.9128  0.0557 -0.2752
    6MOL   H123 1933   5.808   7.222   0.964  0.3888 -1.5085  0.6919
    6MOL   H124 1934   5.835   7.339   1.091  0.1647  1.5575 -2.4005
    6MOL   H125 1935   5.766   7.156   1.248 -1.4155 -1.7521 -0.7400
    6MOL   H126 1936   5.917   7.118   1.163 -0.5784 -3.5556  0.3572
    6MOL   H127 1937   5.756   7.042   1.121 -1.0133  0.2165 -0.7832
    6MOL   C128 1938   5.280   7.114   0.827 -0.5537 -0.1224 -0.4342
    6MOL   C129 1939   5.131   7.076   0.813  0.6037 -0.3805  0.6987
    6MOL   C130 1940   5.104   6.919   0.809  0.1172  0.4852  0.6787
    6MOL   O131 1941   5.126   6.864   0.703  0.4048 -1.0668 -0.0734
    6MOL   O132 1942   5.089   6.860   0.924 -0.3907  0.4204  0.0573
    6MOL   C133 1943   5.061   6.723   0.916  0.4370 -0.0361  0.0493
    6MOL   C134 1944   5.002   6.680   1.050  0.2585  0.4443  0.3667
    6MOL   C135 1945   4.959   6.536   1.067 -0.0442  0.8080 -0.2081
    6MOL   H136 1946   5.328   7.070   0.739 -0.1256  0.4022 -0.4670
    6MOL   H137 1947   5.300   7.220   0.811 -3.1400  0.0590 -3.0241
    6MOL   H138 1948   5.100   7.109   0.713  2.1177 -0.2754  0.2435
    6MOL   H139 1949   4.990   6.700   0.836  0.9360  1.5522 -0.8755
    6MOL   H140 1950   5.148   6.664   0.890  2.4379  3.5167 -1.7336
    6MOL   H141 1951   5.077   6.711   1.123  0.9384  0.3149 -0.2760
    6MOL   H142 1952   4.911   6.738   1.055 -1.0882 -1.0770 -3.8606
    6MOL   H143 1953   4.915   6.499   0.974 -0.6941  1.3403 -0.1099
    6MOL   H144 1954   4.889   6.512   1.147  0.5578 -1.9691 -0.4596
    6MOL   H145 1955   5.041   6.468   1.088  0.1162  1.0157 -0.1625
    6MOL   C146 1956   5.051   7.160   0.917 -0.6398  0.3810 -0.7421
    6MOL   C147 1957   4.894   7.162   0.902 -0.2720  0.3517  0.1595
    6MOL   C148 1958   4.840   7.247   1.015  0.2649 -0.7662  1.0837
    6MOL   O149 1959   4.918   7.321   1.081  0.3695  0.4813  0.1592
    6MOL   O150 1960   4.713   7.228   1.024  0.4893 -0.3670  0.4256
    6MOL   C151 1961   4.646   7.298   1.127  0.3487 -0.3992 -0.2748
    6MOL   C152 1962   4.508   7.337   1.070 -0.0080 -0.8889  0.6959
    6MOL   C153 1963   4.512   7.440   0.955  0.3540 -0.3560  0.1356
    6MOL   H154 1964   5.089   7.262   0.917  1.6345 -0.4201 -1.9584
    6MOL   H155 1965   5.079   7.117   1.013  0.6119  0.7785 -0.9223
    6MOL   H156 1966   4.859   7.061   0.924 -0.0827  0.2651  0.0685
    6MOL   H157 1967   4.641   7.234   1.214  0.5533 -0.0131  0.0230
    6MOL   H158 1968   4.700   7.386   1.162  1.5832 -1.1441 -0.3087
    6MOL   H159 1969   4.466   7.242   1.038 -0.2680 -0.6116  0.1938
    6MOL   H160 1970   4.454   7.379   1.154 -2.4259 -2.1735 -0.1746
    6MOL   H161 1971   4.598   7.422   0.890  0.4192  0.6607 -0.0637
    6MOL   H162 1972   4.528   7.543   0.988  1.1754  0.0090 -1.3609
    6MOL   H163 1973   4.425   7.433   0.890  1.0935 -1.9644 -0.7239
    6MOL   C164 1974   4.830   7.198   0.772  0.0308  0.0508 -0.2138
    6MOL   C165 1975   4.824   7.085   0.670 -0.4308  0.4228 -0.9260
    6MOL   C166 1976   4.721   6.975   0.720 -0.3282  0.7691  0.1377
    6MOL   O167 1977   4.600   6.987   0.720 -0.3287  0.2608 -0.3842
    6MOL   O168 1978   4.788   6.867   0.781 -0.2235  0.0379 -0.2033
    6MOL   C169 1979   4.727   6.753   0.819  0.2782 -0.1826 -0.0922
    6MOL   C170 1980   4.714   6.666   0.695 -0.3238 -0.1152 -0.2834
    6MOL   C171 1981   4.833   6.596   0.644 -0.7963  0.0921 -0.9016
    6MOL   H172 1982   4.870   7.296   0.746  1.6302 -0.4331  0.4033
    6MOL   H173 1983   4.727   7.230   0.789  0.2874  0.7155  0.0866
    6MOL   H174 1984   4.922   7.038   0.665 -1.2223 -1.1294 -2.4474
    6MOL   H175 1985   4.791   6.705   0.894  0.4204 -2.5184 -1.6439
    6MOL   H176 1986   4.628   6.768   0.861  1.0450  3.1070  0.7212
    6MOL   H177 1987   4.640   6.591   0.721 -1.0953  0.9982  0.7884
    6MOL   H178 1988   4.664   6.711   0.610 -0.3635  0.0509 -0.1707
    6MOL   H179 1989   4.868   6.521   0.715 -1.0672  0.6775 -0.1448
    6MOL   H180 1990   4.923   6.651   0.616  1.3095 -3.0825 -0.6604
    6MOL   H181 1991   4.805   6.541   0.554 -0.9496  0.9991 -1.4193
    6MOL   C182 1992   4.787   7.140   0.531 -0.2080 -0.1078 -0.5111
    6MOL   C183 1993   4.845   7.041   0.427  0.2946 -0.0888  0.8634
    6MOL   C184 1994   4.747   7.029   0.300 -0.4333  0.3496 -0.1290
    6MOL   O185 1995   4.677   6.930   0.286 -0.2097  0.0842  0.2594
    6MOL   O186 1996   4.746   7.132   0.214  0.1509 -0.0871  0.1860
    6MOL   C187 1997   4.681   7.130   0.089 -0.0369  0.1752  0.6135
    6MOL   C188 1998   4.538   7.187   0.083  0.0164 -0.3925 -0.3430
    6MOL   C189 1999   4.429   7.091   0.125 -0.5060 -0.3463 -0.2386
    6MOL   H190 2000   4.833   7.236   0.512 -0.4199 -0.0592 -0.7823
    6MOL   H191 2001   4.679   7.145   0.516 -0.5060 -1.2060  1.0445
    6MOL   H192 2002   4.839   6.952   0.490 -2.7658 -0.4488  0.1771
    6MOL   H193 2003   4.749   7.181   0.020 -1.2122  0.2190 -0.5435
    6MOL   H194 2004   4.677   7.031   0.043  1.8220  0.8718 -1.1294
    6MOL   H195 2005   4.530   7.278   0.142  1.4188  0.1849 -1.0083
    6MOL   H196 2006   4.520   7.208   7.858 -1.7372 -0.2458 -0.0268
    6MOL   H197 2007   4.417   6.999   0.068 -1.4176  1.0639 -2.3995
    6MOL   H198 2008   4.329   7.136   0.122  0.2386  1.2665 -1.6021
    6MOL   H199 2009   4.436   7.061   0.230 -3.1721  1.0589  0.4189
    6MOL   C200 2010   4.986   7.075   0.383 -0.3886  0.2661  0.1933
    6MOL   C201 2011   5.077   6.954   0.376 -0.5205 -0.5290 -0.3288
    6MOL   C202 2012   5.028   6.849   0.275 -0.3133 -0.1607 -0.6774
    6MOL   O203 2013   4.977   6.746   0.307  0.0263  0.4444 -0.3748
    6MOL   O204 2014   5.051   6.883   0.148  0.2494  0.4399  0.1038
    6MOL   C205 2015   5.037   6.777   0.051  0.4370 -0.8491 -0.2078
    6MOL   C206 2016   4.898   6.787   7.867  0.8696 -0.3193  0.3935
    6MOL   C207 2017   4.882   6.903   7.772  0.1997 -0.5147  0.0158
    6MOL   H208 2018   5.026   7.146   0.455 -1.2889  0.0022  0.9658
    6MOL   H209 2019   4.986   7.128   0.288 -2.6554  0.2006  0.1330
    6MOL   H210 2020   5.076   6.920   0.480 -2.8963 -0.9819 -0.4711
    6MOL   H211 2021   5.116   6.776   7.856  0.6039  0.0529 -0.0441
    6MOL   H212 2022   5.039   6.672   0.081 -1.8012 -1.0951 -0.7860
    6MOL   H213 2023   4.876   6.704   7.801 -1.4304  2.3878 -2.3805
    6MOL   H214 2024   4.817   6.782   0.060  0.7876 -0.6970  0.2795
    6MOL   H215 2025   4.778   6.914   7.740  0.5388 -0.5023 -1.1280
    6MOL   H216 2026   4.941   6.884   7.681 -0.7658 -0.4368 -0.6316
    6MOL   H217 2027   4.914   7.001   7.808 -0.8869 -0.0487 -0.2761
    6MOL   C218 2028   5.224   7.006   0.349 -0.4913  0.3756  0.1492
    6MOL   C219 2029   5.334   6.895   0.340  0.2265 -0.0542 -0.1322
    6MOL   C220 2030   5.439   6.926   0.233 -0.1734  0.1794  0.5838
    6MOL   O221 2031   5.467   6.846   0.143 -0.2228 -0.6904  0.3088
    6MOL   O222 2032   5.488   7.053   0.243 -0.5761  0.3732 -0.3366
    6MOL   C223 2033   5.593   7.095   0.154  0.0782 -0.4555 -1.0226
    6MOL   C224 2034   5.575   7.242   0.134  0.2220 -0.1384 -0.5372
    6MOL   C225 2035   5.689   7.304   0.051 -1.0121 -0.0879  0.6677
    6MOL   H226 2036   5.243   7.083   0.424  0.6566 -0.6770  0.9625
    6MOL   H227 2037   5.219   7.059   0.254 -1.3053  1.3684  0.7365
    6MOL   H228 2038   5.277   6.804   0.319  0.5516  0.1308 -1.8604
    6MOL   H229 2039   5.688   7.073   0.203 -0.6279  2.0990  1.6198
    6MOL   H230 2040   5.609   7.028   0.069  1.7765  0.1416 -1.1947
    6MOL   H231 2041   5.476   7.251   0.090 -0.1557  1.2921  0.5516
    6MOL   H232 2042   5.573   7.297   0.229 -2.3202 -1.3939  0.1659
    6MOL   H233 2043   5.673   7.410   0.074 -0.9998 -0.2370  1.4011
    6MOL   H234 2044   5.685   7.290   7.824 -1.9203  0.3099  0.6373
    6MOL   H235 2045   5.787   7.271   0.085 -0.8599  0.2380  0.5396
    6MOL   C236 2046   5.391   6.883   0.485 -0.4061  0.2730 -0.4685
    6MOL   C237 2047   5.458   6.746   0.514  0.2969  0.2831  0.0570
    6MOL   C238 2048   5.591   6.757   0.584 -0.5277 -0.0641 -0.2628
    6MOL   O239 2049   5.627   6.855   0.648  0.6319  0.5667 -0.2204
    6MOL   O240 2050   5.675   6.652   0.565  0.6274 -0.0133 -0.6109
    6MOL   C241 2051   5.796   6.643   0.640 -0.2051  0.5849  0.4135
    6MOL   C242 2052   5.841   6.496   0.626 -0.8791 -0.2060  0.5214
    6MOL   C243 2053   5.987   6.474   0.667  0.2855 -0.7246 -0.7770
    6MOL   H244 2054   5.306   6.878   0.552  0.1972 -1.5741  0.1793
    6MOL   H245 2055   5.448   6.973   0.508  0.4617 -0.2890 -0.3988
    6MOL   H246 2056   5.485   6.703   0.417 -2.6658 -1.5118 -0.0419
    6MOL   H247 2057   5.873   6.710   0.603 -0.1441  0.8999  1.1049
    6MOL   H248 2058   5.775   6.667   0.744  0.3739  1.7556  0.2598
    6MOL   H249 2059   5.773   6.428   0.676 -0.4527 -0.3463  0.9175
    6MOL   H250 2060   5.827   6.487   0.518  1.0628  0.4335  0.1844
    6MOL   H251 2061   6.058   6.543   0.623 -0.2410 -0.5220 -1.3197
    6MOL   H252 2062   6.012   6.368   0.667  0.5978 -0.6531 -0.0143
    6MOL   H253 2063   5.997   6.490   0.774  0.0911  2.1813 -1.1424
    6MOL   C254 2064   5.357   6.649   0.588 -0.0209 -0.2858 -0.0444
    6MOL   C255 2065   5.416   6.502   0.614  0.0903  0.0165  0.5080
    6MOL   C256 2066   5.315   6.424   0.700  0.4078 -0.7060 -0.7387
    6MOL   O257 2067   5.190   6.454   0.694 -0.0323 -0.3402 -0.0374
    6MOL   O258 2068   5.372   6.313   0.758 -0.1470  0.5313 -0.0819
    6MOL   C259 2069   5.289   6.215   0.825  0.0964  0.7351  0.3242
    6MOL   C260 2070   5.309   6.222   0.978 -0.5479  0.1278  0.1709
    6MOL   C261 2071   5.449   6.205   1.027 -0.4934  0.9123 -0.0168
    6MOL   H262 2072   5.265   6.637   0.532  0.4077  1.4386 -1.1240
    6MOL   H263 2073   5.329   6.690   0.685 -2.0339 -0.6593 -0.4466
    6MOL   H264 2074   5.506   6.513   0.674  1.2905  0.4670 -1.3374
    6MOL   H265 2075   5.186   6.231   0.793  0.5716  0.5009 -1.4324
    6MOL   H266 2076   5.337   6.120   0.799  1.1475  0.9202  1.5653
    6MOL   H267 2077   5.263   6.315   1.010 -1.4939 -0.3565  0.2289
    6MOL   H268 2078   5.242   6.145   1.015  0.2001 -0.3459  0.5698
    6MOL   H269 2079   5.447   6.157   1.125  3.1629  0.2241 -0.1969
    6MOL   H270 2080   5.513   6.293   1.022  0.1002  0.4812 -0.1160
    6MOL   H271 2081   5.496   6.125   0.969 -0.8745  0.3116  0.4876
    6MOL   C272 2082   5.457   6.432   0.484 -0.5013  0.2228 -0.4894
    6MOL   C273 2083   5.372   6.449   0.356 -0.1297 -0.0184  0.0279
    6MOL   C274 2084   5.447   6.443   0.218  0.0604  0.4127  0.0799
    6MOL   O275 2085   5.557   6.387   0.216  0.0866  0.2034 -0.2408
    6MOL   O276 2086   5.378   6.496   0.109  0.1559 -0.2319  0.4945
    6MOL   C277 2087   5.445   6.516   7.868  0.3298 -0.1484  0.3153
    6MOL   C278 2088   5.345   6.510   7.758 -0.1637 -0.4516  0.8388
    6MOL   C279 2089   5.402   6.534   7.617  0.3861  0.0529  0.0816
    6MOL   H280 2090   5.482   6.327   0.498  0.3129  0.0603 -2.9161
    6MOL   H281 2091   5.548   6.483   0.454 -0.8306  1.2008  0.1489
    6MOL   H282 2092   5.342   6.554   0.351  1.9018  0.5811  0.0238
    6MOL   H283 2093   5.511   6.602   7.876  1.5851 -0.7276 -3.1962
    6MOL   H284 2094   5.512   6.431   7.852  2.0276  1.2194  0.0163
    6MOL   H285 2095   5.301   6.410   7.754 -0.0721 -0.4376 -0.8788
    6MOL   H286 2096   5.273   6.592   7.756 -0.4760 -0.7098  1.3274
    6MOL   H287 2097   5.469   6.451   7.597  1.4084  1.5542 -3.1815
    6MOL   H288 2098   5.449   6.633   7.616 -0.2408  0.3613  0.8525
    6MOL   H289 2099   5.327   6.541   7.539  1.9756 -0.6980 -1.5634
    6MOL   C290 2100   5.248   6.366   0.351 -0.0509  0.7094 -0.2682
    6MOL   C291 2101   5.268   6.209   0.328 -0.2588  0.1141 -0.2865
    6MOL   C292 2102   5.230   6.124   0.454  0.2705 -0.1363  0.0330
    6MOL   O293 2103   5.305   6.051   0.510 -0.2550 -0.0320  0.3602
    6MOL   O294 2104   5.097   6.140   0.481 -0.9493  0.5512 -0.8563
    6MOL   C295 2105   5.050   6.064   0.594 -0.0130  0.0565  0.2833
    6MOL   C296 2106   4.900   6.102   0.643  0.1340  0.2954 -0.2359
    6MOL   C297 2107   4.893   6.246   0.702  0.2573 -0.1929  0.0911
    6MOL   H298 2108   5.188   6.397   0.266 -1.4667 -2.1183 -0.3452
    6MOL   H299 2109   5.191   6.370   0.444 -0.4236 -0.2502 -0.4545
    6MOL   H300 2110   5.376   6.205   0.313 -0.4119  0.4339 -1.4870
    6MOL   H301 2111   5.047   5.960   0.562  2.2558 -0.7021  2.4001
    6MOL   H302 2112   5.124   6.068   0.674 -0.0994 -1.4742  0.4589
    6MOL   H303 2113   4.836   6.096   0.554  0.8584  1.0529 -0.8149
    6MOL   H304 2114   4.876   6.028   0.720  0.8191  0.1693 -0.1401
    6MOL   H305 2115   4.942   6.251   0.800  0.4780 -2.2128  0.0920
    6MOL   H306 2116   4.793   6.288   0.716  1.0088  1.3616  0.9613
    6MOL   H307 2117   4.950   6.304   0.629  0.4321  0.1673  0.5061
    6MOL   C308 2118   5.197   6.151   0.202  0.0290 -0.4990 -0.1422
    6MOL   C309 2119   5.040   6.154   0.183 -0.7632 -0.1039 -0.1446
    6MOL   C310 2120   4.982   6.295   0.144  0.5733  0.4856 -0.0481
    6MOL   O311 2121   5.025   6.370   0.055 -0.2185 -0.5832  0.8818
    6MOL   O312 2122   4.875   6.332   0.231 -0.0355 -0.6316 -0.2067
    6MOL   C313 2123   4.815   6.464   0.231  0.4707 -0.6523  0.5040
    6MOL   C314 2124   4.663   6.455   0.239  0.1492 -0.6298 -0.1438
    6MOL   C315 2125   4.610   6.597   0.255  0.5379 -0.1681  0.0245
    6MOL   H316 2126   5.239   6.054   0.176  1.8629  0.4291 -0.7535
    6MOL   H317 2127   5.230   6.206   0.114  1.2483 -1.7231 -0.4768
    6MOL   H318 2128   4.994   6.130   0.279  0.5394  2.1571  1.0987
    6MOL   H319 2129   4.864   6.518   0.312  1.1831 -2.5952  1.4040
    6MOL   H320 2130   4.843   6.512   0.137  2.3994 -3.1836 -0.2549
    6MOL   H321 2131   4.630   6.412   0.145  1.1285 -1.7777  0.0183
    6MOL   H322 2132   4.640   6.389   0.323 -2.0360 -3.3528 -2.7514
    6MOL   H323 2133   4.640   6.671   0.180  0.1892  1.0254  1.0309
    6MOL   H324 2134   4.502   6.589   0.256  0.5653 -0.6776 -0.8149
    6MOL   H325 2135   4.634   6.652   0.346  0.4398 -0.7916  0.4284
    6MOL   C326 2136   4.994   6.048   0.072  0.6353 -0.5669  0.2113
    6MOL   C327 2137   4.908   5.929   0.125  0.7765 -0.2556 -0.5548
    6MOL   C328 2138   4.999   5.823   0.207 -0.0187 -0.5293  0.2540
    6MOL   O329 2139   4.971   5.793   0.321  0.0086  0.3850  0.4314
    6MOL   O330 2140   5.107   5.782   0.130 -0.3558 -0.1134 -0.3960
    6MOL   C331 2141   5.207   5.702   0.193  0.2426  0.1885  0.2107
    6MOL   C332 2142   5.294   5.630   0.089  0.1844 -0.4417 -0.1962
    6MOL   C333 2143   5.219   5.516   0.007  0.0095 -0.3313  0.9966
    6MOL   H334 2144   5.080   6.006   0.020 -0.7668 -2.2145 -0.8370
    6MOL   H335 2145   4.944   6.097   7.868  0.3549 -0.4237  0.4591
    6MOL   H336 2146   4.881   5.874   0.034 -0.6305 -1.5808  0.6296
    6MOL   H337 2147   5.275   5.760   0.255 -0.1262 -0.8128  1.5623
    6MOL   H338 2148   5.165   5.637   0.269  0.1194  1.7874  1.5448
    6MOL   H339 2149   5.321   5.703   0.013 -1.5387  2.3807  1.8080
    6MOL   H340 2150   5.387   5.584   0.125  1.0001  0.7266 -0.7825
    6MOL   H341 2151   5.285   5.453   7.827  0.6648  0.0377  1.3260
    6MOL   H342 2152   5.169   5.456   0.084 -0.7677 -0.6036  0.2909
    6MOL   H343 2153   5.140   5.544   7.818  2.1211  2.5194 -0.3385
    6MOL   C344 2154   4.784   5.981   0.197  0.0662  0.5690  0.2471
    6MOL   C345 2155   4.663   5.892   0.164  0.4546 -0.0950 -0.2663
    6MOL   C346 2156   4.668   5.748   0.226 -0.2206 -0.2923 -0.5234
    6MOL   O347 2157   4.725   5.653   0.170  0.3187 -0.1812 -0.6224
    6MOL   O348 2158   4.595   5.732   0.339 -0.4861  0.1182 -0.4831
    6MOL   C349 2159   4.595   5.614   0.417 -0.2233  0.0982  0.1494
    6MOL   C350 2160   4.704   5.632   0.527  0.3199 -0.3376 -0.1347
    6MOL   C351 2161   4.672   5.752   0.621 -0.7138 -0.0046 -0.1473
    6MOL   H352 2162   4.761   6.082   0.161 -0.0322  0.7887  0.9174
    6MOL   H353 2163   4.802   5.984   0.304  0.4129  0.4723  0.1934
    6MOL   H354 2164   4.650   5.882   0.056  3.1575 -0.0242 -0.6383
    6MOL   H355 2165   4.507   5.611   0.482  0.3380  0.2325  0.9347
    6MOL   H356 2166   4.610   5.530   0.350  2.6128  0.4451  0.2874
    6MOL   H357 2167   4.704   5.532   0.569 -1.2943 -0.3011 -0.0437
    6MOL   H358 2168   4.806   5.636   0.488  0.8470  1.3388  1.3453
    6MOL   H359 2169   4.580   5.724   0.673 -0.4113  0.1935  0.5035
    6MOL   H360 2170   4.751   5.776   0.693  0.0708  0.9701 -1.3251
    6MOL   H361 2171   4.651   5.847   0.571  0.6097 -0.5674 -1.7817
    6MOL   H362 2172   4.572   5.942   0.196  0.9021 -0.7074  2.0383
    7MOL     C1 2173   0.995   3.140   2.520 -0.2801 -0.2129  0.4066
    7MOL     C2 2174   0.940   3.001   2.575  0.0644  0.5041 -0.0653
    7MOL     C3 2175   0.841   3.021   2.692 -0.1499  0.1467 -0.1306
    7MOL     O4 2176   0.841   2.942   2.787  0.6819 -0.0022 -0.1144
    7MOL     O5 2177   0.756   3.124   2.679 -0.6230 -0.1827  0.0690
    7MOL     C6 2178   0.659   3.162   2.771  0.4820 -0.0706 -0.0842
    7MOL     C7 2179   0.712   3.221   2.908  0.2685  0.4139  0.2309
    7MOL     C8 2180   0.815   3.335   2.892 -0.1521 -0.1490 -0.1391
    7MOL     H9 2181   1.089   3.121   2.469 -1.3345 -1.5460 -1.0679
    7MOL    H10 2182   0.919   3.183   2.454 -0.9434 -1.6178  0.2372
    7MOL    H11 2183   1.021   2.952   2.628  2.0255  0.9535 -2.5250
    7MOL    H12 2184   0.601   3.233   2.712  2.7162 -0.2534 -2.5281
    7MOL    H13 2185   0.598   3.076   2.799 -0.0862 -0.3284 -2.0409
    7MOL    H14 2186   0.623   3.256   2.960 -1.4815 -1.3451 -1.5136
    7MOL    H15 2187   0.751   3.141   2.972 -0.8611 -0.8642 -0.6435
    7MOL    H16 2188   0.811   3.404   2.977 -1.4182  0.1395 -0.4232
    7MOL    H17 2189   0.916   3.295   2.898  0.0224  0.3649  0.5318
    7MOL    H18 2190   0.812   3.384   2.795 -2.0186 -0.5231 -0.2836
    7MOL    H19 2191   1.005   3.223   2.591 -0.0900 -0.3614  0.5528
    7MOL    C20 2192   0.882   2.917   2.451  0.3278  0.8582  0.0886
    7MOL    C21 2193   0.853   2.763   2.457  0.0643 -0.5003  0.6783
    7MOL    C22 2194   0.728   2.723   2.538 -0.3991 -0.0257  0.2861
    7MOL    O23 2195   0.732   2.651   2.639 -0.5708  0.2696 -0.4264
    7MOL    O24 2196   0.615   2.784   2.493 -0.0054  0.0304  0.4442
    7MOL    C25 2197   0.489   2.758   2.566 -0.6902 -0.8895  0.1234
    7MOL    C26 2198   0.390   2.879   2.550 -0.7911  0.2779  0.1614
    7MOL    C27 2199   0.247   2.839   2.588  0.5083 -0.2186 -0.4267
    7MOL    H28 2200   0.970   2.905   2.387  0.7502  0.2345  0.7705
    7MOL    H29 2201   0.798   2.971   2.409  0.4608  2.3377  1.6574
    7MOL    H30 2202   0.941   2.723   2.509 -0.7021 -1.3554  1.3517
    7MOL    H31 2203   0.450   2.658   2.550 -1.8690 -0.2916 -0.8572
    7MOL    H32 2204   0.503   2.773   2.673  0.3009  0.5409 -0.1860
    7MOL    H33 2205   0.429   2.962   2.609  0.4473 -0.7328  0.7871
    7MOL    H34 2206   0.404   2.934   2.457  0.8342 -0.6380 -0.1511
    7MOL    H35 2207   0.232   2.793   2.686  1.7847  2.3010  0.9690
    7MOL    H36 2208   0.219   2.760   2.518  1.0793  1.1840 -2.2737
    7MOL    H37 2209   0.169   2.914   2.577  0.7639 -0.0223 -0.9177
    7MOL    C38 2210   0.843   2.710   2.306 -0.2150 -0.2373 -0.5750
    7MOL    C39 2211   0.857   2.560   2.290  0.3325 -0.1185 -0.0915
    7MOL    C40 2212   0.824   2.515   2.148  0.5126  0.4496 -0.6645
    7MOL    O41 2213   0.878   2.563   2.046 -0.2307 -0.2258 -0.3813
    7MOL    O42 2214   0.753   2.400   2.150 -0.3556 -0.2067 -0.6119
    7MOL    C43 2215   0.721   2.340   2.024  1.0839  0.3252 -0.0835
    7MOL    C44 2216   0.592   2.285   2.043  0.2621  0.4301  0.3279
    7MOL    C45 2217   0.532   2.212   1.919 -0.5706 -0.1069 -0.2119
    7MOL    H46 2218   0.923   2.752   2.247 -0.3467  1.6787  0.5772
    7MOL    H47 2219   0.743   2.745   2.278 -0.9401  0.0953  2.1952
    7MOL    H48 2220   0.783   2.518   2.359  0.5633  0.7872  0.7198
    7MOL    H49 2221   0.708   2.421   1.952  4.4056  1.7417  0.8220
    7MOL    H50 2222   0.782   2.257   1.989  0.2052 -0.8741  1.1831
    7MOL    H51 2223   0.587   2.210   2.122 -0.1296 -0.3783 -0.4461
    7MOL    H52 2224   0.535   2.371   2.077  0.7955  1.3211 -0.9833
    7MOL    H53 2225   0.593   2.126   1.891 -1.9117 -0.1763 -3.1081
    7MOL    H54 2226   0.522   2.272   1.829  0.5693 -2.1997 -1.7852
    7MOL    H55 2227   0.426   2.188   1.929 -0.5268 -0.1452  0.1426
    7MOL    C56 2228   1.002   2.519   2.331 -0.0722  0.2452  0.4865
    7MOL    C57 2229   1.004   2.436   2.452  0.2610  0.4027  0.7758
    7MOL    C58 2230   0.924   2.305   2.445  0.2874  0.6119  0.0747
    7MOL    O59 2231   0.839   2.279   2.528  0.1161 -0.0862 -0.0911
    7MOL    O60 2232   0.950   2.227   2.339  0.3889 -0.2525 -0.4052
    7MOL    C61 2233   0.870   2.113   2.313  0.0512 -0.3899  0.5812
    7MOL    C62 2234   0.957   2.016   2.228  0.0011  0.4421 -0.8253
    7MOL    C63 2235   0.936   2.032   2.079 -0.3890  0.7204  0.8225
    7MOL    H64 2236   1.067   2.605   2.348  0.9479 -0.0985 -1.4960
    7MOL    H65 2237   1.054   2.473   2.247 -0.7049 -1.5008  1.0403
    7MOL    H66 2238   0.964   2.497   2.533 -0.6436 -0.9154  1.3390
    7MOL    H67 2239   0.843   2.075   2.411 -1.6402  0.8953  0.6267
    7MOL    H68 2240   0.783   2.135   2.252 -0.1053 -1.9571  0.2319
    7MOL    H69 2241   1.062   2.017   2.256 -0.8023  2.4558  2.4704
    7MOL    H70 2242   0.922   1.916   2.252 -1.1008  1.2744  1.1808
    7MOL    H71 2243   0.846   1.990   2.033 -2.0681  0.9684  3.7889
    7MOL    H72 2244   1.020   1.970   2.047 -0.7588  0.8065 -0.3386
    7MOL    H73 2245   0.945   2.139   2.058 -0.1768  0.5015 -0.2630
    7MOL    C74 2246   1.152   2.401   2.489  0.8624  0.7465  0.5144
    7MOL    C75 2247   1.242   2.520   2.526  0.0253  0.2652  0.6243
    7MOL    C76 2248   1.184   2.603   2.635  0.5291  0.6156 -0.5997
    7MOL    O77 2249   1.181   2.726   2.621 -0.1068 -0.1734 -0.2776
    7MOL    O78 2250   1.155   2.535   2.744 -0.2260  0.6426 -0.3069
    7MOL    C79 2251   1.121   2.614   2.860 -0.8512 -0.1285  0.1094
    7MOL    C80 2252   0.976   2.646   2.859  0.1873 -0.5091 -0.5094
    7MOL    C81 2253   0.891   2.518   2.886 -0.0504 -0.1524  0.1930
    7MOL    H82 2254   1.198   2.352   2.404 -1.5898  0.8250 -0.8796
    7MOL    H83 2255   1.157   2.332   2.573 -0.1254  1.8832  1.5363
    7MOL    H84 2256   1.254   2.577   2.434 -1.6573 -0.6179 -0.1693
    7MOL    H85 2257   1.143   2.546   2.942 -0.6512 -0.2157 -0.0163
    7MOL    H86 2258   1.187   2.701   2.864  0.7350 -1.3526  0.8827
    7MOL    H87 2259   0.958   2.724   2.933  0.8456 -0.7219 -0.1160
    7MOL    H88 2260   0.941   2.684   2.764 -0.3195 -0.8359 -0.4558
    7MOL    H89 2261   0.914   2.475   2.984 -0.3085  0.4637  0.5246
    7MOL    H90 2262   0.888   2.441   2.809 -0.0782  1.8070 -1.8419
    7MOL    H91 2263   0.792   2.562   2.888  0.6006  1.3855 -0.3923
    7MOL    C92 2264   1.388   2.488   2.565 -0.1500  0.3115  0.1923
    7MOL    C93 2265   1.484   2.608   2.591 -0.2117 -0.0706  1.0303
    7MOL    C94 2266   1.614   2.545   2.648  0.0198  0.4946 -0.6936
    7MOL    O95 2267   1.645   2.423   2.636 -0.4606 -0.5257 -0.2334
    7MOL    O96 2268   1.683   2.637   2.718  0.6685 -0.2805 -0.0804
    7MOL    C97 2269   1.811   2.612   2.779 -0.8159 -0.2392  0.1676
    7MOL    C98 2270   1.927   2.595   2.685 -0.2280  0.5403  0.3426
    7MOL    C99 2271   1.951   2.721   2.607  0.1836  1.0925 -0.7529
    7MOL   H100 2272   1.433   2.423   2.490 -0.9712  1.2466 -1.1259
    7MOL   H101 2273   1.376   2.424   2.653 -0.5797 -0.4439 -0.3997
    7MOL   H102 2274   1.443   2.685   2.656  0.2343  2.0243 -1.0676
    7MOL   H103 2275   1.827   2.689   2.854  0.7735 -1.8136  1.4802
    7MOL   H104 2276   1.801   2.520   2.836 -2.4093  0.3257  0.8472
    7MOL   H105 2277   2.017   2.569   2.740 -0.5525 -1.9119 -0.1993
    7MOL   H106 2278   1.901   2.513   2.618  0.4762  0.4035  0.2324
    7MOL   H107 2279   1.868   2.740   2.539 -0.4124 -1.3205 -0.7376
    7MOL   H108 2280   2.045   2.722   2.552  0.5006  0.0264 -0.2491
    7MOL   H109 2281   1.956   2.808   2.673  0.6191 -0.0208  0.7195
    7MOL   C110 2282   1.514   2.682   2.456 -0.5414  0.2101 -0.2580
    7MOL   C111 2283   1.595   2.817   2.450 -0.5496  0.3529  0.0865
    7MOL   C112 2284   1.664   2.831   2.310 -0.5531  0.2586  0.1943
    7MOL   O113 2285   1.650   2.748   2.217  0.6172  0.0042  0.3176
    7MOL   O114 2286   1.754   2.930   2.302  0.0700  0.1962 -0.0585
    7MOL   C115 2287   1.826   2.960   2.179 -0.1910 -0.8118  0.0852
    7MOL   C116 2288   1.920   3.084   2.202  0.1156  0.0679 -0.3344
    7MOL   C117 2289   2.004   3.064   2.330 -0.4473  0.2397  0.5507
    7MOL   H118 2290   1.422   2.704   2.401 -0.9180  3.3002  1.4901
    7MOL   H119 2291   1.561   2.610   2.390  1.8441 -0.0510  1.6425
    7MOL   H120 2292   1.678   2.797   2.518 -0.1824  0.8796 -0.2012
    7MOL   H121 2293   1.886   2.872   2.154 -1.5001 -0.6076 -4.0988
    7MOL   H122 2294   1.763   2.971   2.091 -0.1129  0.8489  0.2191
    7MOL   H123 2295   1.977   3.098   2.110 -1.3562 -0.7617 -1.3873
    7MOL   H124 2296   1.861   3.175   2.208 -0.2221  0.1388 -3.8904
    7MOL   H125 2297   2.068   3.151   2.341  0.4728 -0.3999  0.3155
    7MOL   H126 2298   2.065   2.974   2.324  0.1284  0.6841 -0.2420
    7MOL   H127 2299   1.951   3.047   2.425  0.2464 -3.6002  0.3379
    7MOL   C128 2300   1.521   2.945   2.493 -0.2313 -0.2176 -0.1890
    7MOL   C129 2301   1.539   2.978   2.646  0.8259 -0.6351 -0.2339
    7MOL   C130 2302   1.657   3.073   2.662 -0.7961 -0.9603  0.0657
    7MOL   O131 2303   1.767   3.031   2.698 -0.6643  0.8887 -0.1326
    7MOL   O132 2304   1.631   3.198   2.631 -0.3160 -0.0122 -0.6111
    7MOL   C133 2305   1.738   3.292   2.653  0.4019 -0.7154 -0.6756
    7MOL   C134 2306   1.665   3.423   2.699  0.7444 -0.3035  0.2192
    7MOL   C135 2307   1.771   3.523   2.749  0.4406 -0.4625 -0.2289
    7MOL   H136 2308   1.414   2.938   2.469 -0.3115  2.5192 -0.7560
    7MOL   H137 2309   1.544   3.032   2.433  1.0834 -0.0725  0.5107
    7MOL   H138 2310   1.571   2.889   2.700 -0.0187 -1.7733 -1.5777
    7MOL   H139 2311   1.810   3.273   2.732 -0.1902  1.7863  0.5216
    7MOL   H140 2312   1.796   3.312   2.563 -0.2026  3.2046 -0.2968
    7MOL   H141 2313   1.605   3.454   2.613  1.5525  1.8346  0.3780
    7MOL   H142 2314   1.599   3.388   2.777 -0.0969 -0.6994 -0.6580
    7MOL   H143 2315   1.813   3.587   2.671  1.7527 -0.7217  0.2641
    7MOL   H144 2316   1.860   3.474   2.786  1.1455  0.2556 -0.9543
    7MOL   H145 2317   1.728   3.585   2.828  0.8318 -0.9576  0.3750
    7MOL   C146 2318   1.405   3.043   2.698  0.2583 -0.0912  0.2329
    7MOL   C147 2319   1.416   3.071   2.849  0.2324 -0.4339  0.5706
    7MOL   C148 2320   1.323   3.183   2.899 -0.1054  0.1653  0.2437
    7MOL   O149 2321   1.239   3.238   2.827  0.1659 -0.0315 -0.0886
    7MOL   O150 2322   1.356   3.220   3.022 -0.2386 -0.6535  0.1638
    7MOL   C151 2323   1.313   3.339   3.080  0.2211  0.8614  0.0161
    7MOL   C152 2324   1.384   3.468   3.014  0.3984 -0.0537 -0.4160
    7MOL   C153 2325   1.313   3.602   3.052  0.3234  0.3272 -0.8147
    7MOL   H154 2326   1.316   2.993   2.661  0.1382  2.1329 -2.6675
    7MOL   H155 2327   1.398   3.139   2.646 -0.4046  0.1327  0.7291
    7MOL   H156 2328   1.517   3.102   2.876  1.2938 -0.4250 -3.0633
    7MOL   H157 2329   1.205   3.347   3.063 -0.1123 -1.8588  0.6376
    7MOL   H158 2330   1.337   3.333   3.186  0.7121 -0.4616 -0.1598
    7MOL   H159 2331   1.486   3.469   3.053  0.0805  0.8913  0.4079
    7MOL   H160 2332   1.385   3.460   2.905  0.4914 -1.8535 -0.3052
    7MOL   H161 2333   1.216   3.601   3.002  0.2669 -0.0777 -0.7017
    7MOL   H162 2334   1.365   3.689   3.012 -0.7527  1.9010  1.1339
    7MOL   H163 2335   1.303   3.596   3.160  1.1648 -1.8826 -0.8279
    7MOL   C164 2336   1.390   2.942   2.921 -0.7305  0.4289 -0.1051
    7MOL   C165 2337   1.475   2.912   3.044 -0.0606 -0.7231 -0.5336
    7MOL   C166 2338   1.418   2.800   3.141 -0.2345  0.4153 -0.3797
    7MOL   O167 2339   1.411   2.813   3.263 -0.3746 -0.5685 -0.2368
    7MOL   O168 2340   1.380   2.695   3.079  0.6612  0.2127  0.1329
    7MOL   C169 2341   1.346   2.578   3.147  0.1949  0.7362 -0.1319
    7MOL   C170 2342   1.452   2.474   3.094 -0.5145 -0.1346  0.1019
    7MOL   C171 2343   1.451   2.451   2.943  0.5480 -0.2505  0.0279
    7MOL   H172 2344   1.400   2.855   2.857 -1.2370  2.0090 -2.4066
    7MOL   H173 2345   1.285   2.943   2.949 -0.7644 -1.0243 -0.1380
    7MOL   H174 2346   1.479   3.003   3.104 -0.3080 -0.2109 -1.2936
    7MOL   H175 2347   1.342   2.593   3.255  0.4604  2.2784 -0.3241
    7MOL   H176 2348   1.246   2.539   3.126  0.5207  0.0786 -0.4829
    7MOL   H177 2349   1.545   2.526   3.117  0.3919 -0.8265 -1.8546
    7MOL   H178 2350   1.447   2.378   3.145  1.1781 -1.3316 -1.9109
    7MOL   H179 2351   1.526   2.373   2.935  2.8163  1.9003 -0.5486
    7MOL   H180 2352   1.490   2.537   2.887 -1.4434 -0.6572 -2.0260
    7MOL   H181 2353   1.351   2.431   2.904  0.4014 -2.5777  1.5475
    7MOL   C182 2354   1.621   2.872   3.014  0.1520  0.3752 -0.0072
    7MOL   C183 2355   1.722   2.933   3.110 -0.4766 -0.0563 -0.3869
    7MOL   C184 2356   1.823   2.823   3.163  0.6664  0.1253  0.1421
    7MOL   O185 2357   1.943   2.821   3.126 -0.1078 -0.0449 -0.2819
    7MOL   O186 2358   1.764   2.738   3.243 -0.4249  0.0596  0.2963
    7MOL   C187 2359   1.838   2.622   3.293 -0.1362  0.2774  0.5369
    7MOL   C188 2360   1.761   2.567   3.418  0.4770  0.6901  0.5812
    7MOL   C189 2361   1.625   2.516   3.394 -0.0477  0.4340  0.1123
    7MOL   H190 2362   1.649   2.896   2.911 -1.0947  2.3739  0.1081
    7MOL   H191 2363   1.635   2.764   3.006  1.8310  0.5293  0.5988
    7MOL   H192 2364   1.666   2.958   3.200  2.5244  1.2780  1.1748
    7MOL   H193 2365   1.846   2.538   3.224  1.1937  0.6892  0.1907
    7MOL   H194 2366   1.937   2.644   3.333  0.0256  0.8211 -0.1534
    7MOL   H195 2367   1.828   2.497   3.468 -0.5646  0.6764  2.0034
    7MOL   H196 2368   1.749   2.646   3.493  2.3015  0.9378  0.6296
    7MOL   H197 2369   1.578   2.480   3.486  0.8270 -2.5537 -0.5380
    7MOL   H198 2370   1.641   2.433   3.325 -0.5566 -1.0486  1.7335
    7MOL   H199 2371   1.569   2.598   3.350 -0.5494  0.9316  1.6494
    7MOL   C200 2372   1.780   3.065   3.043  0.3749  0.7652  0.6014
    7MOL   C201 2373   1.876   3.146   3.131  0.5134  0.6170  0.6237
    7MOL   C202 2374   1.978   3.233   3.059 -1.0623  0.1321 -0.0902
    7MOL   O203 2375   1.954   3.276   2.948  0.7017 -0.4939 -0.1296
    7MOL   O204 2376   2.092   3.251   3.130 -0.0253  0.0970  0.4246
    7MOL   C205 2377   2.189   3.345   3.089 -0.1286 -0.4886  0.3519
    7MOL   C206 2378   2.330   3.290   3.122  0.2333  0.1974  0.3954
    7MOL   C207 2379   2.453   3.376   3.066 -0.3202 -0.2326  0.2211
    7MOL   H208 2380   1.699   3.134   3.021 -0.3380  0.8465  3.3290
    7MOL   H209 2381   1.837   3.040   2.953  1.0033  3.7481  0.1282
    7MOL   H210 2382   1.942   3.073   3.178 -0.7752 -0.4309  0.8391
    7MOL   H211 2383   2.192   3.357   2.980 -3.2049  3.2225  0.5546
    7MOL   H212 2384   2.176   3.444   3.133 -0.6339 -0.3597 -0.0802
    7MOL   H213 2385   2.336   3.275   3.230 -0.4384 -0.6656  0.3128
    7MOL   H214 2386   2.348   3.190   3.083  1.1791  0.5292 -0.0614
    7MOL   H215 2387   2.544   3.326   3.098 -1.8792 -1.1038  3.4926
    7MOL   H216 2388   2.454   3.481   3.093 -5.0660 -0.1569  0.4544
    7MOL   H217 2389   2.456   3.373   2.957 -0.2126  1.0016  0.1833
    7MOL   C218 2390   1.796   3.223   3.252 -0.1103 -0.4669  0.6815
    7MOL   C219 2391   1.794   3.151   3.386 -0.0924 -0.4971 -0.4884
    7MOL   C220 2392   1.918   3.092   3.433  0.2544 -0.1063 -0.1209
    7MOL   O221 2393   1.923   2.981   3.480  0.0488  0.4507  0.2551
    7MOL   O222 2394   2.025   3.180   3.425 -0.2568  0.6120 -0.6176
    7MOL   C223 2395   2.162   3.146   3.465  0.0646 -0.4571 -0.0330
    7MOL   C224 2396   2.229   3.059   3.363  0.1792 -0.5671 -0.4098
    7MOL   C225 2397   2.190   2.914   3.372  0.3544  0.3693  0.6041
    7MOL   H226 2398   1.694   3.244   3.222  0.1195  1.2044  0.9899
    7MOL   H227 2399   1.830   3.322   3.281  2.2783 -1.2358  0.6741
    7MOL   H228 2400   1.728   3.064   3.379 -2.0822  0.8444  1.2055
    7MOL   H229 2401   2.218   3.239   3.472  1.3531 -1.0469 -2.2401
    7MOL   H230 2402   2.158   3.094   3.561  0.9951 -0.6082 -0.0720
    7MOL   H231 2403   2.206   3.100   3.265 -1.1926 -0.7937 -0.1881
    7MOL   H232 2404   2.338   3.061   3.351  0.2780 -2.3253 -0.0201
    7MOL   H233 2405   2.099   2.885   3.320  1.7157  1.1360 -2.3402
    7MOL   H234 2406   2.188   2.885   3.477 -0.6664  0.0237  0.4994
    7MOL   H235 2407   2.274   2.857   3.332 -1.2803 -1.7442  0.1158
    7MOL   C236 2408   1.733   3.242   3.497  0.5097  0.5752 -0.7971
    7MOL   C237 2409   1.582   3.289   3.468 -0.1718  0.3716  0.1179
    7MOL   C238 2410   1.491   3.176   3.441  0.0609  0.2046 -0.0878
    7MOL   O239 2411   1.404   3.180   3.351 -0.3531 -0.7777 -0.1619
    7MOL   O240 2412   1.502   3.087   3.537  0.2290  0.3310 -0.0438
    7MOL   C241 2413   1.428   2.967   3.544 -0.1382 -0.5305 -0.4079
    7MOL   C242 2414   1.537   2.862   3.550 -0.6780  0.0315 -0.3750
    7MOL   C243 2415   1.627   2.880   3.673  0.3160 -0.0292  0.4964
    7MOL   H244 2416   1.786   3.336   3.514  1.2819 -0.0007  0.0470
    7MOL   H245 2417   1.745   3.198   3.596 -0.8431  1.1956 -0.3463
    7MOL   H246 2418   1.577   3.356   3.382 -0.4386  0.1855 -0.0119
    7MOL   H247 2419   1.363   2.971   3.632 -0.6559 -0.9734 -0.7700
    7MOL   H248 2420   1.360   2.948   3.461 -2.4660 -0.0149  1.3146
    7MOL   H249 2421   1.483   2.768   3.558 -1.8607  0.5098 -2.4328
    7MOL   H250 2422   1.593   2.860   3.456 -1.7980 -0.3287 -1.0453
    7MOL   H251 2423   1.674   2.978   3.666 -0.5220  0.2690 -1.1566
    7MOL   H252 2424   1.711   2.814   3.690  0.9878  0.8884  0.7928
    7MOL   H253 2425   1.573   2.876   3.768  0.2429  1.4241  0.5298
    7MOL   C254 2426   1.534   3.368   3.590  0.0921  0.1406 -0.0614
    7MOL   C255 2427   1.437   3.491   3.558  0.0263 -0.2885  0.1194
    7MOL   C256 2428   1.301   3.450   3.496 -0.0426  0.4254  0.0519
    7MOL   O257 2429   1.271   3.495   3.382 -0.2762 -0.3805 -0.3702
    7MOL   O258 2430   1.236   3.368   3.572 -0.4122 -0.1983 -0.0166
    7MOL   C259 2431   1.114   3.307   3.530  0.5922  0.5153 -0.2334
    7MOL   C260 2432   1.044   3.218   3.634 -0.0295  0.4942  0.8614
    7MOL   C261 2433   0.980   3.305   3.739  0.2117  0.2970  0.0438
    7MOL   H262 2434   1.611   3.401   3.659 -0.5547 -1.0059  1.2554
    7MOL   H263 2435   1.479   3.301   3.657 -2.8500  2.1559 -0.3633
    7MOL   H264 2436   1.489   3.554   3.486  0.1292 -0.9388 -0.3815
    7MOL   H265 2437   1.042   3.382   3.497  0.3351  0.2017 -0.3912
    7MOL   H266 2438   1.150   3.242   3.450  0.1234 -0.4351  0.3190
    7MOL   H267 2439   0.967   3.150   3.596 -0.4814  1.0324  0.7989
    7MOL   H268 2440   1.116   3.158   3.689 -0.7006  1.1717  2.5130
    7MOL   H269 2441   0.897   3.359   3.694  0.7988 -0.4505 -2.0072
    7MOL   H270 2442   1.052   3.372   3.787  1.5195 -1.0579  0.0213
    7MOL   H271 2443   0.944   3.249   3.824  0.8501  0.7203  0.5985
    7MOL   C272 2444   1.413   3.556   3.701 -0.5374 -0.0469 -1.0209
    7MOL   C273 2445   1.513   3.648   3.770 -0.6941  0.4345  0.3661
    7MOL   C274 2446   1.566   3.762   3.665  0.0429  0.5948 -0.2448
    7MOL   O275 2447   1.677   3.757   3.617  0.1376 -0.2131  0.0328
    7MOL   O276 2448   1.466   3.852   3.645 -0.1034  0.3043 -0.1179
    7MOL   C277 2449   1.476   3.947   3.550 -0.3158 -0.5793 -0.5156
    7MOL   C278 2450   1.336   4.003   3.514  0.6020  0.5442  0.3606
    7MOL   C279 2451   1.245   3.888   3.458  0.5583  0.0829 -0.5485
    7MOL   H280 2452   1.397   3.471   3.767  1.5858 -0.3785 -0.9012
    7MOL   H281 2453   1.320   3.613   3.699  0.5516  1.8247  0.4796
    7MOL   H282 2454   1.602   3.594   3.804 -0.3024  0.5885 -0.4221
    7MOL   H283 2455   1.530   4.030   3.596  1.3009 -1.9582  0.1034
    7MOL   H284 2456   1.531   3.925   3.459 -0.0580  1.1750 -0.8118
    7MOL   H285 2457   1.290   4.057   3.596  0.7417  0.5997  0.4026
    7MOL   H286 2458   1.347   4.078   3.435 -0.4531 -0.5367 -0.8564
    7MOL   H287 2459   1.140   3.917   3.467  0.4235 -0.1976 -1.1631
    7MOL   H288 2460   1.260   3.794   3.511 -1.6579 -1.4493 -2.5637
    7MOL   H289 2461   1.267   3.857   3.356  1.9209  2.2341 -0.9268
    7MOL   C290 2462   1.461   3.717   3.908  0.0243 -0.0173  0.6453
    7MOL   C291 2463   1.568   3.802   3.977  0.1357  0.3757  0.5641
    7MOL   C292 2464   1.486   3.897   4.066 -0.3006 -0.1519 -0.1344
    7MOL   O293 2465   1.448   3.881   4.183  0.4293  0.0782  0.0884
    7MOL   O294 2466   1.448   4.006   3.990  0.2396  0.0096  0.0989
    7MOL   C295 2467   1.348   4.097   4.036  0.4397 -0.4085 -0.3173
    7MOL   C296 2468   1.276   4.149   3.915  0.1352 -0.3017 -1.1077
    7MOL   C297 2469   1.170   4.057   3.864  0.1079  0.4215 -0.6693
    7MOL   H298 2470   1.422   3.639   3.974 -2.5072  0.6926  0.0232
    7MOL   H299 2471   1.368   3.770   3.889  0.0402  0.5961  2.2093
    7MOL   H300 2472   1.621   3.857   3.900 -0.9460  0.1505 -0.3501
    7MOL   H301 2473   1.278   4.059   4.111  1.9129 -0.0062  1.2916
    7MOL   H302 2474   1.401   4.173   4.093  1.5018  0.0629 -1.9211
    7MOL   H303 2475   1.231   4.246   3.935  0.1320 -0.3806 -0.7251
    7MOL   H304 2476   1.348   4.167   3.835 -0.8540  2.2414 -1.4438
    7MOL   H305 2477   1.092   4.034   3.936  1.6363  0.4484  1.0453
    7MOL   H306 2478   1.217   3.968   3.823  0.1051  1.1812 -2.3884
    7MOL   H307 2479   1.131   4.111   3.778  3.3314  1.4204 -1.5752
    7MOL   C308 2480   1.662   3.713   4.066  0.0869  0.1096  0.2542
    7MOL   C309 2481   1.799   3.774   4.100 -0.3336 -0.1208 -0.9581
    7MOL   C310 2482   1.879   3.799   3.969  0.5356  0.7257 -0.2754
    7MOL   O311 2483   1.897   3.915   3.931  0.4311 -0.1796 -0.3152
    7MOL   O312 2484   1.923   3.686   3.908 -0.2986 -0.3559  0.3318
    7MOL   C313 2485   1.978   3.677   3.775 -0.4854 -0.3156  0.9556
    7MOL   C314 2486   1.930   3.553   3.699  0.3335 -0.1738 -0.6780
    7MOL   C315 2487   1.995   3.427   3.747  0.3362 -0.1789 -0.4052
    7MOL   H316 2488   1.695   3.631   4.003  1.8045 -1.1658  2.7027
    7MOL   H317 2489   1.620   3.668   4.156  1.0668 -0.4772  0.4282
    7MOL   H318 2490   1.850   3.691   4.148 -0.5129  0.9472  1.1559
    7MOL   H319 2491   1.973   3.767   3.715  1.0005 -2.8284 -3.1636
    7MOL   H320 2492   2.085   3.670   3.796 -0.0586 -1.1197 -1.3526
    7MOL   H321 2493   1.823   3.552   3.720  0.0729 -1.3644 -2.0167
    7MOL   H322 2494   1.933   3.574   3.592 -0.6191  0.2929 -0.6161
    7MOL   H323 2495   1.965   3.350   3.677  0.8274  0.0639 -0.8901
    7MOL   H324 2496   2.103   3.438   3.737  0.2931 -1.5047 -2.7887
    7MOL   H325 2497   1.977   3.409   3.853 -0.1763  0.2774 -0.4112
    7MOL   C326 2498   1.787   3.876   4.212 -0.4920 -0.6679 -0.3933
    7MOL   C327 2499   1.926   3.941   4.253  0.6085 -0.1208 -0.2154
    7MOL   C328 2500   1.903   4.078   4.316 -0.1078  0.2071  0.2176
    7MOL   O329 2501   1.868   4.093   4.429  0.3172 -0.2887 -0.0946
    7MOL   O330 2502   1.938   4.183   4.237  0.6054 -0.2664 -0.1803
    7MOL   C331 2503   1.909   4.318   4.278 -0.3618 -0.2273  0.1025
    7MOL   C332 2504   2.048   4.392   4.316  0.1105 -0.3939  0.6074
    7MOL   C333 2505   2.164   4.355   4.226 -0.2732  0.4238  0.2553
    7MOL   H334 2506   1.727   3.847   4.298  0.3610 -2.1008 -0.2657
    7MOL   H335 2507   1.741   3.966   4.170  0.5756 -0.0659 -0.3207
    7MOL   H336 2508   1.977   3.974   4.162  0.2613 -1.7591 -1.0302
    7MOL   H337 2509   1.863   4.367   4.192 -1.0919 -1.9112 -0.4787
    7MOL   H338 2510   1.844   4.328   4.365  0.2683 -2.1151  0.8040
    7MOL   H339 2511   2.034   4.500   4.315  1.5793 -0.1891 -0.5859
    7MOL   H340 2512   2.076   4.359   4.416  0.1814  0.4342  0.8604
    7MOL   H341 2513   2.183   4.247   4.227  1.4598  0.7329  2.3823
    7MOL   H342 2514   2.149   4.388   4.123 -1.1952  0.2250  0.3223
    7MOL   H343 2515   2.245   4.411   4.272  1.5111 -1.5308 -0.3849
    7MOL   C344 2516   2.018   3.852   4.336  0.3970 -0.1046  0.2513
    7MOL   C345 2517   2.164   3.900   4.336  0.1032  0.4453  0.2426
    7MOL   C346 2518   2.249   3.879   4.209 -0.7132  0.9081 -0.1432
    7MOL   O347 2519   2.227   3.789   4.127 -0.1161 -0.0443 -0.5341
    7MOL   O348 2520   2.322   3.983   4.188  0.0898 -0.8253  0.1084
    7MOL   C349 2521   2.390   4.004   4.064 -0.1208  0.2774 -0.1775
    7MOL   C350 2522   2.332   4.125   3.986  0.1329 -0.0280  0.0689
    7MOL   C351 2523   2.200   4.093   3.908  0.3998 -0.1245  0.3615
    7MOL   H352 2524   2.028   3.749   4.303  0.2917 -0.3145  0.8667
    7MOL   H353 2525   1.973   3.834   4.434  1.2140  0.2779  0.7032
    7MOL   H354 2526   2.228   3.859   4.414  0.4051 -2.5102 -1.4841
    7MOL   H355 2527   2.497   4.019   4.081  0.6559 -5.3235  0.8675
    7MOL   H356 2528   2.379   3.913   4.006  1.5163 -1.0262  1.4828
    7MOL   H357 2529   2.306   4.212   4.046  0.2729  1.2237 -1.6361
    7MOL   H358 2530   2.414   4.149   3.918  1.3810  1.0772  1.9127
    7MOL   H359 2531   2.114   4.065   3.969  0.1056  0.4643  0.2261
    7MOL   H360 2532   2.165   4.182   3.854 -1.0146  0.2136  1.7904
    7MOL   H361 2533   2.212   4.012   3.836 -2.3662  1.0157 -1.4826
    7MOL   H362 2534   2.153   4.003   4.369 -2.5339 -0.3723  2.1257
    8MOL     C1 2535   2.889   0.794   7.739 -0.0329  0.4488 -0.1568
    8MOL     C2 2536   2.786   0.857   7.634 -0.2806  0.3173 -0.0995
    8MOL     C3 2537   2.834   0.843   7.490  0.1863  0.0871  0.4990
    8MOL     O4 2538   2.766   0.796   7.401 -0.2635 -0.0339 -0.6045
    8MOL     O5 2539   2.962   0.885   7.476  0.2550 -0.2151  0.4498
    8MOL     C6 2540   3.025   0.863   7.356  0.0120 -0.0235  0.2239
    8MOL     C7 2541   3.124   0.738   7.360 -0.4107 -0.2895 -0.2514
    8MOL     C8 2542   3.189   0.746   7.226 -0.6796  0.2736 -0.1691
    8MOL     H9 2543   2.910   0.691   7.710  2.7101  1.2887 -1.4422
    8MOL    H10 2544   2.985   0.846   7.731  0.9321 -1.1819  0.5925
    8MOL    H11 2545   2.788   0.963   7.660 -2.8236  0.1472  0.9152
    8MOL    H12 2546   2.948   0.873   7.280 -0.3153  0.7210  0.6494
    8MOL    H13 2547   3.095   0.946   7.346 -1.0578  1.0987  1.9028
    8MOL    H14 2548   3.195   0.757   7.441 -1.6469 -1.4621  1.1470
    8MOL    H15 2549   3.072   0.645   7.383 -0.1930 -0.6820 -1.2987
    8MOL    H16 2550   3.227   0.846   7.203 -1.8591  1.0678  1.2063
    8MOL    H17 2551   3.267   0.670   7.224  0.5027  1.4409  0.6379
    8MOL    H18 2552   3.114   0.711   7.155 -1.2706 -1.6898  1.3912
    8MOL    H19 2553   2.854   0.808   7.841  0.9000 -0.1664  0.2504
    8MOL    C20 2554   2.644   0.815   7.657  1.4600  0.2622 -0.0242
    8MOL    C21 2555   2.573   0.857   7.786  0.1712 -0.3138 -0.7532
    8MOL    C22 2556   2.597   1.000   7.819  0.7650  0.6985  1.1302
    8MOL    O23 2557   2.670   1.033   0.037 -0.4940  0.8220 -0.2058
    8MOL    O24 2558   2.557   1.087   7.725  0.0221  0.5681 -0.2204
    8MOL    C25 2559   2.559   1.224   7.759  0.5054 -0.3938  0.2267
    8MOL    C26 2560   2.516   1.324   7.656 -0.2356  0.2616  0.8118
    8MOL    C27 2561   2.521   1.467   7.714 -0.4695 -0.3713  0.2519
    8MOL    H28 2562   2.640   0.708   7.634 -1.7666  0.6671 -1.6885
    8MOL    H29 2563   2.594   0.861   7.572 -0.3282 -1.5262  0.0254
    8MOL    H30 2564   2.622   0.804   7.867  0.3122  1.3371  0.2689
    8MOL    H31 2565   2.505   1.247   7.851 -0.9926 -0.2951 -0.6631
    8MOL    H32 2566   2.664   1.245   7.782  0.5770 -2.4782  1.9247
    8MOL    H33 2567   2.583   1.318   7.570 -2.1960  1.8144 -0.8619
    8MOL    H34 2568   2.417   1.300   7.619 -0.2982  0.0159  1.1335
    8MOL    H35 2569   2.470   1.544   7.656  0.8277 -0.5408 -1.1157
    8MOL    H36 2570   2.621   1.497   7.743 -0.6278 -0.1522  0.5773
    8MOL    H37 2571   2.478   1.460   7.815  1.5234  1.2809  1.2608
    8MOL    C38 2572   2.426   0.806   7.811 -0.2797 -0.1110  0.0317
    8MOL    C39 2573   2.390   0.778   0.075  0.1332  0.1624 -0.1892
    8MOL    C40 2574   2.233   0.784   0.087 -0.0933  0.0279  0.4206
    8MOL    O41 2575   2.174   0.852   0.170  0.1605 -0.8502 -0.6372
    8MOL    O42 2576   2.174   0.690   0.008 -0.4760 -0.5660 -0.4720
    8MOL    C43 2577   2.034   0.677   0.008  0.1481 -0.0090  0.2718
    8MOL    C44 2578   1.981   0.683   7.747 -0.7795 -0.7805 -0.0568
    8MOL    C45 2579   2.003   0.821   7.693  0.4186  0.1462  0.2045
    8MOL    H46 2580   2.409   0.721   7.745 -1.5942 -0.2803  0.5780
    8MOL    H47 2581   2.353   0.880   7.779 -0.6650 -0.1919  0.7060
    8MOL    H48 2582   2.432   0.861   0.133 -1.6496  1.1013 -0.1922
    8MOL    H49 2583   2.009   0.583   0.057  2.8235 -1.1619 -0.4840
    8MOL    H50 2584   1.977   0.751   0.063 -2.0113 -0.9231 -0.6765
    8MOL    H51 2585   2.031   0.603   7.692  3.0622  1.7871 -0.4835
    8MOL    H52 2586   1.876   0.652   7.741 -0.6968 -1.4813  1.9414
    8MOL    H53 2587   1.959   0.898   7.757 -0.1626  0.7805 -0.9398
    8MOL    H54 2588   1.955   0.836   7.596 -0.1881  2.1191  0.7985
    8MOL    H55 2589   2.108   0.837   7.666 -0.3411  0.0640 -3.0238
    8MOL    C56 2590   2.443   0.638   0.136 -0.4958 -0.0575  0.4240
    8MOL    C57 2591   2.396   0.622   0.282 -0.7705  0.6570 -0.1729
    8MOL    C58 2592   2.315   0.493   0.302  0.2018  0.3327  0.6433
    8MOL    O59 2593   2.196   0.503   0.336 -0.4409  0.4018 -0.1033
    8MOL    O60 2594   2.388   0.382   0.281 -0.5910 -0.0740  0.4377
    8MOL    C61 2595   2.326   0.258   0.302 -0.1318  0.5297 -0.4143
    8MOL    C62 2596   2.326   0.216   0.456 -1.3003 -0.5316 -0.3661
    8MOL    C63 2597   2.472   0.197   0.503  0.0927  0.1836 -0.6065
    8MOL    H64 2598   2.551   0.625   0.137 -0.5158 -0.1382  1.7231
    8MOL    H65 2599   2.403   0.559   0.073 -1.2945 -0.2972  1.2294
    8MOL    H66 2600   2.331   0.706   0.307 -2.3252 -1.1089  2.0483
    8MOL    H67 2601   2.224   0.251   0.264 -0.6106  1.4140  0.6819
    8MOL    H68 2602   2.381   0.181   0.247 -0.4795 -2.3010  3.0472
    8MOL    H69 2603   2.263   0.283   0.514 -2.6308  0.3034 -2.7156
    8MOL    H70 2604   2.277   0.123   0.484 -0.2428 -1.0269 -0.1089
    8MOL    H71 2605   2.531   0.127   0.445 -2.5151 -2.6853  0.0245
    8MOL    H72 2606   2.470   0.157   0.605 -1.6989 -0.0630 -0.7063
    8MOL    H73 2607   2.516   0.294   0.522  1.1268  0.2944 -3.3993
    8MOL    C74 2608   2.520   0.615   0.376  0.1534  0.0529  0.0719
    8MOL    C75 2609   2.604   0.741   0.394  0.7771  0.3208  0.1868
    8MOL    C76 2610   2.520   0.857   0.437 -0.3059 -0.3561  0.0822
    8MOL    O77 2611   2.511   0.886   0.558  0.0505 -0.2450 -0.0955
    8MOL    O78 2612   2.473   0.931   0.335  0.4697 -0.6287 -0.1317
    8MOL    C79 2613   2.402   1.046   0.369  0.0628  0.0730  0.1800
    8MOL    C80 2614   2.412   1.158   0.258 -0.4716 -0.7760 -0.3255
    8MOL    C81 2615   2.543   1.238   0.273  0.4319  0.2348  0.1038
    8MOL    H82 2616   2.580   0.535   0.334 -0.8820 -0.7948  0.1810
    8MOL    H83 2617   2.503   0.574   0.476  0.2983 -0.0460  0.0553
    8MOL    H84 2618   2.635   0.778   0.297  0.6024  0.9724  0.3788
    8MOL    H85 2619   2.297   1.038   0.395 -0.3000  2.0085 -0.5849
    8MOL    H86 2620   2.449   1.099   0.452  1.2305 -0.2115 -0.2869
    8MOL    H87 2621   2.390   1.119   0.158  4.1872  2.5861 -2.8780
    8MOL    H88 2622   2.332   1.230   0.278 -0.0550 -0.5618  0.6160
    8MOL    H89 2623   2.558   1.296   0.363 -1.8168  0.6050  0.2704
    8MOL    H90 2624   2.544   1.317   0.198  2.1358 -1.6605 -1.9846
    8MOL    H91 2625   2.631   1.174   0.274 -0.4017 -0.9397  0.7858
    8MOL    C92 2626   2.734   0.727   0.478 -0.5142 -0.2188  0.1782
    8MOL    C93 2627   2.858   0.723   0.385 -0.3128 -0.1014  0.4953
    8MOL    C94 2628   2.865   0.584   0.326  0.0963 -0.6078  1.3586
    8MOL    O95 2629   2.825   0.554   0.218  0.5901  0.3037 -0.2190
    8MOL    O96 2630   2.927   0.500   0.409  0.1932  0.9174  0.1575
    8MOL    C97 2631   2.927   0.360   0.391  0.1162  0.6404  0.1247
    8MOL    C98 2632   2.820   0.301   0.474  0.7681 -0.4726 -0.0330
    8MOL    C99 2633   2.849   0.315   0.624 -0.1761 -0.2266 -0.6745
    8MOL   H100 2634   2.738   0.636   0.538 -0.9311  0.0516  0.6166
    8MOL   H101 2635   2.741   0.816   0.539 -0.1638 -0.5163  0.5783
    8MOL   H102 2636   2.941   0.727   0.456 -3.5450 -0.2366  4.5166
    8MOL   H103 2637   2.911   0.331   0.287  1.4746  1.3060 -0.2828
    8MOL   H104 2638   3.028   0.322   0.403  0.4604  1.9774  1.6621
    8MOL   H105 2639   2.717   0.336   0.465  1.2835  1.0097 -0.1609
    8MOL   H106 2640   2.816   0.193   0.457 -0.6116 -0.3462 -0.5870
    8MOL   H107 2641   2.811   0.243   0.695  1.3252  0.3660  0.7811
    8MOL   H108 2642   2.818   0.413   0.660 -1.1614 -1.3293  1.5824
    8MOL   H109 2643   2.954   0.290   0.637 -1.6164 -5.1414  2.5057
    8MOL   C110 2644   2.880   0.837   0.284  0.5061  0.6474 -0.5221
    8MOL   C111 2645   3.027   0.874   0.243  0.5530 -0.2705  0.2097
    8MOL   C112 2646   3.111   0.906   0.365  0.1129 -0.1646  0.2254
    8MOL   O113 2647   3.221   0.854   0.385 -0.1978  0.3813  0.1532
    8MOL   O114 2648   3.050   1.003   0.442  0.3875 -0.1340 -0.4832
    8MOL   C115 2649   3.123   1.070   0.537  0.3421  0.5756  0.1719
    8MOL   C116 2650   3.013   1.139   0.616  0.6937 -0.6071 -0.1615
    8MOL   C117 2651   2.950   1.041   0.718  0.0977  0.5328 -0.9538
    8MOL   H118 2652   2.839   0.923   0.337 -0.4975  0.2331 -0.6115
    8MOL   H119 2653   2.812   0.834   0.199 -0.0381  0.9410 -0.1009
    8MOL   H120 2654   3.028   0.956   0.171  0.5486 -1.3061 -0.9780
    8MOL   H121 2655   3.178   1.005   0.606 -0.2127 -0.5475 -0.4269
    8MOL   H122 2656   3.198   1.143   0.505  0.8321  0.6925  1.5601
    8MOL   H123 2657   3.059   1.224   0.666 -0.5421  0.0286 -0.0620
    8MOL   H124 2658   2.950   1.203   0.553  2.3103  1.1866 -0.0085
    8MOL   H125 2659   2.884   1.102   0.781 -0.8431  1.1333 -2.4915
    8MOL   H126 2660   3.040   1.003   0.766 -1.1243 -0.8642  0.2753
    8MOL   H127 2661   2.910   0.963   0.654  0.4666  1.7211 -2.6480
    8MOL   C128 2662   3.097   0.771   0.149 -0.8163  0.0188 -0.0056
    8MOL   C129 2663   3.241   0.802   0.099  0.1471  0.7486  0.6093
    8MOL   C130 2664   3.307   0.667   0.060 -0.2374  0.1016  0.2037
    8MOL   O131 2665   3.426   0.650   0.087 -0.0043 -0.0013 -0.3700
    8MOL   O132 2666   3.224   0.590   7.877 -0.4330  0.2680 -0.3023
    8MOL   C133 2667   3.264   0.462   7.840 -0.2514  0.8761  0.1272
    8MOL   C134 2668   3.156   0.392   7.757 -0.1270 -0.2735  0.6538
    8MOL   C135 2669   3.018   0.371   7.821 -0.5341  0.1343 -0.9035
    8MOL   H136 2670   3.029   0.763   0.064  0.1837 -2.0243 -0.6467
    8MOL   H137 2671   3.090   0.672   0.194 -0.6498 -0.1513 -0.3486
    8MOL   H138 2672   3.302   0.828   0.185  1.4781 -2.7697  0.8281
    8MOL   H139 2673   3.356   0.479   7.784  1.4263  1.0824  2.8717
    8MOL   H140 2674   3.290   0.403   0.048  1.5659  1.9434  0.3196
    8MOL   H141 2675   3.148   0.448   7.664  0.3860 -1.5511 -0.1815
    8MOL   H142 2676   3.184   0.289   7.732  0.5807  0.4538 -1.7049
    8MOL   H143 2677   3.025   0.348   0.047 -0.4005  2.3156 -0.4141
    8MOL   H144 2678   2.959   0.295   7.769 -0.7991  0.0888 -0.5356
    8MOL   H145 2679   2.955   0.460   7.820  0.2447  0.7179  0.7194
    8MOL   C146 2680   3.257   0.918   7.869  0.5525 -0.2651  0.3281
    8MOL   C147 2681   3.409   0.947   7.845 -0.2271  0.2191 -0.4596
    8MOL   C148 2682   3.461   0.864   7.727 -0.1577 -0.6139  0.6987
    8MOL   O149 2683   3.391   0.786   7.667  0.5870 -0.3392 -0.3856
    8MOL   O150 2684   3.587   0.898   7.709 -0.5542 -0.4348  0.4777
    8MOL   C151 2685   3.670   0.824   7.623  0.0249 -0.0920 -0.2411
    8MOL   C152 2686   3.810   0.887   7.615  0.3255  0.3508  0.3049
    8MOL   C153 2687   3.879   0.889   7.755 -0.1462  0.3346 -0.2036
    8MOL   H154 2688   3.199   1.003   0.024 -1.0780 -0.3234 -2.0997
    8MOL   H155 2689   3.208   0.881   7.778  1.1097 -0.4532  0.1033
    8MOL   H156 2690   3.460   0.915   0.055 -0.0116  0.2457 -0.5721
    8MOL   H157 2691   3.674   0.724   7.667 -1.0194  0.3943  1.0162
    8MOL   H158 2692   3.627   0.831   7.524  0.5143 -1.4578 -0.5606
    8MOL   H159 2693   3.877   0.832   7.549  0.1664  1.0996 -0.4939
    8MOL   H160 2694   3.795   0.992   7.590 -0.4436  0.4812  1.2609
    8MOL   H161 2695   3.818   0.943   7.827 -0.8465  0.3654 -0.8232
    8MOL   H162 2696   3.974   0.942   7.750  0.8687 -1.6489 -3.0951
    8MOL   H163 2697   3.903   0.790   7.794 -1.2188 -0.2506 -1.0082
    8MOL   C164 2698   3.434   1.099   7.817  0.1442  0.0239  0.1460
    8MOL   C165 2699   3.376   1.199   0.030 -0.1374  0.3020 -0.5383
    8MOL   C166 2700   3.404   1.160   0.178  0.1903 -0.3404  0.0878
    8MOL   O167 2701   3.304   1.136   0.247 -0.1369  0.3850 -0.3152
    8MOL   O168 2702   3.529   1.160   0.224  0.0717 -0.2538 -1.0704
    8MOL   C169 2703   3.563   1.128   0.359 -0.5401  0.6181 -0.1348
    8MOL   C170 2704   3.563   1.253   0.451 -0.0621 -0.8158  0.6989
    8MOL   C171 2705   3.624   1.224   0.591  0.1016  0.0133  0.6092
    8MOL   H172 2706   3.385   1.118   7.721  2.0503 -1.2679 -1.1044
    8MOL   H173 2707   3.538   1.126   7.804  0.5330 -0.8566  1.3145
    8MOL   H174 2708   3.271   1.199   0.001  0.0285  0.1418 -1.1356
    8MOL   H175 2709   3.499   1.045   0.391 -1.7523  1.1303 -1.1719
    8MOL   H176 2710   3.662   1.083   0.351 -0.1427  1.3191  0.7311
    8MOL   H177 2711   3.629   1.332   0.415  0.9513 -1.1520  1.7799
    8MOL   H178 2712   3.462   1.294   0.458  1.2671  2.4215  1.8749
    8MOL   H179 2713   3.611   1.312   0.655  1.6094  0.5589  0.1960
    8MOL   H180 2714   3.730   1.202   0.580 -0.2477 -1.2210 -0.2830
    8MOL   H181 2715   3.575   1.140   0.640  1.3192 -0.8536  0.3615
    8MOL   C182 2716   3.421   1.345   7.876 -0.2968  0.3090  0.2815
    8MOL   C183 2717   3.359   1.464   0.080 -0.2155  0.6049  0.0562
    8MOL   C184 2718   3.462   1.537   0.161  0.1311 -0.0928  0.0568
    8MOL   O185 2719   3.472   1.529   0.286  0.1800  0.2695 -0.3954
    8MOL   O186 2720   3.548   1.607   0.086  0.2456 -0.1336 -0.1971
    8MOL   C187 2721   3.678   1.644   0.137 -0.2713  0.0144  0.0792
    8MOL   C188 2722   3.671   1.779   0.216 -0.1287  0.0486 -0.0219
    8MOL   C189 2723   3.631   1.899   0.119 -0.4926 -0.3225 -0.2580
    8MOL   H190 2724   3.417   1.367   7.769  0.8030 -0.7976  0.0064
    8MOL   H191 2725   3.529   1.343   0.011 -0.2737 -1.3802 -0.0312
    8MOL   H192 2726   3.280   1.436   0.151 -0.4256  4.6294  1.5418
    8MOL   H193 2727   3.726   1.564   0.193 -0.1736  0.3743  0.5136
    8MOL   H194 2728   3.738   1.663   0.049 -0.9333  0.3474 -0.3076
    8MOL   H195 2729   3.607   1.778   0.304 -0.1510  0.4961 -0.0323
    8MOL   H196 2730   3.760   1.811   0.269  0.2152 -0.1867 -0.4553
    8MOL   H197 2731   3.538   1.874   0.067 -0.5304 -1.1046  0.1867
    8MOL   H198 2732   3.720   1.908   0.056  1.6188 -1.2072  2.5470
    8MOL   H199 2733   3.631   1.993   0.174 -0.9987 -0.4969  0.0420
    8MOL   C200 2734   3.279   1.555   7.860  0.0867  0.3421 -0.0957
    8MOL   C201 2735   3.174   1.651   0.031 -0.2640 -0.9441 -0.3035
    8MOL   C202 2736   3.037   1.592   0.086 -0.0026 -0.6004  0.4893
    8MOL   O203 2737   2.934   1.643   0.051  0.3457 -0.0639  0.2607
    8MOL   O204 2738   3.055   1.483   0.157 -0.2844 -0.3088  0.4301
    8MOL   C205 2739   2.957   1.437   0.245 -0.6048 -0.0784 -0.0522
    8MOL   C206 2740   2.941   1.283   0.227  0.2195 -0.4034 -0.0585
    8MOL   C207 2741   2.893   1.235   0.087  0.3904  0.3971  0.2747
    8MOL   H208 2742   3.235   1.489   7.786  0.7753  0.8052 -0.9181
    8MOL   H209 2743   3.355   1.599   7.796  1.8686 -2.7214 -0.1694
    8MOL   H210 2744   3.143   1.713   7.828  1.9618  0.5664 -0.0621
    8MOL   H211 2745   2.981   1.467   0.347  1.2428 -3.5281  0.5992
    8MOL   H212 2746   2.860   1.485   0.230  0.6466  1.7425 -2.6186
    8MOL   H213 2747   3.027   1.228   0.265  0.3942  0.6133  1.0435
    8MOL   H214 2748   2.866   1.263   0.303  1.8904  2.5386  2.4501
    8MOL   H215 2749   2.963   1.262   0.007  1.8372 -0.2489  1.3054
    8MOL   H216 2750   2.799   1.282   0.060 -0.0025 -0.7827 -0.4630
    8MOL   H217 2751   2.890   1.126   0.085 -0.4803  0.4320 -1.5427
    8MOL   C218 2752   3.239   1.755   0.130  0.2601  0.2387  0.5021
    8MOL   C219 2753   3.161   1.887   0.157 -0.5868  0.9664 -0.1157
    8MOL   C220 2754   3.244   1.952   0.274 -1.0314 -0.8948 -0.5990
    8MOL   O221 2755   3.214   1.929   0.392 -0.6841 -0.2668 -0.1375
    8MOL   O222 2756   3.347   2.031   0.232 -0.4580  0.3847  0.4635
    8MOL   C223 2757   3.413   2.120   0.317  0.4174 -0.0175  0.1588
    8MOL   C224 2758   3.369   2.261   0.277 -0.1462 -0.0003  0.0982
    8MOL   C225 2759   3.251   2.318   0.362 -0.6362  0.0688 -0.5335
    8MOL   H226 2760   3.340   1.780   0.097  0.5504 -0.6265  0.7055
    8MOL   H227 2761   3.238   1.706   0.227  0.3942 -0.7212  0.0287
    8MOL   H228 2762   3.069   1.856   0.207  0.2428 -0.3474  0.6198
    8MOL   H229 2763   3.410   2.104   0.425  0.4966  0.0586  0.1723
    8MOL   H230 2764   3.521   2.117   0.303  0.2574 -3.4581 -0.7106
    8MOL   H231 2765   3.453   2.327   0.301  1.0256 -1.7381  0.9257
    8MOL   H232 2766   3.344   2.268   0.171 -2.1949  2.0643  0.6867
    8MOL   H233 2767   3.156   2.294   0.313 -1.9089 -0.7871  2.2249
    8MOL   H234 2768   3.267   2.426   0.364  0.5773 -0.1359  1.0912
    8MOL   H235 2769   3.247   2.293   0.468 -0.2142  0.7916 -0.3431
    8MOL   C236 2770   3.127   1.980   0.039  0.1061 -0.6913 -0.0616
    8MOL   C237 2771   3.041   2.099   0.073  0.2271 -0.1429  0.6829
    8MOL   C238 2772   3.065   2.230   0.003 -0.0912 -0.2204  0.3564
    8MOL   O239 2773   3.109   2.233   7.767  0.4170 -0.0367 -0.4803
    8MOL   O240 2774   2.997   2.337   0.063  0.2403 -0.1186  0.2204
    8MOL   C241 2775   2.994   2.465   7.876  0.5516  0.3204  0.2702
    8MOL   C242 2776   2.851   2.531   0.006 -0.4191 -0.1131 -0.0954
    8MOL   C243 2777   2.817   2.565   0.153  0.2655 -0.3802 -0.4984
    8MOL   H244 2778   3.057   1.933   7.851 -1.2753  0.5805  0.4321
    8MOL   H245 2779   3.210   2.009   7.855 -0.5385  1.3887 -0.0173
    8MOL   H246 2780   3.062   2.129   0.175 -1.5502  1.5311  0.5680
    8MOL   H247 2781   3.058   2.535   0.051 -0.3220 -0.9826  3.0048
    8MOL   H248 2782   3.010   2.440   7.771  2.1789  0.8065  0.3796
    8MOL   H249 2783   2.843   2.619   7.823 -2.4882 -0.0108  0.2552
    8MOL   H250 2784   2.779   2.460   7.845 -0.3239 -1.2516  1.6630
    8MOL   H251 2785   2.857   2.657   0.194  0.6274 -1.1954  1.0052
    8MOL   H252 2786   2.849   2.489   0.224 -1.5367 -1.4789 -0.8420
    8MOL   H253 2787   2.709   2.560   0.166  0.1768 -0.5965 -1.2751
    8MOL   C254 2788   2.890   2.066   0.072 -0.4407 -0.5386 -0.9739
    8MOL   C255 2789   2.822   2.054   7.819  0.1233  0.1622  0.3064
    8MOL   C256 2790   2.728   1.929   7.831  0.0559  0.1697  1.1339
    8MOL   O257 2791   2.724   1.836   7.741  0.0824 -0.1931  0.3530
    8MOL   O258 2792   2.638   1.934   0.055 -0.2720 -0.2438  0.1143
    8MOL   C259 2793   2.537   1.838   0.067 -0.6758  0.7359 -0.2837
    8MOL   C260 2794   2.536   1.788   0.215 -0.5693 -0.1542  0.3186
    8MOL   C261 2795   2.672   1.726   0.263  0.2891  0.4892 -0.4235
    8MOL   H262 2796   2.836   2.143   0.127  0.8563  0.3562 -0.9616
    8MOL   H263 2797   2.886   1.980   0.140  1.4797  1.4415  1.7136
    8MOL   H264 2798   2.898   2.042   7.742 -0.5921 -1.5331 -0.1572
    8MOL   H265 2799   2.444   1.891   0.044  0.7272  3.2235 -0.4307
    8MOL   H266 2800   2.525   1.750   0.004  0.7415  1.3340 -1.4180
    8MOL   H267 2801   2.501   1.865   0.284  0.2171 -0.1345  0.7021
    8MOL   H268 2802   2.456   1.714   0.227 -1.6663  0.6867 -1.6271
    8MOL   H269 2803   2.720   1.659   0.192 -1.1065 -0.8508 -0.1264
    8MOL   H270 2804   2.662   1.667   0.354  1.3617  0.9904  0.0211
    8MOL   H271 2805   2.748   1.804   0.273  1.7475 -0.8343 -1.0051
    8MOL   C272 2806   2.744   2.180   7.773  0.1655  0.4346  0.3267
    8MOL   C273 2807   2.735   2.196   7.620  0.2052  0.3979  0.2039
    8MOL   C274 2808   2.652   2.085   7.556 -1.3964  0.3597  0.3122
    8MOL   O275 2809   2.700   2.022   7.464 -0.4259 -0.4055  0.4083
    8MOL   O276 2810   2.523   2.060   7.608 -0.0079 -0.0877 -0.2214
    8MOL   C277 2811   2.446   1.950   7.564  0.0545 -0.7328  0.4349
    8MOL   C278 2812   2.299   1.976   7.611 -0.0595 -0.7896 -0.4571
    8MOL   C279 2813   2.231   2.091   7.530  0.5183 -0.4455  0.5547
    8MOL   H280 2814   2.796   2.268   7.811  1.8833  0.5965 -2.2733
    8MOL   H281 2815   2.646   2.184   7.821 -0.0131 -1.1735  0.1213
    8MOL   H282 2816   2.836   2.186   7.581  0.0265  1.1711 -0.4651
    8MOL   H283 2817   2.454   1.930   7.457  0.7920  0.4695  0.2486
    8MOL   H284 2818   2.477   1.860   7.617  1.4867 -0.5754 -0.1177
    8MOL   H285 2819   2.252   1.881   7.587  1.0468 -1.6061  0.5284
    8MOL   H286 2820   2.308   1.993   7.718 -1.8803 -0.3899 -0.3613
    8MOL   H287 2821   2.293   2.179   7.550 -2.9334  1.8579  1.7924
    8MOL   H288 2822   2.128   2.106   7.562  0.2078  2.9785 -1.7881
    8MOL   H289 2823   2.217   2.079   7.423 -1.6758 -0.7029  0.8513
    8MOL   C290 2824   2.684   2.338   7.580  0.5287 -0.6813  0.1977
    8MOL   C291 2825   2.755   2.408   7.467  0.4131  0.7294  0.0435
    8MOL   C292 2826   2.772   2.333   7.334  0.0025  0.1779  0.7026
    8MOL   O293 2827   2.886   2.316   7.291 -0.2794  0.0427  0.0163
    8MOL   O294 2828   2.660   2.294   7.271  0.7695 -0.2015 -0.1508
    8MOL   C295 2829   2.659   2.254   7.137  0.4744  0.1585 -0.8611
    8MOL   C296 2830   2.597   2.109   7.134 -0.0052  0.0919 -0.2386
    8MOL   C297 2831   2.600   2.045   6.999  0.2448 -0.0714 -0.7204
    8MOL   H298 2832   2.682   2.401   7.669 -2.5815 -0.6236  0.1568
    8MOL   H299 2833   2.577   2.338   7.559  0.3132  0.9660  1.1668
    8MOL   H300 2834   2.858   2.419   7.500  0.1920 -0.0197  1.0284
    8MOL   H301 2835   2.580   2.307   7.083 -0.6945  0.1772  0.8278
    8MOL   H302 2836   2.757   2.272   7.094  1.5833  0.4095  1.7342
    8MOL   H303 2837   2.658   2.046   7.200  0.1319 -0.0929 -0.5412
    8MOL   H304 2838   2.499   2.107   7.182  0.9539 -3.9793  1.8023
    8MOL   H305 2839   2.576   1.938   6.998 -2.8492  0.5941 -1.2820
    8MOL   H306 2840   2.702   2.054   6.962  0.3752 -0.0248 -0.3526
    8MOL   H307 2841   2.536   2.098   6.929  0.9569 -0.5929 -1.7823
    8MOL   C308 2842   2.705   2.555   7.442  0.0346 -0.3425  0.2017
    8MOL   C309 2843   2.799   2.649   7.365 -0.1544  0.0025 -0.2718
    8MOL   C310 2844   2.720   2.774   7.325 -0.2359  0.2903 -0.3378
    8MOL   O311 2845   2.736   2.809   7.208  0.0979  0.3903 -0.4968
    8MOL   O312 2846   2.655   2.840   7.426 -1.0698 -0.2125 -0.2183
    8MOL   C313 2847   2.623   2.980   7.407 -0.0299 -0.0760  0.0129
    8MOL   C314 2848   2.741   3.064   7.456 -0.2566  0.2826  0.3387
    8MOL   C315 2849   2.769   3.053   7.609  0.7543  0.1871  0.7192
    8MOL   H316 2850   2.685   2.601   7.539  0.1668 -0.3110  0.2131
    8MOL   H317 2851   2.605   2.545   7.398  0.3296 -0.1602 -0.5178
    8MOL   H318 2852   2.813   2.606   7.266 -1.0750  0.4387 -0.5959
    8MOL   H319 2853   2.597   3.009   7.305 -1.6049  1.4498  0.8215
    8MOL   H320 2854   2.542   3.010   7.473  0.5577  0.3437  0.5545
    8MOL   H321 2855   2.833   3.022   7.416 -0.4966 -1.4321  1.5246
    8MOL   H322 2856   2.736   3.167   7.422  0.8562 -0.4117 -2.0226
    8MOL   H323 2857   2.804   2.954   7.639 -0.6563 -0.2812  0.8593
    8MOL   H324 2858   2.848   3.122   7.637 -0.3697  1.8848 -0.1717
    8MOL   H325 2859   2.676   3.066   7.664  0.6907  2.5913  0.0730
    8MOL   C326 2860   2.932   2.674   7.442  0.2526  0.3352 -0.1688
    8MOL   C327 2861   3.021   2.778   7.380  0.0033 -0.3942 -0.7881
    8MOL   C328 2862   3.100   2.828   7.510 -0.3995  0.7732  0.4195
    8MOL   O329 2863   3.079   2.939   7.558 -0.0634  0.2235  0.3536
    8MOL   O330 2864   3.200   2.741   7.547  0.8058  0.2690  0.2350
    8MOL   C331 2865   3.288   2.767   7.647 -0.6116 -0.1950  0.8006
    8MOL   C332 2866   3.410   2.841   7.583  0.4160  0.5297 -0.0765
    8MOL   C333 2867   3.495   2.745   7.497  0.4526 -0.2421  0.2294
    8MOL   H334 2868   2.980   2.577   7.429 -0.8083 -0.4338  1.3929
    8MOL   H335 2869   2.908   2.693   7.547 -0.9914  1.4115 -0.6357
    8MOL   H336 2870   2.965   2.863   7.341  0.9983  1.0215  0.8092
    8MOL   H337 2871   3.230   2.821   7.722 -0.2849  2.9331 -1.0797
    8MOL   H338 2872   3.316   2.675   7.698 -0.8012 -1.3273 -1.1201
    8MOL   H339 2873   3.368   2.927   7.531  0.8521  0.8365  0.0781
    8MOL   H340 2874   3.464   2.887   7.665 -2.5936  0.5538  1.9979
    8MOL   H341 2875   3.581   2.801   7.461 -0.5847  1.0060 -0.3600
    8MOL   H342 2876   3.516   2.665   7.569  0.0452  0.5486  1.2366
    8MOL   H343 2877   3.434   2.711   7.413 -0.3984  0.2155  0.6556
    8MOL   C344 2878   3.106   2.719   7.262 -0.3010 -0.9811 -0.2873
    8MOL   C345 2879   3.189   2.839   7.210 -0.2463  0.0955 -0.8613
    8MOL   C346 2880   3.293   2.812   7.104 -0.0382 -0.0277 -0.2768
    8MOL   O347 2881   3.301   2.697   7.068  0.2423  0.1533  0.4105
    8MOL   O348 2882   3.359   2.921   7.063  0.5598  0.5392 -0.5639
    8MOL   C349 2883   3.446   2.899   6.952  0.7076  0.2015  0.5853
    8MOL   C350 2884   3.584   2.873   7.009 -0.4877 -0.2303  0.4022
    8MOL   C351 2885   3.619   2.976   7.117 -0.5121 -0.1423  0.2846
    8MOL   H352 2886   3.036   2.692   7.182 -1.0898 -0.4518  0.2194
    8MOL   H353 2887   3.167   2.631   7.280  1.1567  0.2200  0.8156
    8MOL   H354 2888   3.246   2.887   7.290 -2.0542  0.7695  0.0722
    8MOL   H355 2889   3.424   2.829   6.872 -0.5244  0.1009  0.9899
    8MOL   H356 2890   3.461   2.986   6.888  1.1701  0.9465  1.6915
    8MOL   H357 2891   3.578   2.780   7.065  0.3254  0.0599  0.9784
    8MOL   H358 2892   3.657   2.865   6.928  0.2006  1.0419  0.8831
    8MOL   H359 2893   3.577   3.072   7.086 -3.6414 -0.9984  1.6389
    8MOL   H360 2894   3.579   2.947   7.214 -2.0762  2.8071  0.5934
    8MOL   H361 2895   3.726   2.994   7.122 -0.6581  0.8604 -0.0928
    8MOL   H362 2896   3.121   2.913   7.168 -1.0603  0.0328  0.2920
    9MOL     C1 2897   6.987   6.824   0.038  0.8436 -1.0500 -0.1774
    9MOL     C2 2898   6.838   6.816   0.065 -0.1616  0.3543 -0.5370
    9MOL     C3 2899   6.805   6.933   0.163  0.2683  0.2357  0.2373
    9MOL     O4 2900   6.893   7.018   0.195  0.0199  0.6998  0.0106
    9MOL     O5 2901   6.679   6.940   0.209 -0.0067  0.9885  0.6517
    9MOL     C6 2902   6.643   7.037   0.309 -0.1756 -0.2595  0.2596
    9MOL     C7 2903   6.640   6.973   0.441  0.5530 -0.4749 -0.1092
    9MOL     C8 2904   6.596   7.062   0.559  0.5140  0.0590  0.3828
    9MOL     H9 2905   7.013   6.751   7.842  0.3177 -0.4331 -0.9510
    9MOL    H10 2906   7.008   6.922   7.876  0.1595 -0.5033  0.7249
    9MOL    H11 2907   6.825   6.725   0.124 -0.9511  1.5172  1.0960
    9MOL    H12 2908   6.715   7.118   0.309  0.9015 -1.1991  0.7846
    9MOL    H13 2909   6.542   7.073   0.290  1.0864  2.2990 -1.9046
    9MOL    H14 2910   6.576   6.885   0.439 -1.7246  1.1571 -0.1253
    9MOL    H15 2911   6.740   6.936   0.465  1.9520  1.6283 -2.5023
    9MOL    H16 2912   6.582   7.004   0.650  1.6634 -1.6989 -0.5390
    9MOL    H17 2913   6.678   7.129   0.585  0.0412  0.9799 -0.4932
    9MOL    H18 2914   6.504   7.117   0.539  0.3504 -0.9017 -1.5639
    9MOL    H19 2915   7.056   6.801   0.119 -0.7444 -0.6445  1.3353
    9MOL    C20 2916   6.748   6.803   7.821 -0.8482 -0.0370  0.1900
    9MOL    C21 2917   6.621   6.727   7.844 -0.9907  0.4141 -0.2838
    9MOL    C22 2918   6.519   6.780   7.741  0.1008  0.9024  0.2022
    9MOL    O23 2919   6.421   6.846   7.783 -0.9916  0.2670  0.7612
    9MOL    O24 2920   6.529   6.734   7.615  0.3899 -0.1099 -0.5681
    9MOL    C25 2921   6.430   6.764   7.518  0.5219 -0.1516 -1.0087
    9MOL    C26 2922   6.348   6.635   7.510 -0.4578  0.5519  0.0358
    9MOL    C27 2923   6.427   6.511   7.475 -0.0874 -0.3557  0.1312
    9MOL    H28 2924   6.806   6.748   7.748 -1.0696 -0.1626  0.1082
    9MOL    H29 2925   6.726   6.900   7.777 -1.8548 -0.7502 -0.9075
    9MOL    H30 2926   6.585   6.741   0.065 -1.5160 -3.1303  0.0736
    9MOL    H31 2927   6.362   6.846   7.545  0.4788 -1.1443  2.1534
    9MOL    H32 2928   6.470   6.783   7.419 -0.7290  0.7343 -1.3506
    9MOL    H33 2929   6.290   6.617   7.601 -1.9767  1.3372 -0.7503
    9MOL    H34 2930   6.269   6.644   7.434 -0.6656  2.0174  0.4089
    9MOL    H35 2931   6.504   6.479   7.545  1.1258 -0.4625 -1.2127
    9MOL    H36 2932   6.484   6.515   7.382  2.5485 -1.0540  1.6541
    9MOL    H37 2933   6.353   6.431   7.470 -1.1840  0.5501  1.5391
    9MOL    C38 2934   6.639   6.569   7.824  0.0560  0.1706 -0.1966
    9MOL    C39 2935   6.512   6.487   7.864 -0.1615  0.3751 -0.0994
    9MOL    C40 2936   6.544   6.338   7.843  0.4392 -0.7897 -0.6776
    9MOL    O41 2937   6.468   6.269   7.775 -0.2183 -0.3784 -0.1369
    9MOL    O42 2938   6.656   6.287   0.028  0.3804  0.5751  0.1921
    9MOL    C43 2939   6.684   6.148   0.013  0.3435  0.1952  0.1122
    9MOL    C44 2940   6.811   6.113   0.094 -0.3977 -0.1429 -0.9217
    9MOL    C45 2941   6.928   6.204   0.064  0.3667 -0.0089 -0.0486
    9MOL    H46 2942   6.725   6.545   0.006 -0.7697  0.7208  1.1781
    9MOL    H47 2943   6.658   6.546   7.719 -5.9850  0.7547 -1.5693
    9MOL    H48 2944   6.428   6.519   7.802 -0.3412  1.3247  0.6188
    9MOL    H49 2945   6.607   6.087   0.061 -0.0310  2.1026  1.9719
    9MOL    H50 2946   6.695   6.123   7.788 -0.1597  2.0727 -0.3972
    9MOL    H51 2947   6.787   6.137   0.198 -2.8405 -0.8413 -1.2936
    9MOL    H52 2948   6.840   6.008   0.099  0.5987  0.1636 -0.0694
    9MOL    H53 2949   7.000   6.195   0.146 -0.1699  0.7477  0.5081
    9MOL    H54 2950   6.892   6.306   0.065 -3.3382 -1.2370  1.5122
    9MOL    H55 2951   6.980   6.180   7.851  0.1751 -1.0454  0.0973
    9MOL    C56 2952   6.469   6.513   0.135  0.3845  0.3441  0.7496
    9MOL    C57 2953   6.349   6.607   0.156  0.0151 -1.0575 -0.5861
    9MOL    C58 2954   6.222   6.532   0.132  0.2337 -0.5864  0.1004
    9MOL    O59 2955   6.139   6.492   0.220 -0.1653  0.1930  0.2056
    9MOL    O60 2956   6.204   6.521   7.875 -0.2405 -0.2576 -0.2269
    9MOL    C61 2957   6.085   6.456   7.821  0.4197  0.2755  0.2994
    9MOL    C62 2958   6.112   6.308   7.785  0.3879 -0.1472 -0.8816
    9MOL    C63 2959   6.154   6.219   0.028  0.3285  0.2809  0.3243
    9MOL    H64 2960   6.550   6.571   0.179 -0.5930  2.2427  0.0818
    9MOL    H65 2961   6.443   6.419   0.184 -0.1819 -0.2935 -0.7646
    9MOL    H66 2962   6.353   6.688   0.084 -1.0777 -1.4327 -1.0812
    9MOL    H67 2963   6.020   6.464   0.028  1.5529 -0.4971  1.2367
    9MOL    H68 2964   6.055   6.513   7.733  1.4705  1.4854  0.7143
    9MOL    H69 2965   6.034   6.263   7.724 -0.9205  2.2598 -1.0423
    9MOL    H70 2966   6.200   6.301   7.721 -0.2510  0.1174 -1.7984
    9MOL    H71 2967   6.171   6.123   7.859  0.6218  0.7574 -0.5237
    9MOL    H72 2968   6.077   6.208   0.104 -0.3521 -0.9371 -0.5133
    9MOL    H73 2969   6.238   6.266   0.078  0.9826  0.4424 -0.8969
    9MOL    C74 2970   6.355   6.665   0.301  0.6248 -0.3466 -0.2165
    9MOL    C75 2971   6.252   6.778   0.333 -0.5642  0.4148  0.1452
    9MOL    C76 2972   6.237   6.809   0.483 -0.2842  0.0156 -0.1956
    9MOL    O77 2973   6.336   6.844   0.552 -0.3187 -0.1983  0.2847
    9MOL    O78 2974   6.109   6.796   0.530 -0.0836 -0.1503  0.2640
    9MOL    C79 2975   6.072   6.831   0.668 -0.1486 -0.7421  0.1207
    9MOL    C80 2976   5.982   6.955   0.665  0.0069 -0.3063 -0.3590
    9MOL    C81 2977   5.890   6.965   0.794 -0.4675  0.0786 -0.1915
    9MOL    H82 2978   6.451   6.714   0.313 -0.8137  2.7076 -0.6950
    9MOL    H83 2979   6.347   6.591   0.380 -2.8465  1.0619  0.8698
    9MOL    H84 2980   6.158   6.727   0.308  0.4460 -1.5244  0.1802
    9MOL    H85 2981   6.022   6.745   0.712  0.0756 -0.2541  1.3425
    9MOL    H86 2982   6.155   6.857   0.733 -0.6268  0.9855  0.0619
    9MOL    H87 2983   6.037   7.047   0.648  1.5739 -0.6313  2.5479
    9MOL    H88 2984   5.903   6.945   0.591 -1.2921  1.3562  0.7783
    9MOL    H89 2985   5.815   7.043   0.782  0.7624  1.4754  0.9725
    9MOL    H90 2986   5.953   6.995   0.878  0.0715 -0.2971 -0.4582
    9MOL    H91 2987   5.836   6.875   0.823  0.3385 -0.5174 -0.5100
    9MOL    C92 2988   6.272   6.913   0.254  0.2864 -0.0267 -0.6850
    9MOL    C93 2989   6.157   6.955   0.162  0.1223 -0.7113 -0.2834
    9MOL    C94 2990   6.016   6.940   0.229 -0.5023 -0.6054 -0.3160
    9MOL    O95 2991   5.968   7.028   0.307 -0.5607 -0.3103  0.8350
    9MOL    O96 2992   5.955   6.824   0.206  0.0018  0.2689  0.1562
    9MOL    C97 2993   5.819   6.798   0.234  0.0716  0.6381  0.6144
    9MOL    C98 2994   5.788   6.647   0.217 -0.3802  0.0718 -0.3975
    9MOL    C99 2995   5.795   6.592   0.071  0.7360 -0.3517  0.0553
    9MOL   H100 2996   6.352   6.902   0.181  1.6697 -2.7072  1.1555
    9MOL   H101 2997   6.295   6.997   0.320  0.4010  0.9616 -1.9792
    9MOL   H102 2998   6.146   6.865   0.101 -0.7592 -0.6124 -0.2768
    9MOL   H103 2999   5.810   6.826   0.339  0.9025  0.2207  0.8065
    9MOL   H104 3000   5.752   6.863   0.179  1.2334  1.5914  0.3147
    9MOL   H105 3001   5.858   6.588   0.275 -2.6745 -1.0753  1.2709
    9MOL   H106 3002   5.696   6.618   0.267 -1.0512 -0.4981 -1.9221
    9MOL   H107 3003   5.703   6.600   0.013  1.1865 -4.0502 -1.3546
    9MOL   H108 3004   5.810   6.484   0.080 -1.2799 -0.7238 -0.6559
    9MOL   H109 3005   5.878   6.640   0.019 -1.9434  0.8805 -3.3144
    9MOL   C110 3006   6.180   7.082   0.082  0.0015  0.0963 -0.8919
    9MOL   C111 3007   6.089   7.098   7.846 -0.0469 -0.6122 -0.1395
    9MOL   C112 3008   6.094   7.240   7.790 -0.0453  0.4811 -0.4822
    9MOL   O113 3009   6.009   7.326   7.820 -0.3016  0.1495 -0.2769
    9MOL   O114 3010   6.206   7.274   7.720  0.4343  0.5582 -0.2783
    9MOL   C115 3011   6.217   7.404   7.663 -0.3902  0.3533 -0.0960
    9MOL   C116 3012   6.145   7.434   7.525  0.4510 -0.8690 -0.0447
    9MOL   C117 3013   6.197   7.560   7.457  0.3274  0.4303  0.7611
    9MOL   H118 3014   6.282   7.081   0.045  0.6272  1.2838  0.7743
    9MOL   H119 3015   6.180   7.175   0.139  2.7199 -0.2393 -0.2727
    9MOL   H120 3016   5.990   7.090   0.010 -0.1592 -0.4736 -0.3611
    9MOL   H121 3017   6.200   7.469   7.748  0.4120  0.5805 -0.0994
    9MOL   H122 3018   6.319   7.437   7.643 -0.7640  1.2897 -0.4910
    9MOL   H123 3019   6.165   7.348   7.461 -1.4165 -1.7170  0.4858
    9MOL   H124 3020   6.039   7.436   7.547  0.0012  0.7167 -2.2475
    9MOL   H125 3021   6.191   7.650   7.518  1.2880  1.0863 -0.0941
    9MOL   H126 3022   6.152   7.575   7.359  1.3012  1.5269  0.4628
    9MOL   H127 3023   6.302   7.542   7.431  0.1149 -0.0687  0.2298
    9MOL   C128 3024   6.099   6.996   7.730 -0.4882  0.8558  1.0234
    9MOL   C129 3025   5.967   6.978   7.645 -0.3539  1.1079 -0.3368
    9MOL   C130 3026   6.004   6.995   7.502 -0.0994  0.0043  0.2568
    9MOL   O131 3027   5.967   7.094   7.436 -0.3259  0.2783  0.0185
    9MOL   O132 3028   6.071   6.898   7.446  0.2041  0.3658  0.1377
    9MOL   C133 3029   6.105   6.897   7.308  0.2985  0.3332 -0.3739
    9MOL   C134 3030   5.992   6.829   7.217 -0.3547 -0.3938  0.5474
    9MOL   C135 3031   5.888   6.925   7.166 -0.3717  0.0875 -0.1694
    9MOL   H136 3032   6.121   6.900   7.777 -1.0946  1.1366  1.9040
    9MOL   H137 3033   6.189   7.010   7.671 -1.3865 -1.6090 -1.0101
    9MOL   H138 3034   5.889   7.050   7.667 -0.0375  1.9533 -1.9165
    9MOL   H139 3035   6.123   6.998   7.272 -0.3946  0.5601 -0.0757
    9MOL   H140 3036   6.187   6.825   7.307 -0.7068 -0.8645  1.4413
    9MOL   H141 3037   6.044   6.777   7.136 -2.5044  1.9866 -2.5040
    9MOL   H142 3038   5.944   6.749   7.273 -2.5714 -0.7685 -1.8084
    9MOL   H143 3039   5.850   6.983   7.250  0.3866 -0.9487  0.8998
    9MOL   H144 3040   5.800   6.869   7.135  0.2881 -0.8051 -0.4613
    9MOL   H145 3041   5.918   7.001   7.094  1.0671  1.0426  1.3945
    9MOL   C146 3042   5.898   6.839   7.670 -0.5233 -0.6062 -0.5584
    9MOL   C147 3043   5.763   6.820   7.587  0.1051 -0.0233 -0.1744
    9MOL   C148 3044   5.745   6.684   7.525 -0.0611 -0.4394  0.1777
    9MOL   O149 3045   5.692   6.668   7.415 -0.3934  0.0909  0.2531
    9MOL   O150 3046   5.803   6.583   7.598  0.1817  0.1916  0.3960
    9MOL   C151 3047   5.797   6.445   7.552 -0.1881 -0.5187 -0.3189
    9MOL   C152 3048   5.914   6.421   7.450  0.2606 -0.2533  0.0799
    9MOL   C153 3049   5.883   6.302   7.359 -0.6410 -0.5233  0.5155
    9MOL   H154 3050   5.876   6.816   7.774  0.1044 -1.8853 -0.7121
    9MOL   H155 3051   5.975   6.771   7.634 -1.2390 -0.5342 -2.3123
    9MOL   H156 3052   5.780   6.875   7.495  1.8499 -1.0612 -0.5003
    9MOL   H157 3053   5.815   6.390   7.644 -0.8226 -0.2013 -0.0040
    9MOL   H158 3054   5.701   6.427   7.503 -0.1112  0.5101 -0.8587
    9MOL   H159 3055   5.915   6.513   7.391  0.9328 -1.0178 -1.1248
    9MOL   H160 3056   6.009   6.425   7.505  0.7215 -0.0483 -0.7197
    9MOL   H161 3057   5.801   6.326   7.291  1.9462 -0.2855 -2.6429
    9MOL   H162 3058   5.864   6.209   7.412  0.7151 -2.1274 -1.7541
    9MOL   H163 3059   5.969   6.284   7.295  1.0312  0.7221  2.3412
    9MOL   C164 3060   5.638   6.862   7.672  0.6413  0.1498 -0.0948
    9MOL   C165 3061   5.529   6.909   7.575  0.2799 -0.0978  0.0825
    9MOL   C166 3062   5.391   6.918   7.640 -0.4550  0.1769 -0.1159
    9MOL   O167 3063   5.296   6.867   7.583  0.0838  0.2640 -0.4106
    9MOL   O168 3064   5.390   6.990   7.751  0.4399  0.3768 -0.3335
    9MOL   C169 3065   5.262   7.029   7.806  0.1328  1.1113 -1.2159
    9MOL   C170 3066   5.247   7.176   7.767  0.5837 -0.0302 -0.0350
    9MOL   C171 3067   5.129   7.245   7.843  0.0880  0.0251 -0.3923
    9MOL   H172 3068   5.669   6.953   7.725 -0.7593  1.4231 -1.4056
    9MOL   H173 3069   5.594   6.774   7.718  0.1145  0.7525  0.5575
    9MOL   H174 3070   5.524   6.831   7.499  0.0742 -0.5796  0.5824
    9MOL   H175 3071   5.179   6.970   7.765  0.5102  1.1460 -2.0528
    9MOL   H176 3072   5.267   7.025   0.034 -0.5940 -0.3830 -1.2211
    9MOL   H177 3073   5.340   7.229   7.785  0.8728 -1.4730  2.8947
    9MOL   H178 3074   5.231   7.188   7.659 -1.5832  1.2028  0.3879
    9MOL   H179 3075   5.129   7.352   7.822  1.0057  0.2735  0.8863
    9MOL   H180 3076   5.149   7.240   0.069 -0.8157  0.2534 -0.2019
    9MOL   H181 3077   5.034   7.194   7.826  0.8901 -1.4484 -0.5165
    9MOL   C182 3078   5.563   7.049   7.525  0.7032 -0.3994  0.0691
    9MOL   C183 3079   5.493   7.070   7.390  0.4545 -0.7508  1.1090
    9MOL   C184 3080   5.472   7.225   7.356 -0.5540  0.0807  0.3410
    9MOL   O185 3081   5.527   7.310   7.426 -0.3768 -0.5250 -0.1096
    9MOL   O186 3082   5.387   7.243   7.254  0.2276  0.0249  0.1120
    9MOL   C187 3083   5.374   7.370   7.211  0.3721 -0.2371 -0.0322
    9MOL   C188 3084   5.342   7.369   7.061  0.5426 -1.1640 -0.4453
    9MOL   C189 3085   5.187   7.326   7.042  0.4825  0.1109  0.1624
    9MOL   H190 3086   5.670   7.064   7.512  0.3440  1.2515 -1.2317
    9MOL   H191 3087   5.540   7.121   7.604 -0.7507 -1.5089  0.6739
    9MOL   H192 3088   5.395   7.023   7.399  0.5839 -0.9967  1.2295
    9MOL   H193 3089   5.306   7.423   7.277 -1.9648 -1.2495 -1.5544
    9MOL   H194 3090   5.470   7.420   7.210  0.1839  0.1377  0.4995
    9MOL   H195 3091   5.355   7.462   7.005 -0.4333 -0.0475  1.1267
    9MOL   H196 3092   5.402   7.293   7.010  1.4034 -0.1734 -0.9386
    9MOL   H197 3093   5.121   7.404   7.082  1.3056  0.3799  1.0259
    9MOL   H198 3094   5.163   7.228   7.083 -1.2751  0.7950  0.8282
    9MOL   H199 3095   5.175   7.320   6.934  0.8570 -0.8728  0.1768
    9MOL   C200 3096   5.566   6.999   7.276  0.1934 -0.4553  0.4668
    9MOL   C201 3097   5.463   6.949   7.171 -0.5026  0.4659  0.6323
    9MOL   C202 3098   5.520   6.956   7.035 -0.2379  0.1870  0.1529
    9MOL   O203 3099   5.499   7.056   6.960  0.3208  0.2710 -0.2407
    9MOL   O204 3100   5.606   6.855   7.006  0.1246 -0.6273 -0.1865
    9MOL   C205 3101   5.697   6.842   6.891  0.3488 -0.3184  0.0909
    9MOL   C206 3102   5.634   6.771   6.772 -0.3870 -0.1288  0.1749
    9MOL   C207 3103   5.734   6.712   6.668  0.2742  0.8178  0.7330
    9MOL   H208 3104   5.616   6.907   7.306 -0.5697 -0.6084  1.3099
    9MOL   H209 3105   5.640   7.057   7.221 -0.6836 -0.7940 -1.1187
    9MOL   H210 3106   5.372   7.009   7.171 -0.3856  0.6785 -1.7800
    9MOL   H211 3107   5.712   6.946   6.862  0.6091 -0.2498  0.4606
    9MOL   H212 3108   5.784   6.781   6.915  2.1597  0.6155 -3.7005
    9MOL   H213 3109   5.578   6.689   6.816  0.7237  1.0229  3.9373
    9MOL   H214 3110   5.555   6.833   6.729  0.7072 -0.9133 -3.1704
    9MOL   H215 3111   5.680   6.639   6.608 -0.4855  1.2668  0.8543
    9MOL   H216 3112   5.810   6.664   6.730  0.4943 -0.1433 -0.2752
    9MOL   H217 3113   5.781   6.779   6.597  3.4279 -1.2999  0.7436
    9MOL   C218 3114   5.399   6.811   7.203  0.0691 -0.1036  0.4516
    9MOL   C219 3115   5.301   6.760   7.092 -0.4893 -0.0206  0.0176
    9MOL   C220 3116   5.277   6.614   7.125 -0.6903  0.0021 -0.0807
    9MOL   O221 3117   5.173   6.578   7.181  0.6975 -0.3193  0.7541
    9MOL   O222 3118   5.377   6.539   7.099  0.0750 -0.1508 -0.2809
    9MOL   C223 3119   5.360   6.397   7.110  0.7928  0.4485  0.4998
    9MOL   C224 3120   5.496   6.327   7.098 -0.4841 -0.0404  0.5183
    9MOL   C225 3121   5.494   6.188   7.146 -0.3756  0.1200 -0.2256
    9MOL   H226 3122   5.336   6.823   7.291 -3.3274 -1.7402 -1.6373
    9MOL   H227 3123   5.477   6.739   7.225 -1.3532 -2.4582 -1.9817
    9MOL   H228 3124   5.343   6.754   6.991 -3.1491 -2.7788 -0.9990
    9MOL   H229 3125   5.310   6.371   7.203 -0.3922  0.5263 -0.1068
    9MOL   H230 3126   5.284   6.363   7.040  0.3290 -2.3184  2.2963
    9MOL   H231 3127   5.535   6.323   6.996 -0.9178 -0.7726  0.3784
    9MOL   H232 3128   5.562   6.385   7.163  2.9529 -1.7866 -1.2863
    9MOL   H233 3129   5.587   6.138   7.117 -0.2899  0.5359 -0.6682
    9MOL   H234 3130   5.401   6.136   7.123 -1.1077 -0.1577  3.1017
    9MOL   H235 3131   5.486   6.179   7.254  0.6995  3.9068  0.2110
    9MOL   C236 3132   5.171   6.840   7.082  0.4967  0.2458  0.4788
    9MOL   C237 3133   5.097   6.810   6.957  0.1213  0.0176 -0.4846
    9MOL   C238 3134   4.948   6.844   6.968 -0.0221 -0.0785 -0.2274
    9MOL   O239 3135   4.863   6.754   6.956  0.3396  0.2345 -0.6120
    9MOL   O240 3136   4.927   6.972   6.969  0.6004  0.4350  0.0521
    9MOL   C241 3137   4.786   7.013   6.969  0.2183 -0.4579  0.3730
    9MOL   C242 3138   4.790   7.141   6.888 -0.1139 -0.1921  0.2066
    9MOL   C243 3139   4.870   7.253   6.947 -0.2239 -0.0620 -0.2325
    9MOL   H244 3140   5.187   6.947   7.095 -1.1833  0.5526  0.0879
    9MOL   H245 3141   5.102   6.807   7.160 -2.4778  1.8527 -1.3797
    9MOL   H246 3142   5.104   6.701   6.957 -1.1108 -0.0688 -0.3388
    9MOL   H247 3143   4.722   6.941   6.918 -0.9757  0.0502  1.1284
    9MOL   H248 3144   4.756   7.028   7.073  1.4223  0.6208  0.5836
    9MOL   H249 3145   4.835   7.122   6.791 -1.3250 -1.8059 -0.0731
    9MOL   H250 3146   4.690   7.178   6.863  0.4152  1.8212  1.0113
    9MOL   H251 3147   4.954   7.210   7.001 -0.9182 -1.0841  0.0569
    9MOL   H252 3148   4.811   7.319   7.011  0.8044 -0.5906  1.2863
    9MOL   H253 3149   4.910   7.321   6.873 -0.8197 -1.4075 -1.8065
    9MOL   C254 3150   5.166   6.860   6.824  0.1237 -0.0303 -0.0571
    9MOL   C255 3151   5.097   6.821   6.689 -0.4426  0.2964  0.3670
    9MOL   C256 3152   5.078   6.662   6.673 -0.1111 -0.3278 -1.2622
    9MOL   O257 3153   5.170   6.579   6.678  0.3970 -0.5504 -0.7038
    9MOL   O258 3154   4.951   6.626   6.654  0.1823 -0.3682 -0.1904
    9MOL   C259 3155   4.919   6.494   6.644  0.1065 -0.3298  0.5901
    9MOL   C260 3156   4.877   6.462   6.500  0.0877  0.2879 -0.5749
    9MOL   C261 3157   4.982   6.477   6.393  0.3711 -0.0640 -0.4550
    9MOL   H262 3158   5.272   6.836   6.826  0.5254  1.5513 -1.1535
    9MOL   H263 3159   5.179   6.968   6.829  3.2551 -0.3606  0.0469
    9MOL   H264 3160   5.167   6.857   6.614 -1.7573 -0.1205 -1.0641
    9MOL   H265 3161   4.992   6.422   6.681  0.0039  0.3035  2.0709
    9MOL   H266 3162   4.828   6.486   6.703  0.5668  3.5477  1.9525
    9MOL   H267 3163   4.828   6.365   6.491  0.5571  0.2117 -2.6221
    9MOL   H268 3164   4.806   6.542   6.477  0.7429  0.9342 -0.3558
    9MOL   H269 3165   5.022   6.577   6.378 -2.2488  1.1050  0.0947
    9MOL   H270 3166   4.947   6.442   6.296 -0.7517  0.5620 -0.2864
    9MOL   H271 3167   5.072   6.420   6.416  0.8138  0.5054 -0.7726
    9MOL   C272 3168   4.964   6.889   6.649 -0.2113 -0.4342 -0.3827
    9MOL   C273 3169   4.925   6.890   6.489  0.1535  0.0038 -0.0726
    9MOL   C274 3170   4.775   6.896   6.462 -0.5866 -0.3300 -0.4148
    9MOL   O275 3171   4.721   6.805   6.401  0.1432  0.3082 -0.0159
    9MOL   O276 3172   4.712   6.997   6.524 -0.5201  0.6931 -0.0256
    9MOL   C277 3173   4.576   7.015   6.493  0.1253  0.0037  0.3210
    9MOL   C278 3174   4.478   6.938   6.583 -0.0606  0.4116 -0.7663
    9MOL   C279 3175   4.502   6.967   6.735  0.1478  0.6506  0.2434
    9MOL   H280 3176   4.960   6.994   6.678 -2.5451 -0.9675  1.3822
    9MOL   H281 3177   4.878   6.851   6.703  0.0338  0.2820  0.5220
    9MOL   H282 3178   4.963   6.791   6.466 -0.8015 -0.3004 -0.3321
    9MOL   H283 3179   4.554   7.122   6.504 -0.9887  0.0940 -2.3212
    9MOL   H284 3180   4.561   6.988   6.389 -1.9831 -3.5044  1.4581
    9MOL   H285 3181   4.371   6.950   6.561 -0.3315 -1.1067 -0.3592
    9MOL   H286 3182   4.482   6.830   6.568 -2.1460  0.2515 -0.3215
    9MOL   H287 3183   4.593   6.916   6.764 -0.7590 -0.9341  0.3419
    9MOL   H288 3184   4.428   6.945   6.812  0.4058  2.1573  0.9489
    9MOL   H289 3185   4.515   7.074   6.756 -1.6765  0.4203  2.8040
    9MOL   C290 3186   5.007   6.988   6.410 -0.0411 -0.5732  0.2512
    9MOL   C291 3187   4.992   7.134   6.451 -0.0137  0.4118  0.1981
    9MOL   C292 3188   5.078   7.188   6.559 -0.1724  0.2124 -0.0988
    9MOL   O293 3189   5.032   7.268   6.639 -0.1370  0.5626  0.3171
    9MOL   O294 3190   5.203   7.151   6.556  0.2064  0.4005 -0.2445
    9MOL   C295 3191   5.290   7.207   6.655  0.0275  0.2195 -0.2655
    9MOL   C296 3192   5.430   7.206   6.579 -0.8017 -0.0018  0.0179
    9MOL   C297 3193   5.548   7.250   6.671  0.0842 -0.1650  0.0406
    9MOL   H298 3194   4.970   6.982   6.308  0.7710  1.1896 -0.1735
    9MOL   H299 3195   5.114   6.968   6.415  0.5819  2.3523 -0.2586
    9MOL   H300 3196   4.889   7.138   6.487 -0.0729  1.0406 -0.0282
    9MOL   H301 3197   5.274   7.314   6.666 -2.0799  0.2217 -2.7649
    9MOL   H302 3198   5.300   7.154   6.750  0.7719 -0.4600 -0.7167
    9MOL   H303 3199   5.462   7.106   6.550  0.4943 -0.0127  1.4104
    9MOL   H304 3200   5.428   7.262   6.486 -2.4204 -0.5848 -0.3127
    9MOL   H305 3201   5.562   7.356   6.689 -0.3789 -0.0037 -0.5364
    9MOL   H306 3202   5.638   7.239   6.611  0.8552 -0.3907  1.2334
    9MOL   H307 3203   5.573   7.189   6.758 -3.9019  1.3011  2.3666
    9MOL   C308 3204   4.992   7.224   6.327  0.3307 -0.0250 -0.5382
    9MOL   C309 3205   5.131   7.265   6.266 -0.1281  0.7590  0.1059
    9MOL   C310 3206   5.201   7.155   6.179 -0.0565 -0.4175 -0.8313
    9MOL   O311 3207   5.297   7.093   6.222 -0.5945 -0.0767 -0.0841
    9MOL   O312 3208   5.151   7.145   6.053  0.2600 -0.5560 -0.1986
    9MOL   C313 3209   5.204   7.049   5.959  0.0209  1.2238 -0.1061
    9MOL   C314 3210   5.314   7.115   5.867 -0.1006  0.1907  0.0471
    9MOL   C315 3211   5.387   7.016   5.779  0.0609  0.2209  0.4488
    9MOL   H316 3212   4.943   7.309   6.374  0.9850 -1.2605  2.4749
    9MOL   H317 3213   4.924   7.189   6.248  0.2011 -0.3880 -0.2713
    9MOL   H318 3214   5.200   7.275   6.350 -1.3695 -0.1108  1.2480
    9MOL   H319 3215   5.231   6.954   6.005  1.6293  1.3891 -0.6574
    9MOL   H320 3216   5.129   7.024   5.884 -0.0257 -3.1639  1.2459
    9MOL   H321 3217   5.257   7.195   5.820 -1.4739 -0.5727  0.3792
    9MOL   H322 3218   5.387   7.157   5.935  0.9006 -0.8794 -0.3552
    9MOL   H323 3219   5.438   6.944   5.843  0.3922 -0.0246 -0.0930
    9MOL   H324 3220   5.318   6.976   5.705  3.8783 -2.9515 -1.5511
    9MOL   H325 3221   5.462   7.063   5.716 -0.4147  0.5685  0.1314
    9MOL   C326 3222   5.130   7.403   6.198  0.9696 -0.1890  0.4506
    9MOL   C327 3223   5.265   7.473   6.160 -0.2632  0.2890  0.4461
    9MOL   C328 3224   5.356   7.496   6.283  0.2711 -0.6253 -0.4853
    9MOL   O329 3225   5.471   7.455   6.286 -0.4711 -0.5019 -0.2100
    9MOL   O330 3226   5.290   7.560   6.387  0.2128 -0.1026 -0.0140
    9MOL   C331 3227   5.336   7.564   6.520 -0.3157  0.3054  0.5598
    9MOL   C332 3228   5.216   7.600   6.603 -0.1742  0.3940  0.1451
    9MOL   C333 3229   5.232   7.594   6.755 -0.4212 -1.1837 -0.0647
    9MOL   H334 3230   5.063   7.466   6.255 -0.5064 -1.6371  0.3585
    9MOL   H335 3231   5.062   7.382   6.116  0.2915 -1.0451  1.2265
    9MOL   H336 3232   5.224   7.571   6.134 -0.5043 -0.2871 -1.3994
    9MOL   H337 3233   5.370   7.467   6.555 -1.3285 -0.2584  0.0325
    9MOL   H338 3234   5.416   7.638   6.516  0.9030 -0.8749  2.3161
    9MOL   H339 3235   5.192   7.702   6.573 -0.8409  0.2849  0.3032
    9MOL   H340 3236   5.129   7.543   6.572  0.8206 -0.1974 -1.6197
    9MOL   H341 3237   5.257   7.497   6.799 -0.4887 -0.3622  1.8517
    9MOL   H342 3238   5.318   7.651   6.790  0.9362 -3.1005 -0.1773
    9MOL   H343 3239   5.143   7.623   6.811 -0.7726 -0.4280 -1.0077
    9MOL   C344 3240   5.337   7.424   6.035 -0.0919  0.1233 -0.6573
    9MOL   C345 3241   5.400   7.532   5.957  0.1804 -0.2199 -0.3357
    9MOL   C346 3242   5.440   7.495   5.817  0.8519 -0.9861  0.3783
    9MOL   O347 3243   5.379   7.539   5.723 -0.3788  0.1742  0.2472
    9MOL   O348 3244   5.541   7.413   5.819  0.2285  0.4344 -0.2729
    9MOL   C349 3245   5.619   7.394   5.703 -0.9639 -0.9347 -0.5577
    9MOL   C350 3246   5.717   7.509   5.656  0.4648 -0.7882  1.2109
    9MOL   C351 3247   5.804   7.475   5.530 -0.1968 -1.0358 -0.6968
    9MOL   H352 3248   5.264   7.388   5.962 -0.7085  1.4684 -0.7229
    9MOL   H353 3249   5.401   7.338   6.052  0.4071  0.4637 -0.8056
    9MOL   H354 3250   5.482   7.586   6.004 -1.0839  1.5855 -0.1480
    9MOL   H355 3251   5.677   7.302   5.711 -0.8177 -0.9049 -1.2901
    9MOL   H356 3252   5.543   7.374   5.628  0.7023 -1.2402 -2.2088
    9MOL   H357 3253   5.653   7.596   5.645  0.5385 -0.8622  0.1555
    9MOL   H358 3254   5.790   7.541   5.730  2.5075 -0.1196 -1.0139
    9MOL   H359 3255   5.867   7.563   5.511  2.6436 -3.1917 -1.6027
    9MOL   H360 3256   5.866   7.386   5.543  1.6000  0.2070 -0.5633
    9MOL   H361 3257   5.744   7.473   5.439  0.5351  0.0896 -1.2252
    9MOL   H362 3258   5.334   7.619   5.958  2.2317  1.3745 -1.0958
   10MOL     C1 3259   6.681   1.880   5.336  0.0277  0.1457  0.3191
   10MOL     C2 3260   6.732   2.028   5.345 -0.5850 -0.8429  0.2032
   10MOL     C3 3261   6.626   2.128   5.403 -0.5859  0.1910  0.5804
   10MOL     O4 3262   6.651   2.210   5.497  0.3684  0.2061 -0.1948
   10MOL     O5 3263   6.512   2.131   5.337 -0.3600  0.3799  0.3337
   10MOL     C6 3264   6.410   2.216   5.381  0.6786  0.2730 -0.7540
   10MOL     C7 3265   6.298   2.220   5.281 -0.4910 -0.8521 -0.2570
   10MOL     C8 3266   6.172   2.305   5.321  0.6523 -0.2897 -0.2638
   10MOL     H9 3267   6.769   1.827   5.300  0.5444  0.6582  0.8113
   10MOL    H10 3268   6.660   1.838   5.434 -0.5922 -1.1108 -0.3358
   10MOL    H11 3269   6.760   2.075   5.250  0.9495 -0.8940  0.6090
   10MOL    H12 3270   6.380   2.197   5.484  0.6945  2.0887 -0.3964
   10MOL    H13 3271   6.455   2.315   5.390  1.9350 -0.3879  0.5713
   10MOL    H14 3272   6.333   2.255   5.184 -0.8761  2.0171  0.5865
   10MOL    H15 3273   6.256   2.121   5.263  0.2342 -1.2078  0.0035
   10MOL    H16 3274   6.185   2.413   5.310  1.1610 -0.3806 -0.5904
   10MOL    H17 3275   6.089   2.293   5.252 -0.3436  1.8433  0.5241
   10MOL    H18 3276   6.136   2.280   5.421 -0.6338 -0.5368 -0.7782
   10MOL    H19 3277   6.592   1.868   5.274 -0.0536  1.1911  0.2230
   10MOL    C20 3278   6.860   2.028   5.430 -0.5840 -0.1064 -0.7324
   10MOL    C21 3279   6.996   1.995   5.357 -0.4456 -0.1637  0.0386
   10MOL    C22 3280   7.030   2.102   5.258 -0.1747 -0.9006  0.4294
   10MOL    O23 3281   7.002   2.087   5.137  0.4528  0.6152  0.0864
   10MOL    O24 3282   7.090   2.207   5.321 -0.1401  0.8114  0.1610
   10MOL    C25 3283   7.138   2.319   5.251 -0.1407  0.3470  0.0500
   10MOL    C26 3284   7.027   2.423   5.211 -0.3208  0.8616  0.4011
   10MOL    C27 3285   6.961   2.482   5.330  0.0720  0.3446  0.7578
   10MOL    H28 3286   6.856   1.952   5.509  2.7463  1.5005  1.1113
   10MOL    H29 3287   6.868   2.119   5.490  1.3323 -0.7588  0.0650
   10MOL    H30 3288   6.965   1.918   5.287 -0.9139  0.0049  0.0587
   10MOL    H31 3289   7.194   2.371   5.329  0.0625 -0.5694  0.5246
   10MOL    H32 3290   7.205   2.289   5.171  0.3978 -0.4665  0.7949
   10MOL    H33 3291   7.069   2.496   5.143 -1.0833 -0.7408 -1.8390
   10MOL    H34 3292   6.963   2.372   5.140 -0.0286  1.1622 -0.0735
   10MOL    H35 3293   6.919   2.397   5.384 -2.0193  0.2275 -0.9742
   10MOL    H36 3294   6.877   2.536   5.288  2.3994  1.4732 -2.6537
   10MOL    H37 3295   7.022   2.545   5.395 -1.4172  0.5602  1.9850
   10MOL    C38 3296   7.113   1.963   5.462  0.2320 -0.2197 -0.4975
   10MOL    C39 3297   7.105   1.824   5.532 -0.2539 -0.6767 -0.3680
   10MOL    C40 3298   7.085   1.705   5.437 -0.0152 -0.1030  0.1305
   10MOL    O41 3299   7.126   1.717   5.329 -0.4515  0.2442  0.0004
   10MOL    O42 3300   7.016   1.608   5.493  0.1056 -0.5178  0.1779
   10MOL    C43 3301   6.978   1.492   5.424  0.0184  0.4716  0.0207
   10MOL    C44 3302   6.849   1.512   5.347  1.5606  0.0695  0.0980
   10MOL    C45 3303   6.729   1.502   5.434  0.0315  0.7239  0.0448
   10MOL    H46 3304   7.111   2.037   5.542  0.2084  0.4523 -1.1269
   10MOL    H47 3305   7.211   1.977   5.417  0.1163 -0.3458 -0.7887
   10MOL    H48 3306   7.015   1.818   5.593  0.5437  0.3873  0.9466
   10MOL    H49 3307   7.050   1.473   5.344  1.0048 -3.4033  1.6814
   10MOL    H50 3308   6.961   1.401   5.482 -0.0576 -0.3817 -1.3173
   10MOL    H51 3309   6.847   1.611   5.301 -1.7471 -0.4204 -0.9853
   10MOL    H52 3310   6.830   1.447   5.261 -0.0262  1.9017 -0.9805
   10MOL    H53 3311   6.724   1.568   5.520 -0.2159  0.4277  0.2583
   10MOL    H54 3312   6.728   1.411   5.495 -0.0123  0.3524 -0.5053
   10MOL    H55 3313   6.638   1.498   5.375  1.5584  0.5691 -2.3915
   10MOL    C56 3314   7.219   1.792   5.624 -0.5456  1.0077  0.3276
   10MOL    C57 3315   7.241   1.884   5.749  0.3017  0.5989  0.1045
   10MOL    C58 3316   7.118   1.890   5.842 -0.0312  0.2736  0.2091
   10MOL    O59 3317   7.035   1.804   5.838 -0.2790  0.2915 -0.7924
   10MOL    O60 3318   7.122   1.988   5.925 -0.5922  0.2232  0.4747
   10MOL    C61 3319   7.020   2.002   6.018 -0.4125  0.0601 -0.9125
   10MOL    C62 3320   7.009   2.142   6.077  0.3212 -0.9986  0.5934
   10MOL    C63 3321   7.137   2.196   6.139 -0.6577 -0.3320 -0.0840
   10MOL    H64 3322   7.315   1.798   5.572 -0.2651  2.0278  0.9475
   10MOL    H65 3323   7.197   1.689   5.653 -0.9057  0.8005 -0.6690
   10MOL    H66 3324   7.257   1.984   5.709 -2.3287  1.0304  0.0174
   10MOL    H67 3325   6.928   1.975   5.967 -0.4703 -2.5495  0.4583
   10MOL    H68 3326   7.042   1.935   6.101 -1.0540  1.0635  0.0847
   10MOL    H69 3327   6.994   2.211   5.994  2.4605 -1.3895 -0.1452
   10MOL    H70 3328   6.937   2.148   6.158 -0.6438 -0.6617 -0.2829
   10MOL    H71 3329   7.225   2.164   6.084 -0.0029  1.3845 -0.0726
   10MOL    H72 3330   7.157   2.156   6.238  0.5662  1.6284  0.4897
   10MOL    H73 3331   7.139   2.305   6.148 -1.1676 -0.4151  1.2240
   10MOL    C74 3332   7.368   1.847   5.830  0.2830  0.3820 -0.0708
   10MOL    C75 3333   7.493   1.946   5.816 -0.3577  1.2348  0.3332
   10MOL    C76 3334   7.556   1.942   5.675  0.0314 -0.5439 -0.2066
   10MOL    O77 3335   7.676   1.905   5.670  0.3023  0.1263 -0.0990
   10MOL    O78 3336   7.477   1.992   5.575  0.2655 -0.1594  0.1665
   10MOL    C79 3337   7.531   2.012   5.445 -0.1824 -0.3492  0.3306
   10MOL    C80 3338   7.545   2.166   5.411 -0.0369 -0.0860 -0.3370
   10MOL    C81 3339   7.430   2.249   5.455  0.3682 -0.3527  0.0759
   10MOL    H82 3340   7.403   1.745   5.817 -0.2333  0.1254  0.5314
   10MOL    H83 3341   7.350   1.848   5.938 -2.7213 -1.3900 -0.5020
   10MOL    H84 3342   7.567   1.901   5.883 -3.2367 -0.9107  2.2112
   10MOL    H85 3343   7.625   1.958   5.433  0.0795 -0.3829  2.3265
   10MOL    H86 3344   7.478   1.951   5.372 -0.0381 -1.1447  0.8757
   10MOL    H87 3345   7.643   2.208   5.433 -0.5038  1.0818 -0.4278
   10MOL    H88 3346   7.536   2.174   5.303 -1.2445 -1.1565 -0.3283
   10MOL    H89 3347   7.414   2.339   5.396 -1.2279 -3.2380 -4.1364
   10MOL    H90 3348   7.441   2.254   5.564  1.4517  1.3833 -0.0994
   10MOL    H91 3349   7.343   2.183   5.451  0.0561  0.0799 -0.2543
   10MOL    C92 3350   7.461   2.092   5.869  0.2743  0.3522 -0.1750
   10MOL    C93 3351   7.576   2.188   5.873 -0.0637  0.3391 -0.1135
   10MOL    C94 3352   7.530   2.327   5.930 -0.1671  0.6360  0.3573
   10MOL    O95 3353   7.522   2.425   5.855 -0.1286  0.4800  0.1755
   10MOL    O96 3354   7.484   2.323   6.054  0.2354  0.4949  0.5708
   10MOL    C97 3355   7.430   2.443   6.109 -0.4376  0.5880 -0.4731
   10MOL    C98 3356   7.433   2.433   6.265 -0.4024 -0.0161 -0.2448
   10MOL    C99 3357   7.405   2.572   6.320 -0.0684 -0.0408 -0.3074
   10MOL   H100 3358   7.413   2.079   5.966 -0.2388  2.2021 -0.1536
   10MOL   H101 3359   7.379   2.150   5.824  0.3535 -0.6894 -1.6903
   10MOL   H102 3360   7.605   2.206   5.770  0.9042 -1.0571 -0.0918
   10MOL   H103 3361   7.488   2.530   6.078  1.7613 -0.4725  0.5354
   10MOL   H104 3362   7.333   2.471   6.068 -0.3709  2.3588  0.5317
   10MOL   H105 3363   7.360   2.363   6.305  0.0076  0.1795  0.8723
   10MOL   H106 3364   7.534   2.408   6.297 -0.6105  1.0564  1.2915
   10MOL   H107 3365   7.458   2.655   6.273 -1.5880  0.4191 -1.2905
   10MOL   H108 3366   7.417   2.572   6.428  2.2773 -0.1164 -0.5579
   10MOL   H109 3367   7.298   2.585   6.298 -0.0087 -1.0243 -1.2191
   10MOL   C110 3368   7.702   2.133   5.951  0.0202 -0.0351  0.6047
   10MOL   C111 3369   7.837   2.208   5.925  0.1943 -0.1939 -0.0636
   10MOL   C112 3370   0.061   2.193   6.036  0.1550 -0.4684 -0.5782
   10MOL   O113 3371   0.081   2.272   6.130  0.2830  0.0272 -0.0804
   10MOL   O114 3372   0.126   2.085   6.025 -0.4884 -0.4356 -0.1303
   10MOL   C115 3373   0.219   2.042   6.122  0.6749  0.2535  0.6903
   10MOL   C116 3374   0.354   2.107   6.082 -0.1081 -0.4125 -0.2879
   10MOL   C117 3375   0.443   2.102   6.204 -0.4196  0.2687 -0.5810
   10MOL   H118 3376   7.719   2.025   5.957 -1.8565 -0.3720  0.0017
   10MOL   H119 3377   7.684   2.154   6.057  3.3517  2.2801  0.7868
   10MOL   H120 3378   7.807   2.312   5.930 -0.5106 -0.3132 -1.6801
   10MOL   H121 3379   0.185   2.065   6.223 -1.1589  1.3926 -0.1552
   10MOL   H122 3380   0.240   1.935   6.127 -0.2863 -0.0329 -1.0177
   10MOL   H123 3381   0.407   2.045   6.009  0.1572 -0.2565 -0.2272
   10MOL   H124 3382   0.336   2.205   6.038  2.3419 -0.3096 -1.1673
   10MOL   H125 3383   0.455   2.001   6.244  0.1624 -0.1424 -1.7593
   10MOL   H126 3384   0.404   2.167   6.281 -4.4573 -0.6450 -1.7388
   10MOL   H127 3385   0.548   2.119   6.180 -0.2678  2.6152  1.6494
   10MOL   C128 3386   0.005   2.177   5.782  0.3990 -0.1326 -0.4988
   10MOL   C129 3387   0.117   2.270   5.725 -0.7240 -0.1160  0.4165
   10MOL   C130 3388   0.250   2.192   5.725  0.3139  0.3723 -0.6181
   10MOL   O131 3389   0.348   2.228   5.790 -0.3349  0.4216 -0.4038
   10MOL   O132 3390   0.250   2.080   5.641  0.3689 -0.2684 -0.2645
   10MOL   C133 3391   0.345   1.978   5.649  0.7345 -0.5822 -0.2308
   10MOL   C134 3392   0.347   1.887   5.524 -0.2808  0.6413  0.3374
   10MOL   C135 3393   0.347   1.963   5.390  0.3220 -0.4019  0.5073
   10MOL   H136 3394   7.802   2.184   5.711 -0.2754  0.9951  0.3919
   10MOL   H137 3395   0.029   2.070   5.779  1.6224  0.1498 -1.1210
   10MOL   H138 3396   0.128   2.350   5.799  0.6686 -1.3777  1.5952
   10MOL   H139 3397   0.446   2.021   5.651  0.9238 -1.1122  1.7479
   10MOL   H140 3398   0.321   1.913   5.733 -1.2929 -1.3533 -1.3773
   10MOL   H141 3399   0.432   1.819   5.530  1.0527  2.3610  1.3509
   10MOL   H142 3400   0.258   1.823   5.528  0.8309 -1.0019 -0.7613
   10MOL   H143 3401   0.430   2.034   5.380 -0.5904  0.2144 -3.3664
   10MOL   H144 3402   0.258   2.025   5.379  1.1377  0.8171  0.6993
   10MOL   H145 3403   0.345   1.898   5.302  1.2947  1.2971 -0.8026
   10MOL   C146 3404   0.082   2.325   5.590  0.1953  0.0288 -0.2809
   10MOL   C147 3405   7.850   2.434   5.587  0.0641  0.2075 -0.4536
   10MOL   C148 3406   0.011   2.554   5.666  0.0674 -0.6486 -0.0205
   10MOL   O149 3407   0.132   2.586   5.669  0.1017  0.0329  0.4360
   10MOL   O150 3408   7.795   2.619   5.731  0.0829 -0.2501  0.2119
   10MOL   C151 3409   7.814   2.729   5.814 -0.1309  0.9868 -0.0151
   10MOL   C152 3410   7.734   2.714   5.943 -0.3607  0.2974  0.2688
   10MOL   C153 3411   7.794   2.602   6.037 -1.2689  0.0232 -0.1827
   10MOL   H154 3412   0.058   2.241   5.524 -1.6964 -1.0043  1.6517
   10MOL   H155 3413   0.172   2.365   5.544  0.7011 -0.9876 -0.1960
   10MOL   H156 3414   7.762   2.396   5.638  0.3489  0.3549  0.1498
   10MOL   H157 3415   0.040   2.740   5.836  0.6346  0.4497 -3.2647
   10MOL   H158 3416   7.776   2.810   5.751  1.2866  2.4572  0.9621
   10MOL   H159 3417   7.710   2.806   5.995 -1.1632 -0.3868  1.1328
   10MOL   H160 3418   7.639   2.677   5.905  0.4235 -2.1283  0.5731
   10MOL   H161 3419   7.723   2.585   6.118 -0.7897  1.4495  0.5582
   10MOL   H162 3420   0.011   2.629   6.077 -0.9932  0.9840 -1.5005
   10MOL   H163 3421   7.799   2.504   5.990 -0.2959  0.1014 -0.2601
   10MOL   C164 3422   7.825   2.464   5.434  0.3962 -0.2367  0.6544
   10MOL   C165 3423   7.734   2.594   5.405 -0.6945 -0.1861  0.0180
   10MOL   C166 3424   7.760   2.632   5.255 -0.3963 -0.2332  0.4021
   10MOL   O167 3425   7.816   2.736   5.223 -0.0841  0.2780 -0.0836
   10MOL   O168 3426   7.721   2.537   5.179 -0.1412  0.2987 -0.5206
   10MOL   C169 3427   7.712   2.565   5.046 -0.6326  0.0721  0.5646
   10MOL   C170 3428   7.563   2.598   5.010  0.3340 -0.5707 -0.0910
   10MOL   C171 3429   7.458   2.488   5.039  0.2681 -0.2628 -0.1867
   10MOL   H172 3430   7.779   2.380   5.383  2.1198  0.1834 -1.6400
   10MOL   H173 3431   0.043   2.475   5.389 -0.5830  0.6027 -1.3614
   10MOL   H174 3432   7.762   2.682   5.462 -1.2621 -0.7372  1.1842
   10MOL   H175 3433   7.769   2.648   5.007  0.5878  0.9567  4.0665
   10MOL   H176 3434   7.751   2.480   4.990  0.8803  1.4518 -0.4960
   10MOL   H177 3435   7.537   2.686   5.070  0.4987  1.1007 -2.4055
   10MOL   H178 3436   7.559   2.628   4.906  1.5815  0.6335  0.1851
   10MOL   H179 3437   7.503   2.392   5.014  0.3196  0.0086 -1.1455
   10MOL   H180 3438   7.364   2.502   4.985 -1.1966 -0.1200  2.2860
   10MOL   H181 3439   7.430   2.485   5.144  0.1825 -1.2634 -0.2346
   10MOL   C182 3440   7.590   2.557   5.442  0.0189 -0.7455  0.2170
   10MOL   C183 3441   7.509   2.671   5.512  0.3324  0.2432 -0.9476
   10MOL   C184 3442   7.485   2.793   5.425  0.1654  0.0034  0.5661
   10MOL   O185 3443   7.513   2.902   5.467  0.0288 -0.2284 -0.2669
   10MOL   O186 3444   7.413   2.768   5.317  0.7493  0.2646  0.1575
   10MOL   C187 3445   7.370   2.874   5.231 -0.0830  0.1601  0.1322
   10MOL   C188 3446   7.260   2.820   5.142  0.6424 -0.1586 -0.2160
   10MOL   C189 3447   7.119   2.832   5.209  0.1486  0.1034  0.1049
   10MOL   H190 3448   7.600   2.478   5.517  0.7710 -0.0676  0.8253
   10MOL   H191 3449   7.531   2.516   5.360  0.2942 -0.1020 -0.3014
   10MOL   H192 3450   7.564   2.703   5.600 -0.2860 -2.3941  0.4568
   10MOL   H193 3451   7.326   2.957   5.288  2.9200  1.3048  0.8396
   10MOL   H194 3452   7.449   2.894   5.159 -0.7337 -0.1165 -0.6688
   10MOL   H195 3453   7.260   2.888   5.057 -1.1631  1.1432  0.7929
   10MOL   H196 3454   7.282   2.719   5.108 -2.5978 -0.8999 -0.2364
   10MOL   H197 3455   7.107   2.934   5.244 -3.2093 -0.7278  1.5873
   10MOL   H198 3456   7.113   2.767   5.297 -0.2889 -0.7621 -0.5619
   10MOL   H199 3457   7.037   2.814   5.140  0.7224  0.1030 -0.5871
   10MOL   C200 3458   7.370   2.624   5.572 -0.5894  0.0463 -0.5293
   10MOL   C201 3459   7.276   2.723   5.646 -0.7632 -0.4564 -0.5208
   10MOL   C202 3460   7.134   2.664   5.668 -0.2800  0.0608  0.4260
   10MOL   O203 3461   7.032   2.712   5.612 -0.6284 -0.1077  0.1634
   10MOL   O204 3462   7.135   2.560   5.751 -0.3742 -0.0599  0.0513
   10MOL   C205 3463   7.014   2.488   5.776 -0.6249 -0.0547  0.1392
   10MOL   C206 3464   7.014   2.360   5.699 -0.0162  0.3788 -0.2170
   10MOL   C207 3465   7.136   2.283   5.743 -0.2147  0.9823  0.2281
   10MOL   H208 3466   7.393   2.542   5.639  1.2388  0.4656 -0.5926
   10MOL   H209 3467   7.315   2.589   5.485 -0.8402  0.1815 -0.4246
   10MOL   H210 3468   7.254   2.804   5.577  1.8920 -0.8948 -1.9336
   10MOL   H211 3469   7.004   2.469   5.883  2.1952 -2.2093  0.0904
   10MOL   H212 3470   6.924   2.544   5.751  0.7066  1.7581 -0.7045
   10MOL   H213 3471   6.918   2.317   5.726  0.3374 -0.5539 -0.4436
   10MOL   H214 3472   7.018   2.382   5.593  0.5649 -2.6248 -0.8590
   10MOL   H215 3473   7.128   2.177   5.718  0.8229  0.8858  0.2854
   10MOL   H216 3474   7.160   2.297   5.849  1.4488  0.3958 -0.0561
   10MOL   H217 3475   7.224   2.313   5.687 -0.0052 -0.2096 -0.1038
   10MOL   C218 3476   7.342   2.783   5.773 -0.2181 -0.4187 -1.2090
   10MOL   C219 3477   7.279   2.909   5.836 -0.6153  0.1674  0.6990
   10MOL   C220 3478   7.162   2.884   5.939 -0.4716 -0.9085 -0.1953
   10MOL   O221 3479   7.171   2.807   6.033 -0.3390  0.4754 -0.2302
   10MOL   O222 3480   7.061   2.961   5.906  0.2519 -0.2838 -0.8768
   10MOL   C223 3481   6.952   2.960   6.004 -0.0030  0.2882 -0.3235
   10MOL   C224 3482   6.813   2.996   5.944 -0.4391 -0.0297  0.0408
   10MOL   C225 3483   6.771   2.900   5.834 -0.1112 -0.0451  0.1342
   10MOL   H226 3484   7.450   2.793   5.769 -0.3160  1.5125  0.7059
   10MOL   H227 3485   7.349   2.702   5.846  2.6724  0.4988 -0.4257
   10MOL   H228 3486   7.237   2.967   5.755  0.0108 -3.9002 -2.7172
   10MOL   H229 3487   6.945   2.864   6.055  0.5232  1.0726  1.2563
   10MOL   H230 3488   6.975   3.032   6.082  0.4338  1.0872 -1.1740
   10MOL   H231 3489   6.734   3.004   6.019  0.1636  1.3589  0.5341
   10MOL   H232 3490   6.825   3.098   5.908  1.5444 -1.1556 -2.6981
   10MOL   H233 3491   6.830   2.913   5.743 -0.7141 -2.1184 -0.5752
   10MOL   H234 3492   6.673   2.922   5.789  0.7679  1.2487 -1.2141
   10MOL   H235 3493   6.774   2.795   5.862 -0.6206  0.3375  1.6543
   10MOL   C236 3494   7.381   2.993   5.909  0.3798 -0.5401 -0.3811
   10MOL   C237 3495   7.335   3.142   5.939 -0.3409 -0.0884  0.0590
   10MOL   C238 3496   7.252   3.164   6.070  0.2646 -0.1003 -0.3826
   10MOL   O239 3497   7.267   3.099   6.174 -0.5411 -0.1222 -0.2204
   10MOL   O240 3498   7.172   3.275   6.066  0.2806  0.0644 -0.7116
   10MOL   C241 3499   7.108   3.306   6.188 -0.1351 -0.3485 -0.0993
   10MOL   C242 3500   6.993   3.404   6.172  0.0583 -0.5008  0.2257
   10MOL   C243 3501   7.047   3.545   6.145  0.2202 -0.7371 -0.5761
   10MOL   H244 3502   7.461   2.996   5.835 -0.0486  1.0079 -0.7995
   10MOL   H245 3503   7.418   2.944   5.998 -0.7905 -1.4756 -0.3932
   10MOL   H246 3504   7.277   3.174   5.853 -0.0603  0.2588 -0.0008
   10MOL   H247 3505   7.068   3.210   6.222 -2.7040  1.0924  1.1265
   10MOL   H248 3506   7.179   3.340   6.264  0.0051 -1.4785  0.2900
   10MOL   H249 3507   6.921   3.372   6.097  0.1917  1.2453 -0.6767
   10MOL   H250 3508   6.932   3.407   6.262  0.4724  0.4934  0.4817
   10MOL   H251 3509   6.983   3.630   6.172  0.9412 -0.1529 -0.6796
   10MOL   H252 3510   7.074   3.556   6.040  1.6480 -2.3308 -0.4002
   10MOL   H253 3511   7.136   3.562   6.205 -0.9506  0.9214  0.7550
   10MOL   C254 3512   7.444   3.249   5.935 -0.4095  0.2706  0.5198
   10MOL   C255 3513   7.483   3.297   5.797 -0.1212 -0.7196  0.3060
   10MOL   C256 3514   7.369   3.384   5.731  0.5568 -0.1288  0.5154
   10MOL   O257 3515   7.301   3.334   5.640 -0.0582  0.9647  0.0619
   10MOL   O258 3516   7.358   3.507   5.783 -0.5664 -0.1904 -0.0500
   10MOL   C259 3517   7.282   3.610   5.719 -0.3590  0.3702 -0.8517
   10MOL   C260 3518   7.378   3.694   5.621  0.6227  0.9062  0.1599
   10MOL   C261 3519   7.322   3.823   5.572 -0.2020  0.1557  0.5183
   10MOL   H262 3520   7.535   3.204   5.977 -0.9183  0.6666  2.0709
   10MOL   H263 3521   7.416   3.329   6.003 -1.6931  0.7049 -0.5029
   10MOL   H264 3522   7.483   3.206   5.736 -0.5714 -0.1712 -0.5078
   10MOL   H265 3523   7.196   3.566   5.669 -2.3088 -0.9921  3.4726
   10MOL   H266 3524   7.244   3.680   5.793 -1.8437 -1.8234  0.4910
   10MOL   H267 3525   7.473   3.714   5.671 -0.4824  0.4591  2.5384
   10MOL   H268 3526   7.400   3.626   5.539  1.6743  1.0068  0.3570
   10MOL   H269 3527   7.382   3.866   5.492  0.0310 -1.4260 -0.1799
   10MOL   H270 3528   7.316   3.895   5.653  1.8392 -1.3551  2.0863
   10MOL   H271 3529   7.223   3.806   5.531  0.3512  0.2462 -0.8979
   10MOL   C272 3530   7.622   3.381   5.804 -1.2232 -0.6203  0.0635
   10MOL   C273 3531   7.746   3.302   5.848  0.4039 -0.2731  0.2062
   10MOL   C274 3532   7.767   3.173   5.759 -0.5166  0.3151  0.2258
   10MOL   O275 3533   7.787   3.067   5.818 -0.6062  0.2939  0.0334
   10MOL   O276 3534   7.780   3.198   5.621 -0.1941  0.0764  0.5986
   10MOL   C277 3535   7.825   3.093   5.541 -0.2026 -0.6684  0.0853
   10MOL   C278 3536   0.010   3.152   5.419  0.4424 -0.0308 -0.4323
   10MOL   C279 3537   0.127   3.240   5.454  0.0739  0.6308  0.2796
   10MOL   H280 3538   7.609   3.463   5.874  1.9523 -0.0537  0.0789
   10MOL   H281 3539   7.642   3.422   5.705  1.0224  0.6683  1.0085
   10MOL   H282 3540   7.738   3.271   5.952 -2.0166 -0.5196 -0.0217
   10MOL   H283 3541   0.032   3.043   5.582 -0.6306 -1.8787 -0.4481
   10MOL   H284 3542   7.748   3.018   5.522  0.1769 -0.5012 -2.2803
   10MOL   H285 3543   0.053   3.068   5.365 -1.8504 -1.7604  0.3475
   10MOL   H286 3544   7.804   3.193   5.366 -2.4922 -2.0786  2.5710
   10MOL   H287 3545   0.208   3.179   5.495 -1.8206 -2.0351  0.2435
   10MOL   H288 3546   0.103   3.319   5.524 -1.2656  1.3800 -0.9955
   10MOL   H289 3547   0.163   3.289   5.364  0.6815  1.7010  1.1013
   10MOL   C290 3548   7.868   3.399   5.834 -0.1880  0.4501  0.1298
   10MOL   C291 3549   7.876   3.527   5.926 -0.6449  0.3775 -0.1109
   10MOL   C292 3550   7.825   3.510   6.068 -0.4580  0.4315  0.3752
   10MOL   O293 3551   7.724   3.559   6.111 -0.0298  0.3265  0.3620
   10MOL   O294 3552   0.027   3.431   6.139  0.9779 -0.6901 -0.0623
   10MOL   C295 3553   0.005   3.411   6.281  0.3972  0.6993 -0.0891
   10MOL   C296 3554   0.021   3.531   6.372 -0.3202 -0.4091  0.5409
   10MOL   C297 3555   0.165   3.567   6.371 -0.2704  0.2043  0.2217
   10MOL   H298 3556   7.874   3.425   5.729 -2.1379  0.2122 -0.0653
   10MOL   H299 3557   0.075   3.336   5.851 -1.5212 -1.4552  0.0896
   10MOL   H300 3558   7.814   3.606   5.883 -0.8919 -0.6089 -1.6138
   10MOL   H301 3559   7.781   3.382   6.286  0.0990  1.6849 -0.4329
   10MOL   H302 3560   0.071   3.332   6.317  1.6650  1.7445 -0.0920
   10MOL   H303 3561   7.842   3.620   6.350 -2.6934 -2.1711 -0.4557
   10MOL   H304 3562   7.869   3.493   6.469 -2.1597  0.4893  0.2936
   10MOL   H305 3563   0.240   3.490   6.388 -2.2055 -1.9312 -0.5773
   10MOL   H306 3564   0.180   3.653   6.436  0.3903  0.9894 -0.9543
   10MOL   H307 3565   0.191   3.604   6.272 -1.5739 -0.0237 -0.2178
   10MOL   C308 3566   0.139   3.580   5.926 -0.1611 -0.4980 -0.8998
   10MOL   C309 3567   0.184   3.653   5.797 -0.3069  0.7485  0.0691
   10MOL   C310 3568   0.104   3.783   5.767 -0.2545  0.1814 -0.0251
   10MOL   O311 3569   0.063   3.800   5.647  0.8394  0.2451  0.0425
   10MOL   O312 3570   0.092   3.871   5.876 -0.1068  0.1004 -0.6504
   10MOL   C313 3571   0.002   3.972   5.865 -0.3630 -0.4557 -0.1699
   10MOL   C314 3572   0.004   4.072   5.988 -0.4652 -0.5201 -0.2181
   10MOL   C315 3573   7.842   4.010   6.121 -0.3530 -0.6294 -0.1039
   10MOL   H316 3574   0.213   3.504   5.950 -1.3559 -1.3850 -0.0190
   10MOL   H317 3575   0.154   3.652   6.007 -1.2214 -1.5318  0.2326
   10MOL   H318 3576   0.171   3.588   5.710  1.4045  2.6461 -1.6771
   10MOL   H319 3577   0.015   4.030   5.774 -1.3105 -0.6732 -0.4439
   10MOL   H320 3578   7.782   3.932   5.863 -0.5430  0.0516 -2.5711
   10MOL   H321 3579   0.104   4.114   6.003 -0.6410  0.2017 -0.9977
   10MOL   H322 3580   7.813   4.154   5.981 -1.2332 -1.3646 -2.9423
   10MOL   H323 3581   7.738   3.981   6.106 -0.9360 -0.5871  3.3265
   10MOL   H324 3582   0.027   3.924   6.137  0.8543  0.9713  4.2980
   10MOL   H325 3583   7.856   4.061   6.217  1.0686  0.3275 -0.8041
   10MOL   C326 3584   0.331   3.694   5.795  0.3040  0.1474 -0.0634
   10MOL   C327 3585   0.439   3.582   5.788  0.2957 -0.5316  1.1643
   10MOL   C328 3586   0.421   3.491   5.665  0.9416 -0.6072 -0.1639
   10MOL   O329 3587   0.379   3.375   5.677  0.6195 -0.2732 -0.4021
   10MOL   O330 3588   0.446   3.559   5.555  0.5008  0.7104 -0.2160
   10MOL   C331 3589   0.458   3.486   5.431  0.2516 -0.2774 -0.5475
   10MOL   C332 3590   0.568   3.550   5.337  0.2510  0.5678  0.1926
   10MOL   C333 3591   0.689   3.581   5.416  0.3299  0.0947 -0.6007
   10MOL   H334 3592   0.357   3.760   5.878  1.8363 -3.3220  2.3394
   10MOL   H335 3593   0.350   3.756   5.707 -1.7414 -0.6899 -1.1181
   10MOL   H336 3594   0.419   3.523   5.877  4.5209 -0.4091  2.2976
   10MOL   H337 3595   0.497   3.386   5.447  0.6031 -0.0404  0.0978
   10MOL   H338 3596   0.366   3.473   5.373  1.0194  2.0943 -2.4035
   10MOL   H339 3597   0.593   3.476   5.261  2.0044  2.4065 -1.0665
   10MOL   H340 3598   0.535   3.640   5.286 -0.5993 -0.7799 -1.6983
   10MOL   H341 3599   0.723   3.497   5.476 -1.2487  1.6333  2.5576
   10MOL   H342 3600   0.771   3.612   5.351  1.0081 -1.8977 -0.7453
   10MOL   H343 3601   0.678   3.658   5.492  2.2291  0.7428 -0.9539
   10MOL   C344 3602   0.578   3.647   5.809 -0.1816 -0.2575  0.0437
   10MOL   C345 3603   0.691   3.549   5.807  0.4097  0.1273  0.0931
   10MOL   C346 3604   0.829   3.611   5.770  0.6045 -0.0401  0.3922
   10MOL   O347 3605   0.870   3.717   5.820 -0.1851  0.8309 -0.4972
   10MOL   O348 3606   0.900   3.534   5.686  0.3086 -0.8618  0.1965
   10MOL   C349 3607   1.039   3.573   5.652  1.0043  0.1877  0.1553
   10MOL   C350 3608   1.042   3.597   5.501 -0.3590  0.4219  0.2546
   10MOL   C351 3609   0.993   3.738   5.459  0.3139 -0.4697  0.0519
   10MOL   H352 3610   0.575   3.702   5.903  0.9125  0.3142 -0.2474
   10MOL   H353 3611   0.592   3.723   5.733 -0.3196 -0.5631 -0.2901
   10MOL   H354 3612   0.661   3.474   5.734  2.6844  1.4787 -2.3141
   10MOL   H355 3613   1.083   3.656   5.707 -0.3097 -0.2583  1.9414
   10MOL   H356 3614   1.101   3.486   5.677  2.5287  1.1665 -0.1444
   10MOL   H357 3615   1.145   3.578   5.470 -0.0103  2.5543 -0.0051
   10MOL   H358 3616   0.975   3.534   5.444 -0.9148  1.0141  0.2467
   10MOL   H359 3617   0.951   3.755   5.359 -2.9152  0.6825  1.5262
   10MOL   H360 3618   0.906   3.769   5.517  0.5495  1.8829 -0.7752
   10MOL   H361 3619   1.060   3.824   5.452  1.8702 -1.5106  1.7544
   10MOL   H362 3620   0.693   3.480   5.891 -0.7923 -1.1364 -0.8832
   11MOL     C1 3621   1.745   1.661   5.550 -0.8993 -0.5012  0.6753
   11MOL     C2 3622   1.880   1.608   5.494 -0.0961  0.5207  0.0509
   11MOL     C3 3623   1.865   1.539   5.358 -0.1725  0.3702  0.5453
   11MOL     O4 3624   1.930   1.429   5.335 -0.3071 -0.5265 -0.7080
   11MOL     O5 3625   1.774   1.590   5.275 -0.4668 -0.2570  0.1103
   11MOL     C6 3626   1.763   1.554   5.139  0.4973  0.1747  0.2053
   11MOL     C7 3627   1.869   1.626   5.060  1.1475 -0.2686 -0.0540
   11MOL     C8 3628   1.824   1.773   5.028 -0.2597  0.5929 -0.5921
   11MOL     H9 3629   1.768   1.711   5.643  2.6152  1.2240 -1.0173
   11MOL    H10 3630   1.698   1.734   5.484 -1.2991 -1.6282 -0.3021
   11MOL    H11 3631   1.933   1.542   5.563 -0.6744 -0.8415 -0.7984
   11MOL    H12 3632   1.778   1.447   5.121 -0.2829  0.0101  0.5066
   11MOL    H13 3633   1.666   1.565   5.091 -0.2562  0.8024  1.8507
   11MOL    H14 3634   1.970   1.622   5.101  0.7004 -2.8579  0.8480
   11MOL    H15 3635   1.880   1.578   4.962  0.5703 -1.3433  0.4044
   11MOL    H16 3636   1.799   1.823   5.121 -1.4051 -1.1502  0.0590
   11MOL    H17 3637   1.902   1.837   4.986 -0.7660  1.2086 -0.5985
   11MOL    H18 3638   1.729   1.779   4.976 -1.7403  1.9189  2.1729
   11MOL    H19 3639   1.671   1.583   5.569 -1.9671 -0.3783 -2.6011
   11MOL    C20 3640   1.972   1.730   5.486 -0.0965  0.3116  0.2951
   11MOL    C21 3641   2.107   1.702   5.413 -0.6681  0.0945  0.2231
   11MOL    C22 3642   2.176   1.835   5.387 -0.0097  0.6794  0.2781
   11MOL    O23 3643   2.185   1.882   5.277  0.0382  0.1781  0.4558
   11MOL    O24 3644   2.215   1.895   5.503  0.0842  0.4616  0.3459
   11MOL    C25 3645   2.225   2.040   5.512  0.3856  0.1609 -0.2673
   11MOL    C26 3646   2.099   2.084   5.587 -0.5850 -0.0793 -0.0977
   11MOL    C27 3647   2.091   2.034   5.728 -0.1454  0.0865 -0.3472
   11MOL    H28 3648   1.995   1.768   5.586 -0.8694 -0.7161  0.8785
   11MOL    H29 3649   1.931   1.811   5.427  2.5264  1.7552  0.3789
   11MOL    H30 3650   2.087   1.663   5.313 -2.5085 -1.3874  1.1234
   11MOL    H31 3651   2.318   2.048   5.569 -0.1662 -0.5468  0.7535
   11MOL    H32 3652   2.238   2.086   5.414  1.0410  2.1975  0.7351
   11MOL    H33 3653   2.102   2.193   5.579 -0.6618  0.1158  2.0814
   11MOL    H34 3654   2.009   2.051   5.535  0.2413  0.1307 -1.6994
   11MOL    H35 3655   1.994   2.067   5.763  1.1614  3.5846  0.1971
   11MOL    H36 3656   2.174   2.079   5.783  1.0933  1.3761 -3.1156
   11MOL    H37 3657   2.094   1.927   5.743  0.1771  0.3378  1.4161
   11MOL    C38 3658   2.203   1.605   5.480  0.2315  0.3904  0.4212
   11MOL    C39 3659   2.339   1.585   5.402  0.4722 -0.2333 -0.0207
   11MOL    C40 3660   2.449   1.651   5.479 -0.5471 -0.1795  0.3351
   11MOL    O41 3661   2.483   1.614   5.590  0.2503 -0.1597  0.4283
   11MOL    O42 3662   2.485   1.768   5.427 -0.0755  0.0958  0.5044
   11MOL    C43 3663   2.547   1.870   5.500 -0.1592 -0.7636 -0.4101
   11MOL    C44 3664   2.620   1.962   5.404  0.0057 -0.1541 -0.1326
   11MOL    C45 3665   2.695   2.075   5.474 -0.7384  0.1300 -0.2025
   11MOL    H46 3666   2.148   1.511   5.487 -0.3451  0.8689  2.7115
   11MOL    H47 3667   2.212   1.643   5.582 -0.8538 -0.3277  0.7948
   11MOL    H48 3668   2.327   1.633   5.305 -0.5908 -0.0167  0.2055
   11MOL    H49 3669   2.466   1.926   5.547  0.1246  0.4431 -1.3310
   11MOL    H50 3670   2.618   1.833   5.574 -3.1617  0.0297  3.0067
   11MOL    H51 3671   2.689   1.896   5.352 -0.8514  0.3916 -2.0245
   11MOL    H52 3672   2.551   1.995   5.325 -1.8820 -1.9546  0.7183
   11MOL    H53 3673   2.786   2.050   5.529 -0.1280  0.1864 -1.1926
   11MOL    H54 3674   2.619   2.113   5.543  1.4082 -1.2584  3.0837
   11MOL    H55 3675   2.711   2.166   5.417  1.8782  1.2737  2.2216
   11MOL    C56 3676   2.366   1.436   5.374 -0.1313  0.4635 -0.8327
   11MOL    C57 3677   2.290   1.358   5.261  0.6365 -0.3760  0.4179
   11MOL    C58 3678   2.284   1.426   5.125 -0.4534  0.1761 -0.1200
   11MOL    O59 3679   2.177   1.460   5.064 -0.0431  0.6552 -0.5659
   11MOL    O60 3680   2.411   1.457   5.080  0.1005 -0.2980  0.6237
   11MOL    C61 3681   2.421   1.540   4.968 -0.0566  0.6065  0.2951
   11MOL    C62 3682   2.560   1.599   4.973 -0.1922  0.4071 -0.7331
   11MOL    C63 3683   2.593   1.698   5.090 -0.0171  0.1588  0.0203
   11MOL    H64 3684   2.360   1.372   5.461  0.5498 -0.7244 -1.6425
   11MOL    H65 3685   2.471   1.429   5.343  0.2147 -0.2340  0.4724
   11MOL    H66 3686   2.188   1.370   5.298  1.4541  1.5554  2.1651
   11MOL    H67 3687   2.401   1.478   4.880  1.5325  1.3888 -0.6430
   11MOL    H68 3688   2.345   1.618   4.973  0.9247  1.7377 -1.5028
   11MOL    H69 3689   2.627   1.513   4.981 -1.2075 -0.3585 -0.4089
   11MOL    H70 3690   2.572   1.639   4.873  0.4913  1.1650 -0.3542
   11MOL    H71 3691   2.579   1.793   5.039  2.6408 -0.9514 -2.9640
   11MOL    H72 3692   2.689   1.689   5.140 -0.9335  1.8661  2.1713
   11MOL    H73 3693   2.514   1.703   5.165  0.1746  0.4978  0.2010
   11MOL    C74 3694   2.318   1.203   5.261 -0.8018 -1.1346  0.0767
   11MOL    C75 3695   2.228   1.113   5.172  0.2393 -0.4101 -0.4156
   11MOL    C76 3696   2.285   0.971   5.153 -0.4539  0.2961 -0.0689
   11MOL    O77 3697   2.339   0.940   5.044  0.1122 -0.0417 -0.5091
   11MOL    O78 3698   2.272   0.894   5.270 -0.0880 -0.5010 -0.4011
   11MOL    C79 3699   2.348   0.775   5.275  0.4140 -0.1568  0.2010
   11MOL    C80 3700   2.283   0.661   5.189 -0.3885  0.0397 -0.0390
   11MOL    C81 3701   2.146   0.616   5.245 -0.4535 -0.1121  0.5830
   11MOL    H82 3702   2.309   1.177   5.366 -0.3038  0.8121  0.6203
   11MOL    H83 3703   2.423   1.196   5.231 -0.1382  1.4419  1.6443
   11MOL    H84 3704   2.213   1.156   5.073  1.8594 -1.5948 -1.2043
   11MOL    H85 3705   2.447   0.783   5.229 -0.2110 -0.7816 -1.2606
   11MOL    H86 3706   2.356   0.725   5.372  3.8411 -0.6858 -0.2764
   11MOL    H87 3707   2.285   0.688   5.084  1.7359  0.1885  0.0191
   11MOL    H88 3708   2.343   0.569   5.191  0.3479  0.4978  3.5419
   11MOL    H89 3709   2.168   0.581   5.346 -0.9952 -1.1372  0.3541
   11MOL    H90 3710   2.107   0.532   5.187  3.2112 -1.6811  0.2470
   11MOL    H91 3711   2.069   0.693   5.250 -0.2257  0.3034 -2.0676
   11MOL    C92 3712   2.081   1.113   5.210  0.2879 -0.9776 -0.6312
   11MOL    C93 3713   1.992   1.014   5.131 -0.4230 -0.2282 -0.5686
   11MOL    C94 3714   1.848   1.028   5.193  0.6222  0.5227 -0.2035
   11MOL    O95 3715   1.781   0.939   5.246  0.1117 -0.4283  0.4364
   11MOL    O96 3716   1.806   1.156   5.169 -0.5465 -0.4192 -0.0283
   11MOL    C97 3717   1.668   1.184   5.191 -0.4457 -0.0152  0.0643
   11MOL    C98 3718   1.650   1.226   5.332 -0.3479  0.3431 -0.6080
   11MOL    C99 3719   1.506   1.272   5.357  0.0291 -0.3330 -0.0742
   11MOL   H100 3720   2.063   1.219   5.192 -0.1850 -1.1767 -1.3411
   11MOL   H101 3721   2.062   1.111   5.317  2.0264  0.1053 -0.2811
   11MOL   H102 3722   2.030   0.915   5.156 -1.8916 -0.7471 -0.3417
   11MOL   H103 3723   1.635   1.265   5.125  0.7669 -1.4014 -2.3230
   11MOL   H104 3724   1.599   1.108   5.154  0.4135 -1.9574  2.3176
   11MOL   H105 3725   1.672   1.139   5.393  1.7151  1.5977  0.4698
   11MOL   H106 3726   1.714   1.306   5.368 -1.6409  0.0388  2.5690
   11MOL   H107 3727   1.501   1.373   5.317  0.3406 -0.0917  0.4969
   11MOL   H108 3728   1.479   1.278   5.462 -1.5590 -1.5038 -0.3879
   11MOL   H109 3729   1.420   1.211   5.328 -0.2825  0.2113 -0.3091
   11MOL   C110 3730   1.997   1.010   4.977 -0.0214 -0.8992 -0.0526
   11MOL   C111 3731   1.891   0.923   4.913  0.7080 -0.0933 -0.1568
   11MOL   C112 3732   1.859   0.969   4.768 -0.5303 -0.1035 -0.4674
   11MOL   O113 3733   1.937   0.947   4.678  0.7549  0.0409 -0.4239
   11MOL   O114 3734   1.752   1.047   4.755  0.3338  0.0766  0.2205
   11MOL   C115 3735   1.724   1.109   4.641  0.0498 -0.0466 -0.8779
   11MOL   C116 3736   1.631   1.237   4.660  0.1683  0.2645  0.9867
   11MOL   C117 3737   1.702   1.349   4.740 -0.1325 -0.7849  0.0395
   11MOL   H118 3738   2.090   0.975   4.930  0.4695  1.0981 -0.5994
   11MOL   H119 3739   1.977   1.108   4.936 -0.9019 -2.1192 -2.6179
   11MOL   H120 3740   1.798   0.918   4.968  1.3850 -0.3859  0.9827
   11MOL   H121 3741   1.817   1.138   4.592  2.3692 -1.2299  2.6771
   11MOL   H122 3742   1.670   1.042   4.575 -2.1619 -2.1412  2.9014
   11MOL   H123 3743   1.582   1.274   4.569  1.4017 -0.0211  0.2011
   11MOL   H124 3744   1.544   1.206   4.718  0.3920 -0.7427  0.7911
   11MOL   H125 3745   1.734   1.301   4.833 -1.4492  0.8473  1.3702
   11MOL   H126 3746   1.633   1.430   4.764  0.6620 -0.2772  0.6782
   11MOL   H127 3747   1.788   1.390   4.688  0.7676 -2.3370  0.2806
   11MOL   C128 3748   1.944   0.772   4.926 -0.7518 -0.9443  0.3785
   11MOL   C129 3749   1.841   0.663   4.894  0.0550  0.3649 -0.0094
   11MOL   C130 3750   1.897   0.521   4.898 -0.3015  0.4543  0.0187
   11MOL   O131 3751   2.019   0.499   4.932 -0.7365  0.1178  0.7493
   11MOL   O132 3752   1.818   0.416   4.853  0.4462 -0.6056  0.1284
   11MOL   C133 3753   1.864   0.285   4.844 -0.5192 -0.1066 -0.5500
   11MOL   C134 3754   1.858   0.217   4.984  0.3788  0.3803 -0.4044
   11MOL   C135 3755   1.711   0.192   5.032  0.3738  0.0683  0.6371
   11MOL   H136 3756   1.993   0.755   5.021 -1.9706  0.7734  1.3413
   11MOL   H137 3757   2.024   0.759   4.853 -0.9863 -0.0736 -0.0450
   11MOL   H138 3758   1.808   0.684   4.792 -2.6644  0.5420  0.8611
   11MOL   H139 3759   1.792   0.238   4.777 -0.5425 -2.1480  0.8593
   11MOL   H140 3760   1.962   0.267   4.801  0.5913  0.8584  1.5091
   11MOL   H141 3761   1.884   0.113   4.968  0.5269  0.1990  1.0251
   11MOL   H142 3762   1.920   0.260   5.062  1.3633 -1.3394 -0.2330
   11MOL   H143 3763   1.655   0.186   4.938 -0.5163 -1.9773  1.2593
   11MOL   H144 3764   1.678   0.283   5.083 -2.1460 -0.5029  0.0796
   11MOL   H145 3765   1.706   0.100   5.090 -0.5101  0.3101  0.9463
   11MOL   C146 3766   1.726   0.677   4.991  0.5446  0.7650 -0.2379
   11MOL   C147 3767   1.596   0.732   4.930  0.4822  0.4069 -0.5757
   11MOL   C148 3768   1.519   0.614   4.868 -0.5764 -0.0025  0.2774
   11MOL   O149 3769   1.511   0.595   4.746 -0.0155 -0.2447  0.1220
   11MOL   O150 3770   1.463   0.529   4.963 -0.2411  0.3798  0.3337
   11MOL   C151 3771   1.386   0.418   4.913 -0.2134 -0.0706 -0.2608
   11MOL   C152 3772   1.237   0.458   4.885  1.0028  0.6174  0.7779
   11MOL   C153 3773   1.158   0.331   4.855  0.8127 -0.1783 -0.2246
   11MOL   H154 3774   1.760   0.738   5.074  1.1046 -0.2479  0.2825
   11MOL   H155 3775   1.711   0.583   5.043 -1.6191  1.9563  1.3673
   11MOL   H156 3776   1.622   0.796   4.846 -0.2500  2.4905  0.7474
   11MOL   H157 3777   1.422   0.389   4.815  0.2378  2.5596 -0.9231
   11MOL   H158 3778   1.397   0.335   4.983  0.7887  0.7361  0.5665
   11MOL   H159 3779   1.196   0.510   4.972  0.7751  0.5690  0.6996
   11MOL   H160 3780   1.216   0.538   4.813  0.5553 -0.9211 -0.8329
   11MOL   H161 3781   1.172   0.260   4.937 -1.2394  0.0701  0.3708
   11MOL   H162 3782   1.195   0.280   4.766  1.7863  1.3628 -0.7227
   11MOL   H163 3783   1.052   0.351   4.842  0.9927  0.0089 -1.4668
   11MOL   C164 3784   1.514   0.815   5.031 -0.2764  0.4423 -0.1376
   11MOL   C165 3785   1.386   0.880   4.981 -0.5120 -0.4312  0.2409
   11MOL   C166 3786   1.281   0.889   5.099  0.4097 -0.5904 -0.7179
   11MOL   O167 3787   1.164   0.846   5.089 -0.6024  0.4457  0.8171
   11MOL   O168 3788   1.326   0.954   5.203  0.1282  0.5205  0.2421
   11MOL   C169 3789   1.251   0.966   5.318 -0.0340  0.9191 -0.1922
   11MOL   C170 3790   1.316   0.883   5.433 -0.1502 -0.0491 -0.4052
   11MOL   C171 3791   1.466   0.914   5.450 -0.4112  0.1930 -1.1097
   11MOL   H172 3792   1.580   0.896   5.064  1.8661 -1.6267  0.8042
   11MOL   H173 3793   1.491   0.753   5.117 -3.3268 -0.6659 -1.6995
   11MOL   H174 3794   1.340   0.823   4.901 -1.5694  1.5611 -0.6106
   11MOL   H175 3795   1.255   1.066   5.362  1.2628  0.0822  1.6413
   11MOL   H176 3796   1.147   0.934   5.312  0.4035 -0.4087 -0.9604
   11MOL   H177 3797   1.258   0.908   5.522  3.0330  0.7585  1.5093
   11MOL   H178 3798   1.315   0.776   5.412 -1.1765 -0.3978  1.3527
   11MOL   H179 3799   1.484   1.019   5.474  1.2551 -0.2307 -0.3963
   11MOL   H180 3800   1.530   0.907   5.362  1.3209  1.4667  0.0256
   11MOL   H181 3801   1.505   0.848   5.528 -1.5551  0.8070 -0.0050
   11MOL   C182 3802   1.397   1.020   4.902 -0.8241 -0.3200 -0.0506
   11MOL   C183 3803   1.271   1.061   4.819  0.0756 -0.3555 -0.7143
   11MOL   C184 3804   1.275   1.218   4.801 -1.0027  0.3053  0.6868
   11MOL   O185 3805   1.302   1.271   4.692  0.0871  0.7893 -0.0075
   11MOL   O186 3806   1.248   1.285   4.917 -0.4543  0.4600  0.2705
   11MOL   C187 3807   1.265   1.425   4.920 -0.2437 -0.2861 -0.3700
   11MOL   C188 3808   1.288   1.468   5.068 -0.1248 -0.2921 -0.0643
   11MOL   C189 3809   1.175   1.459   5.163 -0.3469 -0.3149  0.2448
   11MOL   H190 3810   1.481   1.014   4.833  0.0905 -0.5518  1.0503
   11MOL   H191 3811   1.414   1.101   4.973 -2.4694 -1.2896  1.4830
   11MOL   H192 3812   1.181   1.047   4.879  0.2084 -2.0659 -0.8875
   11MOL   H193 3813   1.350   1.464   4.865  0.6782 -0.8849  0.6082
   11MOL   H194 3814   1.175   1.479   4.891 -0.8920 -0.8650  0.5466
   11MOL   H195 3815   1.371   1.411   5.108  2.8184  3.1243 -0.9807
   11MOL   H196 3816   1.317   1.574   5.067 -1.4196  0.0768  0.2440
   11MOL   H197 3817   1.080   1.498   5.126 -0.2795  0.3242  0.7382
   11MOL   H198 3818   1.206   1.510   5.254 -1.7913  0.7461  0.1596
   11MOL   H199 3819   1.149   1.356   5.190  2.8832 -1.3664 -0.3707
   11MOL   C200 3820   1.274   0.979   4.688  0.0340  0.1769  0.1681
   11MOL   C201 3821   1.133   0.938   4.639 -0.1384 -0.1168  0.0779
   11MOL   C202 3822   1.089   1.020   4.522 -0.1491  0.3360 -0.1380
   11MOL   O203 3823   0.988   1.089   4.541 -0.0187  0.1224 -1.1812
   11MOL   O204 3824   1.162   1.014   4.405 -0.2908 -0.2233 -0.2663
   11MOL   C205 3825   1.113   1.086   4.303  0.2291  0.6132 -0.7598
   11MOL   C206 3826   1.164   1.230   4.304  0.3051 -0.1215  0.6296
   11MOL   C207 3827   1.320   1.230   4.336  0.3547 -0.3390 -0.7015
   11MOL   H208 3828   1.329   0.886   4.706  2.1417  1.4767  0.5653
   11MOL   H209 3829   1.347   1.034   4.629  2.3275 -0.0039  2.7250
   11MOL   H210 3830   1.068   0.975   4.718 -1.0044  0.9312 -1.1028
   11MOL   H211 3831   1.154   1.027   4.221  0.9976 -0.6774  0.5329
   11MOL   H212 3832   1.004   1.088   4.299  0.1687 -1.6947 -0.5617
   11MOL   H213 3833   1.138   1.281   4.211  1.3863 -1.1682 -0.2711
   11MOL   H214 3834   1.107   1.281   4.381 -1.1156  1.1316 -1.2160
   11MOL   H215 3835   1.378   1.223   4.244 -0.4300  0.0643 -1.2266
   11MOL   H216 3836   1.367   1.162   4.407  1.0161  0.5229 -0.3090
   11MOL   H217 3837   1.353   1.328   4.367  0.2522  0.1054 -1.9637
   11MOL   C218 3838   1.120   0.786   4.604  0.3203 -0.5163 -0.0723
   11MOL   C219 3839   0.977   0.724   4.607 -0.2287 -0.4074  0.3848
   11MOL   C220 3840   0.970   0.605   4.511  0.2939 -0.3046  0.0533
   11MOL   O221 3841   0.884   0.606   4.426  0.3120 -0.1215 -0.2625
   11MOL   O222 3842   1.056   0.509   4.535  0.1048  0.8780 -0.1964
   11MOL   C223 3843   1.062   0.392   4.455  0.6547 -0.3148  0.1147
   11MOL   C224 3844   1.119   0.427   4.315  0.5710 -0.5853 -0.5552
   11MOL   C225 3845   1.146   0.300   4.228 -0.6702  0.2951  0.4473
   11MOL   H226 3846   1.186   0.725   4.666  1.2711  0.7445  0.1858
   11MOL   H227 3847   1.158   0.772   4.503  0.0141 -2.7806  0.0952
   11MOL   H228 3848   0.901   0.797   4.577 -1.1464 -1.9940 -1.2705
   11MOL   H229 3849   1.121   0.312   4.500  0.6848 -0.0182  0.6072
   11MOL   H230 3850   0.964   0.348   4.438 -0.4888  2.2225 -0.1138
   11MOL   H231 3851   1.044   0.484   4.260  0.9700  0.9132  0.4210
   11MOL   H232 3852   1.212   0.484   4.311  0.5520 -0.4597  0.6547
   11MOL   H233 3853   1.168   0.333   4.126  0.4279 -1.8819 -0.0410
   11MOL   H234 3854   1.066   0.226   4.235 -0.3774  0.0628  1.4009
   11MOL   H235 3855   1.236   0.250   4.263 -2.9503 -2.9807  1.9742
   11MOL   C236 3856   0.932   0.687   4.751 -0.5267 -0.1608  0.8639
   11MOL   C237 3857   0.781   0.655   4.775  0.5452 -0.6510  0.0168
   11MOL   C238 3858   0.691   0.761   4.718  0.0403  0.5506 -0.1306
   11MOL   O239 3859   0.591   0.729   4.658  0.2823  0.4561  0.2921
   11MOL   O240 3860   0.735   0.890   4.747  0.3860 -0.9809  0.5301
   11MOL   C241 3861   0.666   0.996   4.678  0.3620 -0.0425 -0.4379
   11MOL   C242 3862   0.533   1.034   4.746 -0.1392  0.3472  0.1676
   11MOL   C243 3863   0.462   1.154   4.684  0.0190  0.0755 -0.3149
   11MOL   H244 3864   0.943   0.769   4.822 -0.1715  0.3842  0.1902
   11MOL   H245 3865   0.986   0.605   4.798 -0.8693 -0.0833  1.4014
   11MOL   H246 3866   0.771   0.663   4.883  0.6206 -1.5075  0.0913
   11MOL   H247 3867   0.737   1.079   4.681  1.4249 -0.8948 -1.3514
   11MOL   H248 3868   0.652   0.976   4.572 -0.5471 -1.4103 -0.0747
   11MOL   H249 3869   0.470   0.945   4.737 -2.1605  1.8453 -1.0913
   11MOL   H250 3870   0.556   1.050   4.851 -0.7664 -0.0198  0.3685
   11MOL   H251 3871   0.377   1.184   4.746 -0.3729  1.8117 -1.6550
   11MOL   H252 3872   0.434   1.138   4.580  0.5694  0.3598 -0.5115
   11MOL   H253 3873   0.533   1.237   4.689  3.1618 -2.4214 -1.4744
   11MOL   C254 3874   0.749   0.509   4.740  0.5326  0.1442  0.1556
   11MOL   C255 3875   0.635   0.459   4.826  0.0256  0.7991  0.6949
   11MOL   C256 3876   0.539   0.361   4.746  0.7161 -1.2120 -0.1425
   11MOL   O257 3877   0.581   0.285   4.664  0.2291  0.6105 -0.0056
   11MOL   O258 3878   0.409   0.384   4.765 -0.4098 -0.0625 -0.3126
   11MOL   C259 3879   0.312   0.305   4.689 -0.8369 -0.9552  0.1336
   11MOL   C260 3880   0.201   0.236   4.769  0.5175 -0.2217 -0.1598
   11MOL   C261 3881   0.257   0.151   4.889  0.1143 -0.0605 -0.2755
   11MOL   H262 3882   0.830   0.437   4.746  1.1208  0.7722 -0.2987
   11MOL   H263 3883   0.713   0.511   4.637 -1.8039  0.6664  0.9327
   11MOL   H264 3884   0.577   0.547   4.854 -1.3687  0.3479 -0.6890
   11MOL   H265 3885   0.267   0.382   4.626  0.0743 -0.5473 -0.0314
   11MOL   H266 3886   0.363   0.235   4.622 -1.3526 -1.6715  0.4773
   11MOL   H267 3887   0.119   0.300   4.802  0.0465 -0.1402 -1.4586
   11MOL   H268 3888   0.143   0.174   4.701 -2.3561  1.6413  0.4666
   11MOL   H269 3889   0.213   0.051   4.897  0.7902 -0.4776 -1.5496
   11MOL   H270 3890   0.240   0.194   4.988  0.0177 -0.5590 -0.0721
   11MOL   H271 3891   0.362   0.135   4.867 -0.1393 -1.4440 -0.5205
   11MOL   C272 3892   0.702   0.380   4.947  0.8872  0.3732  0.4007
   11MOL   C273 3893   0.611   0.326   5.061  0.5775 -0.5121 -0.2576
   11MOL   C274 3894   0.667   0.192   5.121 -0.0399  0.0471  0.7812
   11MOL   O275 3895   0.783   0.178   5.150 -0.2166  0.0054  0.0523
   11MOL   O276 3896   0.561   0.112   5.170  0.1724  0.0102  0.1537
   11MOL   C277 3897   0.590   7.858   5.197 -0.0881 -0.8298  0.1845
   11MOL   C278 3898   0.489   7.806   5.301  0.3232  0.0196 -0.5193
   11MOL   C279 3899   0.336   7.804   5.263 -0.4379  0.0867 -0.4554
   11MOL   H280 3900   0.777   0.441   4.998  0.6001  1.0019  0.0736
   11MOL   H281 3901   0.764   0.296   4.916 -0.2127 -0.8868  1.5107
   11MOL   H282 3902   0.512   0.298   5.028  1.0230 -1.8553 -0.4845
   11MOL   H283 3903   0.586   7.792   5.110  1.2590 -0.7735  0.0696
   11MOL   H284 3904   0.688   7.843   5.242  1.8933 -0.9261 -3.9072
   11MOL   H285 3905   0.500   7.701   5.328 -0.1831 -0.6509 -2.7980
   11MOL   H286 3906   0.503   7.867   5.390 -2.3112 -1.4282  0.9496
   11MOL   H287 3907   0.280   7.819   5.355 -0.3701  0.9554 -0.5546
   11MOL   H288 3908   0.314   7.709   5.215  1.2653 -1.5680  1.9271
   11MOL   H289 3909   0.311   0.006   5.195  1.0795  0.8997 -0.0459
   11MOL   C290 3910   0.591   0.426   5.182  0.6044  0.2903  0.1053
   11MOL   C291 3911   0.520   0.558   5.148  0.2398 -0.5793  0.5003
   11MOL   C292 3912   0.384   0.544   5.085  0.3561  0.5424  0.6282
   11MOL   O293 3913   0.313   0.444   5.095 -0.7021 -0.0075  0.6576
   11MOL   O294 3914   0.349   0.648   5.010  0.4940 -0.5790  0.2225
   11MOL   C295 3915   0.227   0.644   4.934  0.0018  0.1255  0.1916
   11MOL   C296 3916   0.241   0.757   4.823  0.0837  0.3029  0.4445
   11MOL   C297 3917   0.120   0.763   4.727 -0.5199  0.0452 -0.8035
   11MOL   H298 3918   0.688   0.445   5.229  1.7239  1.3257 -2.5284
   11MOL   H299 3919   0.524   0.372   5.249 -0.2297 -1.0663 -1.7600
   11MOL   H300 3920   0.589   0.610   5.081 -1.7813  2.1822  0.5235
   11MOL   H301 3921   0.225   0.541   4.897 -1.8501  0.2591 -0.0925
   11MOL   H302 3922   0.145   0.674   4.998 -0.2188  2.6724 -1.2441
   11MOL   H303 3923   0.242   0.859   4.860 -1.8450  0.1967  0.8292
   11MOL   H304 3924   0.340   0.749   4.778 -0.4249 -0.4704 -0.5656
   11MOL   H305 3925   0.122   0.676   4.663 -0.2488 -0.5667  0.0283
   11MOL   H306 3926   0.132   0.855   4.669  2.3514  0.4235  0.2953
   11MOL   H307 3927   0.026   0.772   4.782 -0.3520 -1.1325 -0.3264
   11MOL   C308 3928   0.527   0.634   5.281 -0.3265  0.0465 -0.1913
   11MOL   C309 3929   0.508   0.785   5.270  0.3088  0.3596  1.2734
   11MOL   C310 3930   0.361   0.826   5.281  0.3609  0.0694  0.6026
   11MOL   O311 3931   0.289   0.794   5.381 -0.0788  0.4277 -0.1260
   11MOL   O312 3932   0.318   0.892   5.174  0.5947  0.0353  0.2549
   11MOL   C313 3933   0.187   0.955   5.186  0.1317  0.2491  0.0821
   11MOL   C314 3934   0.195   1.099   5.126  0.5532 -0.6055 -0.2990
   11MOL   C315 3935   0.053   1.164   5.119  0.5291 -0.4056  0.3404
   11MOL   H316 3936   0.617   0.617   5.341  2.0194 -0.8045 -3.8163
   11MOL   H317 3937   0.446   0.602   5.346 -0.3805  2.8422  1.1710
   11MOL   H318 3938   0.546   0.788   5.168 -0.1054 -1.4668  1.0526
   11MOL   H319 3939   0.109   0.891   5.146 -0.3737  1.2709 -0.6025
   11MOL   H320 3940   0.161   0.970   5.291  0.0831  0.5768  0.0249
   11MOL   H321 3941   0.255   1.157   5.196  0.7880  1.1227 -1.9025
   11MOL   H322 3942   0.237   1.103   5.026 -1.1771  3.0909 -0.9672
   11MOL   H323 3943   7.869   1.102   5.057  1.1078 -2.7833  2.0180
   11MOL   H324 3944   0.005   1.166   5.217 -1.2973  3.7097 -0.5303
   11MOL   H325 3945   0.059   1.271   5.102 -1.8413 -0.1233  1.0349
   11MOL   C326 3946   0.605   0.872   5.360  0.3393  0.6281  0.3433
   11MOL   C327 3947   0.754   0.832   5.355 -0.2165 -0.2467  0.9098
   11MOL   C328 3948   0.807   0.862   5.216 -0.4777  1.0183  0.2654
   11MOL   O329 3949   0.844   0.772   5.144  1.1586 -0.2730  0.7421
   11MOL   O330 3950   0.817   0.991   5.188  0.2219  0.4679 -0.3152
   11MOL   C331 3951   0.836   1.038   5.059 -0.1621  0.1971 -0.4962
   11MOL   C332 3952   0.761   1.172   5.051  0.0120  0.2116 -0.5827
   11MOL   C333 3953   0.818   1.297   5.129 -0.0027  0.0109  1.1241
   11MOL   H334 3954   0.564   0.864   5.461 -0.8997 -1.9797 -0.3203
   11MOL   H335 3955   0.588   0.978   5.340 -3.0507 -0.0718 -0.9502
   11MOL   H336 3956   0.761   0.725   5.370 -1.8859 -0.4834  0.0526
   11MOL   H337 3957   0.943   1.056   5.050 -0.3232  0.5575 -1.8157
   11MOL   H338 3958   0.805   0.958   4.992 -0.3031 -1.2502  1.2640
   11MOL   H339 3959   0.750   1.201   4.946 -0.7620 -0.1152 -0.5939
   11MOL   H340 3960   0.662   1.164   5.096  0.5802 -0.3082  0.6026
   11MOL   H341 3961   0.927   1.294   5.132 -0.0098 -1.1029  0.5227
   11MOL   H342 3962   0.789   1.396   5.093 -2.2101 -0.8575  0.4550
   11MOL   H343 3963   0.778   1.300   5.230 -3.7862  0.2621 -0.3159
   11MOL   C344 3964   0.835   0.892   5.468 -0.3355 -1.0596  0.0540
   11MOL   C345 3965   0.826   1.041   5.507 -0.5912  0.1563  0.2792
   11MOL   C346 3966   0.959   1.081   5.562 -0.2105  1.2606 -0.1153
   11MOL   O347 3967   1.034   1.153   5.496 -0.0957 -0.1097  0.3170
   11MOL   O348 3968   0.985   1.034   5.681  0.0623 -0.1694 -0.1059
   11MOL   C349 3969   1.113   1.060   5.735 -0.6150 -0.3463  0.0947
   11MOL   C350 3970   1.123   0.962   5.849  0.1933  0.3645  0.3563
   11MOL   C351 3971   1.258   0.978   5.925  0.1192 -0.8355  0.5870
   11MOL   H352 3972   0.936   0.858   5.445 -0.7166 -2.3734  0.2830
   11MOL   H353 3973   0.789   0.843   5.554  2.1805 -3.0722  0.2953
   11MOL   H354 3974   0.748   1.067   5.579 -0.9120 -0.8090  0.2837
   11MOL   H355 3975   1.194   1.022   5.672  0.3225 -2.6681  2.6221
   11MOL   H356 3976   1.122   1.164   5.764  0.4555 -0.7852  1.4010
   11MOL   H357 3977   1.046   0.998   5.917 -0.3352  1.3905 -0.7719
   11MOL   H358 3978   1.098   0.859   5.822 -0.9267 -0.0625  2.8336
   11MOL   H359 3979   1.284   1.083   5.934 -0.9670 -0.5693  0.6638
   11MOL   H360 3980   1.252   0.920   6.018 -0.2925  0.0976  1.1449
   11MOL   H361 3981   1.336   0.929   5.867 -1.4311  0.4189 -2.6537
   11MOL   H362 3982   0.812   1.101   5.417 -0.2656 -0.2302 -0.0245
   12MOL     C1 3983   1.772   1.974   1.710  0.8772 -1.0992 -0.2857
   12MOL     C2 3984   1.671   2.077   1.648 -0.0643 -0.1273 -0.3690
   12MOL     C3 3985   1.558   1.999   1.583  0.1283  0.2877 -0.0818
   12MOL     O4 3986   1.528   2.014   1.465  0.1382 -0.8267  0.2755
   12MOL     O5 3987   1.506   1.911   1.670 -0.0076 -0.1782 -0.0796
   12MOL     C6 3988   1.405   1.817   1.643 -0.6394 -0.5845 -0.2657
   12MOL     C7 3989   1.399   1.700   1.746 -0.6658 -0.0263  0.1982
   12MOL     C8 3990   1.264   1.619   1.750 -0.8797 -0.1771 -0.1810
   12MOL     H9 3991   1.856   2.025   1.756  0.2404 -1.8772  1.7818
   12MOL    H10 3992   1.722   1.910   1.783 -0.2413 -0.6687 -0.6463
   12MOL    H11 3993   1.707   2.132   1.562  0.5694 -0.7038 -0.4741
   12MOL    H12 3994   1.312   1.872   1.636  0.1584  0.6981 -1.0199
   12MOL    H13 3995   1.418   1.777   1.542  3.4524 -1.5472  0.5410
   12MOL    H14 3996   1.481   1.631   1.726 -1.2415 -0.9611  0.9869
   12MOL    H15 3997   1.426   1.745   1.841 -1.6585  0.4478  0.2574
   12MOL    H16 3998   1.283   1.535   1.817 -0.1201  2.3487  2.8716
   12MOL    H17 3999   1.186   1.682   1.792  0.1561  0.0880  1.3869
   12MOL    H18 4000   1.243   1.584   1.649  1.6994  1.3698 -1.2960
   12MOL    H19 4001   1.810   1.921   1.623 -0.1887  2.2031 -2.8731
   12MOL    C20 4002   1.633   2.179   1.746 -0.0565 -1.2177  0.4125
   12MOL    C21 4003   1.750   2.256   1.823  0.1683  0.6047 -0.1392
   12MOL    C22 4004   1.837   2.327   1.717 -0.2274 -0.3091  0.2073
   12MOL    O23 4005   1.959   2.305   1.709 -0.3311  0.8483 -0.2648
   12MOL    O24 4006   1.777   2.426   1.639  0.0073 -0.2331 -0.2172
   12MOL    C25 4007   1.848   2.507   1.543 -0.1922  0.5513  0.3632
   12MOL    C26 4008   1.754   2.614   1.473 -0.1158 -0.5214 -0.0462
   12MOL    C27 4009   1.694   2.720   1.571  0.4295 -0.3594  0.6106
   12MOL    H28 4010   1.557   2.138   1.812 -0.7943 -1.0961 -0.3556
   12MOL    H29 4011   1.567   2.250   1.696  1.9053  0.7369  0.5153
   12MOL    H30 4012   1.818   2.193   1.881  0.0986 -0.3355 -1.0654
   12MOL    H31 4013   1.930   2.565   1.586  0.1857  0.6853 -0.5329
   12MOL    H32 4014   1.889   2.438   1.470  1.3857  0.9737  0.8161
   12MOL    H33 4015   1.820   2.661   1.401  0.4012 -0.0837  0.7048
   12MOL    H34 4016   1.678   2.563   1.415  0.3300 -1.2992  0.0432
   12MOL    H35 4017   1.779   2.748   1.633 -0.8381  0.0061  2.2200
   12MOL    H36 4018   1.613   2.685   1.635 -0.2473  1.1416  0.6072
   12MOL    H37 4019   1.645   2.811   1.534 -0.7562 -1.4658 -0.5991
   12MOL    C38 4020   1.694   2.357   1.918  0.1528 -0.0912 -1.0730
   12MOL    C39 4021   1.683   2.289   2.059 -0.1712 -0.6485  0.3721
   12MOL    C40 4022   1.821   2.280   2.127  0.1862  0.3939  0.1868
   12MOL    O41 4023   1.881   2.176   2.148 -0.1711 -0.3512  0.5500
   12MOL    O42 4024   1.859   2.390   2.178 -0.5309  0.3326  0.2261
   12MOL    C43 4025   1.978   2.398   2.257 -0.2010 -0.4587 -0.4099
   12MOL    C44 4026   1.987   2.532   2.330  0.2960  0.8911  0.5825
   12MOL    C45 4027   2.009   2.649   2.241  0.0777  0.2943 -0.5184
   12MOL    H46 4028   1.595   2.388   1.885  0.8600  0.0821 -3.1074
   12MOL    H47 4029   1.759   2.445   1.919  0.4154 -0.2875  0.2705
   12MOL    H48 4030   1.647   2.187   2.058 -2.0373 -0.0083  0.6313
   12MOL    H49 4031   1.986   2.321   2.334  0.6091  0.0505  0.0302
   12MOL    H50 4032   2.065   2.388   2.193 -0.3059 -2.7457 -0.2423
   12MOL    H51 4033   1.896   2.536   2.389 -2.0312 -2.0101 -2.5963
   12MOL    H52 4034   2.069   2.521   2.401 -0.1831 -0.3834  0.9545
   12MOL    H53 4035   1.944   2.644   2.153 -0.1433 -0.3766 -0.3192
   12MOL    H54 4036   2.116   2.666   2.226  0.0770  1.8791  1.0901
   12MOL    H55 4037   1.957   2.730   2.291 -0.5081 -0.0732 -0.5217
   12MOL    C56 4038   1.583   2.364   2.147 -0.4744  0.0879  0.2896
   12MOL    C57 4039   1.435   2.323   2.124  0.3621 -0.4509  0.9557
   12MOL    C58 4040   1.401   2.180   2.190  0.1617 -0.5585  0.3850
   12MOL    O59 4041   1.377   2.075   2.124  0.1984  0.8541  0.0114
   12MOL    O60 4042   1.376   2.185   2.330 -0.2426 -0.2643  0.0724
   12MOL    C61 4043   1.363   2.064   2.408  0.4064 -0.1612 -0.6190
   12MOL    C62 4044   1.433   2.081   2.549  0.1869 -0.0299 -0.6042
   12MOL    C63 4045   1.588   2.093   2.544  0.0320 -0.6015 -0.0968
   12MOL    H64 4046   1.600   2.472   2.140  2.7242 -0.5345 -3.2122
   12MOL    H65 4047   1.598   2.342   2.252 -0.8016  1.3896  0.6185
   12MOL    H66 4048   1.410   2.306   2.019  0.3227  1.3522  0.6717
   12MOL    H67 4049   1.258   2.036   2.417  0.3230 -0.5900 -2.7313
   12MOL    H68 4050   1.407   1.984   2.349 -0.1281  0.6046 -2.0909
   12MOL    H69 4051   1.393   2.171   2.595 -0.4457 -0.9666  0.7311
   12MOL    H70 4052   1.404   1.991   2.604 -1.0615 -0.8003 -2.4559
   12MOL    H71 4053   1.610   2.152   2.455  0.0190 -1.2885 -0.5531
   12MOL    H72 4054   1.639   1.999   2.527  1.8726  0.5875 -1.3237
   12MOL    H73 4055   1.635   2.139   2.631 -0.2635 -2.3156  0.9927
   12MOL    C74 4056   1.321   2.429   2.149  0.2784 -0.4080  0.1657
   12MOL    C75 4057   1.328   2.551   2.057 -0.2831 -0.7286 -0.2998
   12MOL    C76 4058   1.305   2.511   1.916 -0.0526 -0.0695 -0.4828
   12MOL    O77 4059   1.395   2.519   1.832 -0.3084 -0.5544  0.1041
   12MOL    O78 4060   1.183   2.472   1.897 -0.0790  0.5317 -0.0519
   12MOL    C79 4061   1.152   2.410   1.773  1.2338  0.2571  0.4973
   12MOL    C80 4062   1.101   2.269   1.787  0.7825 -0.3841 -0.7041
   12MOL    C81 4063   1.208   2.161   1.804 -0.7754 -1.1151  0.2498
   12MOL    H82 4064   1.311   2.467   2.251 -2.0270  1.4068 -0.6748
   12MOL    H83 4065   1.221   2.389   2.131  0.7112 -1.1016 -0.6930
   12MOL    H84 4066   1.431   2.583   2.048 -0.4326 -0.4110 -0.9206
   12MOL    H85 4067   1.075   2.467   1.720  2.9565  1.0294 -1.2946
   12MOL    H86 4068   1.235   2.427   1.704  0.8943  2.3617  0.5519
   12MOL    H87 4069   1.039   2.254   1.876 -0.4559  0.4943 -1.4107
   12MOL    H88 4070   1.026   2.245   1.712 -2.5418 -1.4049  2.7839
   12MOL    H89 4071   1.168   2.063   1.828 -0.2529 -1.6819 -1.1352
   12MOL    H90 4072   1.281   2.165   1.885  0.9900 -1.9566 -1.2350
   12MOL    H91 4073   1.268   2.162   1.712 -0.0316  0.0730  0.7426
   12MOL    C92 4074   1.236   2.664   2.099  0.1175 -0.2535 -0.3633
   12MOL    C93 4075   1.252   2.803   2.041 -0.0200 -0.4754 -0.0866
   12MOL    C94 4076   1.133   2.894   2.069  0.1567  0.1612  0.1635
   12MOL    O95 4077   1.119   2.931   2.182  1.2366  0.3138 -0.1672
   12MOL    O96 4078   1.053   2.916   1.965  0.1884 -0.0737  0.5450
   12MOL    C97 4079   0.928   2.984   1.982 -0.1697  0.2179  0.2005
   12MOL    C98 4080   0.947   3.136   1.964  0.4599  0.4777 -0.1901
   12MOL    C99 4081   0.820   3.209   1.989 -0.2000 -0.7125 -0.2439
   12MOL   H100 4082   1.247   2.671   2.208  0.8126 -0.1932 -0.4402
   12MOL   H101 4083   1.134   2.626   2.095 -0.5821  1.2261  2.0745
   12MOL   H102 4084   1.261   2.793   1.932 -0.4489 -1.6767 -0.0211
   12MOL   H103 4085   0.852   2.947   1.914  1.1210 -1.3519 -0.4243
   12MOL   H104 4086   0.898   2.969   2.086 -1.2750 -1.0464 -0.2894
   12MOL   H105 4087   1.018   3.186   2.030  1.0799  1.9252 -1.8865
   12MOL   H106 4088   0.987   3.155   1.864 -0.8516  2.1695 -0.4256
   12MOL   H107 4089   0.805   3.181   2.093  1.8651 -1.5060 -0.1441
   12MOL   H108 4090   0.736   3.174   1.928  0.7371 -0.6967 -1.5574
   12MOL   H109 4091   0.821   3.318   1.985 -1.2662 -0.7567 -2.1720
   12MOL   C110 4092   1.387   2.855   2.079 -0.1651  0.3615 -0.8395
   12MOL   C111 4093   1.434   2.990   2.019 -0.0227  0.2121 -0.4174
   12MOL   C112 4094   1.447   2.972   1.868 -0.2493  0.0671 -0.2034
   12MOL   O113 4095   1.545   2.931   1.811 -0.8062  0.0552  0.3020
   12MOL   O114 4096   1.328   2.999   1.804  0.4110 -0.2434  0.0086
   12MOL   C115 4097   1.304   2.966   1.664 -0.1487 -0.3227 -0.4412
   12MOL   C116 4098   1.210   3.078   1.616  0.2013 -0.1279  0.0982
   12MOL   C117 4099   1.273   3.220   1.623  0.3131  0.0541  0.0660
   12MOL   H118 4100   1.463   2.783   2.052  0.0348 -0.3533  1.4879
   12MOL   H119 4101   1.400   2.865   2.187 -1.2229  0.7621 -0.7445
   12MOL   H120 4102   1.538   3.000   2.051  0.3877  0.3011 -1.7472
   12MOL   H121 4103   1.395   2.947   1.607  0.6355  0.1745  0.6224
   12MOL   H122 4104   1.256   2.869   1.656 -1.9511  0.3405  1.8334
   12MOL   H123 4105   1.175   3.066   1.514 -0.5607 -0.3291  0.3813
   12MOL   H124 4106   1.121   3.082   1.679  1.9263 -2.0704  2.7587
   12MOL   H125 4107   1.295   3.251   1.725 -1.5062  0.7003  0.2846
   12MOL   H126 4108   1.206   3.283   1.564  0.0996  0.8155  1.1060
   12MOL   H127 4109   1.366   3.222   1.565 -0.0869 -1.8207 -0.6608
   12MOL   C128 4110   1.355   3.113   2.066 -0.8213  0.1213  0.3204
   12MOL   C129 4111   1.431   3.250   2.052  0.2559 -0.4411  0.4210
   12MOL   C130 4112   1.337   3.359   2.015  0.2602 -0.0990  0.3378
   12MOL   O131 4113   1.353   3.418   1.909 -0.2207 -0.0262  0.4944
   12MOL   O132 4114   1.232   3.375   2.100  0.3963  0.0412 -0.7884
   12MOL   C133 4115   1.142   3.480   2.078 -0.6802  0.4017 -0.6466
   12MOL   C134 4116   1.041   3.491   2.196 -0.3610 -0.3351 -0.3419
   12MOL   C135 4117   0.956   3.615   2.190 -0.2022  0.3931  0.2210
   12MOL   H136 4118   1.325   3.109   2.170 -2.0898 -1.4893 -0.0987
   12MOL   H137 4119   1.263   3.120   2.009 -1.0026  4.1188  0.9756
   12MOL   H138 4120   1.493   3.242   1.963 -0.4721  1.2585 -0.2659
   12MOL   H139 4121   1.191   3.577   2.077  1.2414 -0.5071  0.9661
   12MOL   H140 4122   1.091   3.468   1.982 -0.8834  0.1090 -0.5004
   12MOL   H141 4123   0.977   3.403   2.202 -0.1441 -0.3642  2.1909
   12MOL   H142 4124   1.099   3.491   2.289 -0.3310 -0.7285 -0.3576
   12MOL   H143 4125   0.900   3.639   2.281 -0.5981  1.3367 -0.2680
   12MOL   H144 4126   0.873   3.591   2.124 -1.3784  0.9391  1.4644
   12MOL   H145 4127   1.001   3.713   2.173  0.1677  0.1028 -0.4714
   12MOL   C146 4128   1.509   3.285   2.186  0.0132  0.1312  0.3745
   12MOL   C147 4129   1.575   3.422   2.191 -0.4421 -0.1810 -0.3525
   12MOL   C148 4130   1.477   3.525   2.256  0.2842 -0.4354  0.1696
   12MOL   O149 4131   1.428   3.623   2.194  0.3738  0.3102  0.3413
   12MOL   O150 4132   1.438   3.492   2.385 -1.0874 -0.1782 -0.8799
   12MOL   C151 4133   1.352   3.581   2.458 -0.1498 -0.0885 -1.1222
   12MOL   C152 4134   1.277   3.513   2.569 -0.6334 -0.4960 -0.7863
   12MOL   C153 4135   1.155   3.594   2.615  0.0105 -0.2455  0.1964
   12MOL   H154 4136   1.589   3.211   2.193 -0.1430 -0.1578 -0.7450
   12MOL   H155 4137   1.453   3.276   2.279 -0.2330 -1.0526  0.1275
   12MOL   H156 4138   1.607   3.455   2.093  0.3378  0.9232  0.2599
   12MOL   H157 4139   1.411   3.663   2.499 -1.3020 -0.0417  0.5015
   12MOL   H158 4140   1.281   3.619   2.384 -1.4019  1.2105  0.7017
   12MOL   H159 4141   1.241   3.417   2.534 -0.0430 -0.8673 -0.3916
   12MOL   H160 4142   1.344   3.486   2.652  1.0019  1.5342 -1.3827
   12MOL   H161 4143   1.195   3.691   2.644 -1.8072  0.7276 -0.4904
   12MOL   H162 4144   1.112   3.554   2.707  0.4770  1.7698  1.3185
   12MOL   H163 4145   1.078   3.589   2.538 -0.5128 -0.0194  0.7051
   12MOL   C164 4146   1.703   3.427   2.282 -0.1894 -0.1100  0.4388
   12MOL   C165 4147   1.827   3.481   2.210  0.0923 -0.0833 -0.3337
   12MOL   C166 4148   1.805   3.622   2.163  0.0456  0.5197  0.0769
   12MOL   O167 4149   1.799   3.715   2.243  0.1297  0.4134 -0.7814
   12MOL   O168 4150   1.793   3.631   2.031  0.3113  0.2926  0.1401
   12MOL   C169 4151   1.769   3.758   1.978  0.1981  0.2791 -0.2734
   12MOL   C170 4152   1.622   3.795   1.981  0.7704 -0.1318 -0.0389
   12MOL   C171 4153   1.523   3.701   1.906  0.2312  0.3172 -0.3509
   12MOL   H172 4154   1.726   3.324   2.310 -1.8395 -0.3931  0.8305
   12MOL   H173 4155   1.688   3.483   2.375 -0.9015  0.6589 -0.1266
   12MOL   H174 4156   1.832   3.415   2.123 -3.9844 -0.9836 -0.0024
   12MOL   H175 4157   1.833   3.832   2.026 -2.8057  1.6901  1.6481
   12MOL   H176 4158   1.800   3.760   1.873  1.2641  1.4002  0.0430
   12MOL   H177 4159   1.597   3.806   2.086  1.0677  2.5815 -0.2017
   12MOL   H178 4160   1.607   3.889   1.927  0.7360  0.0274  0.2487
   12MOL   H179 4161   1.561   3.602   1.928 -1.3167 -0.0532  0.7519
   12MOL   H180 4162   1.522   3.719   1.798  0.2874  1.2840 -0.1973
   12MOL   H181 4163   1.417   3.706   1.929  0.5544  0.0909  1.2145
   12MOL   C182 4164   1.964   3.467   2.285 -0.0062 -0.6078 -0.1422
   12MOL   C183 4165   2.090   3.507   2.211  0.1420 -0.2720 -0.3711
   12MOL   C184 4166   2.196   3.516   2.312 -1.2026  0.2174 -0.3563
   12MOL   O185 4167   2.264   3.617   2.322  0.9385 -0.3594 -0.3199
   12MOL   O186 4168   2.226   3.403   2.377  0.4809 -0.0357 -0.3448
   12MOL   C187 4169   2.337   3.402   2.466  1.1679  0.4985 -0.0142
   12MOL   C188 4170   2.294   3.368   2.610  0.1227  0.5826 -0.1508
   12MOL   C189 4171   2.201   3.251   2.611 -0.3535  0.0794 -0.9069
   12MOL   H190 4172   1.978   3.367   2.326  3.6410 -0.4230 -0.7803
   12MOL   H191 4173   1.957   3.535   2.370  1.5017  1.7886 -1.8652
   12MOL   H192 4174   2.079   3.605   2.166 -1.0044  0.0134  0.4905
   12MOL   H193 4175   2.404   3.323   2.433 -1.0350 -0.6431 -1.8871
   12MOL   H194 4176   2.389   3.498   2.474 -2.1462  2.4157 -0.5290
   12MOL   H195 4177   2.383   3.341   2.667 -0.8610  0.6879  1.4567
   12MOL   H196 4178   2.254   3.458   2.657  1.5943  1.4517 -0.5005
   12MOL   H197 4179   2.192   3.219   2.715 -0.6063  2.1603 -0.2633
   12MOL   H198 4180   2.238   3.173   2.544  0.1562 -0.1571 -0.3554
   12MOL   H199 4181   2.104   3.266   2.564  0.2031 -0.6964 -2.3297
   12MOL   C200 4182   2.122   3.405   2.100  0.5937  0.4930  0.0752
   12MOL   C201 4183   2.229   3.456   1.993  0.3241 -0.0389  0.0245
   12MOL   C202 4184   2.368   3.420   2.034  0.2002 -0.2106 -0.2271
   12MOL   O203 4185   2.453   3.510   2.057  0.2760 -0.2302 -0.2749
   12MOL   O204 4186   2.378   3.285   2.042  0.4271  0.1121 -0.2099
   12MOL   C205 4187   2.500   3.224   2.082  0.0444 -0.1079  0.2544
   12MOL   C206 4188   2.503   3.073   2.044  0.6872  0.0135 -0.6071
   12MOL   C207 4189   2.376   2.998   2.071  0.0562  0.2547  0.3268
   12MOL   H208 4190   2.034   3.367   2.048  0.0454  1.1001  0.5500
   12MOL   H209 4191   2.151   3.309   2.142  0.2804  1.1862  1.8978
   12MOL   H210 4192   2.217   3.564   1.994 -1.2524 -0.1987 -1.1096
   12MOL   H211 4193   2.587   3.272   2.038  0.1011 -0.6358 -0.2061
   12MOL   H212 4194   2.507   3.232   2.191 -2.4126 -1.0861  0.5366
   12MOL   H213 4195   2.524   3.063   1.938  4.2778  2.4759 -0.2227
   12MOL   H214 4196   2.584   3.024   2.099 -0.7320 -0.7919  0.8269
   12MOL   H215 4197   2.303   3.011   1.991  0.2261  0.7849  0.2505
   12MOL   H216 4198   2.339   3.024   2.170  1.3205  1.4830  0.4919
   12MOL   H217 4199   2.415   2.897   2.077  0.4917  0.5299  2.4823
   12MOL   C218 4200   2.207   3.392   1.853 -0.6565  0.0139 -0.0451
   12MOL   C219 4201   2.079   3.447   1.786 -0.0652 -0.2285 -0.2180
   12MOL   C220 4202   2.104   3.591   1.740 -0.1250  0.0992  0.2413
   12MOL   O221 4203   2.032   3.687   1.768  0.2960 -0.1599 -0.0038
   12MOL   O222 4204   2.212   3.601   1.660 -0.0880  0.2142 -0.1255
   12MOL   C223 4205   2.245   3.729   1.619 -0.7593 -0.1854  0.9885
   12MOL   C224 4206   2.395   3.753   1.621  0.0463 -0.0941 -0.1465
   12MOL   C225 4207   2.452   3.780   1.759  0.1428  0.3258 -0.2866
   12MOL   H226 4208   2.197   3.285   1.869 -0.2391 -0.1218 -0.6737
   12MOL   H227 4209   2.298   3.418   1.798 -0.8889  0.7349 -0.0965
   12MOL   H228 4210   2.001   3.456   1.862  1.2199  0.2785  1.0782
   12MOL   H229 4211   2.206   3.748   1.519 -1.3977  1.5010  1.5366
   12MOL   H230 4212   2.205   3.812   1.678 -3.4610 -1.3692  0.8760
   12MOL   H231 4213   2.449   3.671   1.572 -0.8288 -0.7610 -0.0090
   12MOL   H232 4214   2.417   3.842   1.562  0.7261 -0.1714 -0.0196
   12MOL   H233 4215   2.433   3.885   1.781  1.1726  0.3735  0.3787
   12MOL   H234 4216   2.558   3.757   1.762  0.1021  0.3311  2.1470
   12MOL   H235 4217   2.408   3.725   1.842 -1.7740  1.1511 -0.7175
   12MOL   C236 4218   2.022   3.358   1.673 -0.4206 -0.1060  0.1159
   12MOL   C237 4219   1.932   3.241   1.717  0.4977 -0.6805 -0.5227
   12MOL   C238 4220   1.792   3.279   1.769 -0.1321 -0.4536  0.3229
   12MOL   O239 4221   1.752   3.248   1.880  0.2507  0.3258 -0.9521
   12MOL   O240 4222   1.721   3.335   1.661 -0.1744  0.9838 -0.5077
   12MOL   C241 4223   1.590   3.386   1.670 -0.3351  0.2145 -0.6302
   12MOL   C242 4224   1.564   3.464   1.543 -0.1435  0.2771  0.0828
   12MOL   C243 4225   1.654   3.582   1.535 -0.4512 -0.1758 -0.4835
   12MOL   H244 4226   2.106   3.307   1.625 -0.4111  1.1111 -1.1775
   12MOL   H245 4227   1.971   3.420   1.600 -0.4407 -2.2638 -1.7544
   12MOL   H246 4228   1.978   3.196   1.805 -0.3053  1.2997  0.9651
   12MOL   H247 4229   1.523   3.300   1.668 -0.6426  0.4598 -0.8683
   12MOL   H248 4230   1.561   3.452   1.752 -1.7659 -0.2042 -0.7798
   12MOL   H249 4231   1.585   3.402   1.455 -1.9472  0.3749 -0.4451
   12MOL   H250 4232   1.458   3.489   1.546  0.0042  1.6118 -3.0650
   12MOL   H251 4233   1.649   3.633   1.631  0.8836  0.3921 -0.7025
   12MOL   H252 4234   1.623   3.655   1.461  2.1531 -0.3598 -1.8280
   12MOL   H253 4235   1.756   3.557   1.505 -0.1108 -1.2163  1.4380
   12MOL   C254 4236   1.922   3.132   1.602 -0.1772 -0.1134 -0.7163
   12MOL   C255 4237   2.046   3.048   1.576  0.0358  0.0079  0.1669
   12MOL   C256 4238   2.074   2.967   1.700  0.0037  0.3422 -0.3044
   12MOL   O257 4239   2.180   2.997   1.759 -0.4209  0.2224  0.2743
   12MOL   O258 4240   1.989   2.869   1.732 -0.2150  0.0312 -0.2304
   12MOL   C259 4241   2.027   2.770   1.831  0.5171 -0.6339 -0.9933
   12MOL   C260 4242   2.131   2.672   1.791  0.8390 -0.1446 -0.3374
   12MOL   C261 4243   2.146   2.551   1.881 -0.3006  0.0762 -0.3423
   12MOL   H262 4244   1.912   3.187   1.508  0.2773 -1.1882 -1.4061
   12MOL   H263 4245   1.828   3.078   1.614 -0.3081  0.3608  0.3837
   12MOL   H264 4246   2.130   3.113   1.551 -0.0689  0.3387  0.6558
   12MOL   H265 4247   2.050   2.807   1.932 -0.3194  0.9049 -1.3484
   12MOL   H266 4248   1.932   2.720   1.851  0.9971 -0.9684  0.5305
   12MOL   H267 4249   2.094   2.638   1.694 -0.3008 -0.8287  0.3323
   12MOL   H268 4250   2.230   2.717   1.780  0.8291  0.1787  0.8076
   12MOL   H269 4251   2.200   2.479   1.820  0.0303 -0.5711  0.7034
   12MOL   H270 4252   2.053   2.504   1.912 -0.2508  1.3820  1.9103
   12MOL   H271 4253   2.199   2.568   1.975  2.9377  0.0260 -2.1132
   12MOL   C272 4254   2.028   2.966   1.445 -0.0548 -0.7879 -0.3835
   12MOL   C273 4255   2.166   2.910   1.382  0.2622  0.1027 -0.6575
   12MOL   C274 4256   2.254   3.020   1.320 -0.1231 -0.0693 -0.2071
   12MOL   O275 4257   2.225   3.138   1.328 -0.2632  0.1928  0.1188
   12MOL   O276 4258   2.379   2.981   1.271 -0.0850 -0.2353  0.3721
   12MOL   C277 4259   2.448   3.064   1.184  0.2147 -0.1637  0.4270
   12MOL   C278 4260   2.569   2.987   1.129  0.1711 -0.4060 -0.2440
   12MOL   C279 4261   2.688   2.980   1.224  0.6092 -0.1421 -0.1580
   12MOL   H280 4262   1.999   3.042   1.373  0.9160 -0.1405 -0.1123
   12MOL   H281 4263   1.941   2.901   1.451 -0.9679  0.2379 -2.1617
   12MOL   H282 4264   2.130   2.853   1.297  1.6695  0.3344 -1.4222
   12MOL   H283 4265   2.387   3.103   1.103 -1.4096  3.8108  3.4123
   12MOL   H284 4266   2.479   3.158   1.229 -2.7498  0.8314  0.4610
   12MOL   H285 4267   2.535   2.888   1.101  1.6787 -1.7196  2.3156
   12MOL   H286 4268   2.609   3.033   1.039 -0.4866  2.8493  1.0620
   12MOL   H287 4269   2.723   3.082   1.245  0.6857  0.2509 -2.1152
   12MOL   H288 4270   2.773   2.925   1.185  1.9033  1.7312 -0.0652
   12MOL   H289 4271   2.652   2.940   1.319 -0.5520  0.7671 -0.1997
   12MOL   C290 4272   2.246   2.812   1.468  0.3000 -1.0365  0.4036
   12MOL   C291 4273   2.323   2.703   1.394  0.4161  0.0603  0.4829
   12MOL   C292 4274   2.440   2.659   1.480 -0.0172 -0.8841 -0.2990
   12MOL   O293 4275   2.430   2.650   1.604 -0.5686  0.0878  0.3585
   12MOL   O294 4276   2.542   2.635   1.409  0.0494 -0.1018  0.0151
   12MOL   C295 4277   2.658   2.592   1.474  0.2187  0.2198  0.7234
   12MOL   C296 4278   2.779   2.671   1.422 -0.3887  0.5373  0.0188
   12MOL   C297 4279   2.795   2.647   1.269 -0.1886  0.1480  0.1206
   12MOL   H298 4280   2.176   2.754   1.529  0.3756 -0.1146  1.3695
   12MOL   H299 4281   2.316   2.870   1.527 -1.1854  0.8957  0.3059
   12MOL   H300 4282   2.361   2.754   1.306  0.2808  1.8713  1.4392
   12MOL   H301 4283   2.664   2.603   1.583 -1.3212  0.1297  0.8284
   12MOL   H302 4284   2.675   2.486   1.455 -0.1270  0.5430 -1.4424
   12MOL   H303 4285   2.786   2.771   1.465  0.5927 -0.6989  2.8222
   12MOL   H304 4286   2.860   2.624   1.477 -1.0365  0.0864  0.6012
   12MOL   H305 4287   2.823   2.543   1.250 -2.3164 -0.4497  0.0880
   12MOL   H306 4288   2.865   2.714   1.218 -0.7165  1.6699  1.3533
   12MOL   H307 4289   2.708   2.666   1.206  0.2246  0.0451 -0.4911
   12MOL   C308 4290   2.237   2.590   1.332  0.4721  0.4791 -0.2417
   12MOL   C309 4291   2.304   2.483   1.242  0.1950  0.7420  0.8309
   12MOL   C310 4292   2.188   2.387   1.220 -0.3785 -0.1430  0.1534
   12MOL   O311 4293   2.127   2.385   1.111 -0.0645 -0.2751 -0.0622
   12MOL   O312 4294   2.172   2.301   1.315 -0.3144  0.6673  0.1628
   12MOL   C313 4295   2.072   2.205   1.321  0.6101 -0.0396 -0.0675
   12MOL   C314 4296   2.090   2.113   1.442 -0.2004  0.0887 -0.3931
   12MOL   C315 4297   2.033   1.968   1.411  0.1151 -0.6324 -1.1749
   12MOL   H316 4298   2.165   2.634   1.263 -0.7966  0.4631  1.0447
   12MOL   H317 4299   2.193   2.531   1.413  5.3825 -0.8820  1.6225
   12MOL   H318 4300   2.366   2.438   1.320  2.2244  0.7557 -0.7353
   12MOL   H319 4301   1.976   2.255   1.329  1.4221  1.4324  0.5726
   12MOL   H320 4302   2.075   2.144   1.230  3.2845 -0.1670  0.0616
   12MOL   H321 4303   2.194   2.088   1.459 -0.0249  0.3799 -1.0285
   12MOL   H322 4304   2.043   2.147   1.535  0.7567 -0.8516  0.4383
   12MOL   H323 4305   1.925   1.959   1.405  0.0319 -1.8416  1.4744
   12MOL   H324 4306   2.075   1.916   1.325  0.9193 -0.2391 -1.0332
   12MOL   H325 4307   2.060   1.927   1.508  0.4087  1.1589 -0.4616
   12MOL   C326 4308   2.381   2.519   1.115 -1.1414 -0.3512 -0.2173
   12MOL   C327 4309   2.459   2.401   1.045 -1.0443  0.4099  0.0948
   12MOL   C328 4310   2.413   2.371   0.903 -0.4051  0.1230 -0.1496
   12MOL   O329 4311   2.362   2.455   0.835  0.5710  0.2036 -0.2894
   12MOL   O330 4312   2.455   2.247   0.873  0.5843  0.0295  0.2029
   12MOL   C331 4313   2.456   2.197   0.743  0.3079 -0.5652 -0.2711
   12MOL   C332 4314   2.488   2.047   0.738  0.2963  0.1509  1.1122
   12MOL   C333 4315   2.498   1.993   0.592 -0.2349 -0.2655 -0.2516
   12MOL   H334 4316   2.444   2.607   1.131  0.6815 -1.1869 -2.4605
   12MOL   H335 4317   2.314   2.566   1.042  2.0763  1.8605 -1.8652
   12MOL   H336 4318   2.439   2.306   1.095  0.6772  0.7029  1.3770
   12MOL   H337 4319   2.362   2.220   0.692  0.8729 -0.3404 -1.2203
   12MOL   H338 4320   2.538   2.234   0.681  1.4599 -1.4186  0.7168
   12MOL   H339 4321   2.582   2.046   0.793  1.9960  0.8071 -1.7081
   12MOL   H340 4322   2.416   1.997   0.803 -0.4616 -0.9229 -0.5509
   12MOL   H341 4323   2.497   1.885   0.597 -2.2538 -0.2254  0.4060
   12MOL   H342 4324   2.409   2.031   0.542  0.8251  0.6489 -1.5040
   12MOL   H343 4325   2.583   2.027   0.532  0.4987 -0.3725  0.7236
   12MOL   C344 4326   2.614   2.421   1.055  0.4508 -0.7617  0.0569
   12MOL   C345 4327   2.709   2.300   1.067  0.0307 -0.2340  0.4543
   12MOL   C346 4328   2.677   2.210   1.186 -0.3709  0.0128 -0.0108
   12MOL   O347 4329   2.709   2.244   1.297  0.3234 -0.2269 -0.3443
   12MOL   O348 4330   2.624   2.090   1.148 -0.0497  0.3137 -0.2469
   12MOL   C349 4331   2.590   1.993   1.249  0.3476 -0.0536 -0.5639
   12MOL   C350 4332   2.452   1.944   1.217  0.1580  0.0258 -0.5705
   12MOL   C351 4333   2.399   1.827   1.299 -0.3624  0.5279  0.7861
   12MOL   H352 4334   2.626   2.479   1.146  0.7704 -1.2928  0.3614
   12MOL   H353 4335   2.660   2.482   0.977  2.5363 -0.8039  1.2295
   12MOL   H354 4336   2.816   2.319   1.075  0.1694  0.0428 -1.6739
   12MOL   H355 4337   2.661   1.911   1.253 -0.1784 -0.4726  0.4216
   12MOL   H356 4338   2.589   2.035   1.350 -0.4368 -3.6502  1.0025
   12MOL   H357 4339   2.377   2.022   1.206  1.3411  1.1948 -0.4678
   12MOL   H358 4340   2.467   1.898   1.120  0.6088  0.1156 -0.5470
   12MOL   H359 4341   2.399   1.838   1.408  1.1923 -1.2077  1.0021
   12MOL   H360 4342   2.294   1.808   1.276 -0.1521  1.3806 -0.9221
   12MOL   H361 4343   2.453   1.738   1.266  1.0625  1.8582 -0.5253
   12MOL   H362 4344   2.703   2.243   0.974  0.4751 -0.1651  0.3794
   13MOL     C1 4345   2.649   3.263   4.564  0.5788  0.1256  0.0933
   13MOL     C2 4346   2.662   3.327   4.419 -0.7401 -1.4118  0.4506
   13MOL     C3 4347   2.537   3.317   4.337  0.1385 -0.6191  0.5076
   13MOL     O4 4348   2.535   3.253   4.236 -0.9299 -0.4326 -0.0906
   13MOL     O5 4349   2.430   3.391   4.384 -0.2325  0.6165 -0.1928
   13MOL     C6 4350   2.302   3.384   4.310 -0.8195  0.1268  0.0773
   13MOL     C7 4351   2.298   3.475   4.192 -0.1884 -0.4154 -0.2032
   13MOL     C8 4352   2.163   3.466   4.113  0.9354 -0.0419 -0.4848
   13MOL     H9 4353   2.752   3.258   4.600  0.4673 -3.4119  0.0536
   13MOL    H10 4354   2.596   3.323   4.638  1.1547 -0.3304  0.8769
   13MOL    H11 4355   2.734   3.270   4.360  0.6738 -0.0240  0.8098
   13MOL    H12 4356   2.259   3.289   4.281 -0.4071 -1.3628  4.0544
   13MOL    H13 4357   2.222   3.421   4.374  1.0584  3.4726  0.6150
   13MOL    H14 4358   2.324   3.573   4.232 -2.0757  1.5265 -3.5462
   13MOL    H15 4359   2.374   3.445   4.119  0.8613  1.5793  0.0307
   13MOL    H16 4360   2.081   3.472   4.185  0.2367 -2.2779 -1.0518
   13MOL    H17 4361   2.144   3.549   4.044 -1.0920 -0.8406 -0.9203
   13MOL    H18 4362   2.149   3.370   4.064 -1.1541  0.4324 -0.9092
   13MOL    H19 4363   2.595   3.169   4.559  2.2458 -0.8287 -0.1269
   13MOL    C20 4364   2.713   3.477   4.420  0.5979  0.5938  0.0099
   13MOL    C21 4365   2.854   3.491   4.474  0.7145  0.4713  0.0385
   13MOL    C22 4366   2.962   3.421   4.392 -0.0201  0.1858  0.1484
   13MOL    O23 4367   3.037   3.331   4.441  0.2333 -0.0941  0.3220
   13MOL    O24 4368   2.969   3.474   4.265  0.3706  0.4543  0.7648
   13MOL    C25 4369   3.059   3.415   4.172  0.0780 -0.1389 -0.0210
   13MOL    C26 4370   3.014   3.443   4.024  0.2473  0.1287  0.9912
   13MOL    C27 4371   3.112   3.371   3.924  0.4518  0.3970 -0.2435
   13MOL    H28 4372   2.648   3.539   4.483 -0.0358 -1.4122  1.3904
   13MOL    H29 4373   2.698   3.519   4.321 -1.5413  1.6670  0.7506
   13MOL    H30 4374   2.858   3.456   4.577 -0.3091 -0.0259 -0.0907
   13MOL    H31 4375   3.158   3.458   4.181 -0.5234  1.3983 -0.6136
   13MOL    H32 4376   3.057   3.307   4.190 -3.6679 -0.5319 -2.2477
   13MOL    H33 4377   2.913   3.407   4.008  0.7220 -0.2436 -1.3158
   13MOL    H34 4378   3.004   3.551   4.014 -1.1295 -0.1729 -1.2843
   13MOL    H35 4379   3.212   3.414   3.922  0.1476  1.0876 -1.0205
   13MOL    H36 4380   3.074   3.396   3.825 -0.6719  1.4872  0.4459
   13MOL    H37 4381   3.125   3.264   3.934  1.6267  0.2849 -2.6792
   13MOL    C38 4382   2.906   3.635   4.482 -0.6076  0.1771 -0.1135
   13MOL    C39 4383   2.981   3.682   4.603  0.8184 -0.3053 -0.3562
   13MOL    C40 4384   3.053   3.814   4.563 -0.6956  0.7554 -0.1980
   13MOL    O41 4385   3.017   3.920   4.608 -0.4225  0.1595 -0.2001
   13MOL    O42 4386   3.161   3.790   4.491  0.1517  0.2323 -0.6394
   13MOL    C43 4387   3.218   3.891   4.418 -0.7920  0.4735 -0.0441
   13MOL    C44 4388   3.355   3.851   4.378 -0.1327 -0.2897  0.3936
   13MOL    C45 4389   3.445   3.967   4.327 -0.3506 -0.8665 -0.3749
   13MOL    H46 4390   2.818   3.699   4.479 -1.1946 -0.6941 -1.5827
   13MOL    H47 4391   2.959   3.673   4.395  0.6359 -1.8066 -0.2563
   13MOL    H48 4392   3.057   3.609   4.632 -0.9438 -1.5077  1.3606
   13MOL    H49 4393   3.156   3.926   4.335  0.2781  1.2553 -0.5337
   13MOL    H50 4394   3.226   3.982   4.478 -1.1830  1.0741 -0.8788
   13MOL    H51 4395   3.392   3.814   4.474  1.7007  0.4610  0.0059
   13MOL    H52 4396   3.370   3.771   4.305  0.6985  0.8799 -0.7605
   13MOL    H53 4397   3.429   4.063   4.376 -1.3524 -0.5854 -1.2292
   13MOL    H54 4398   3.411   3.995   4.227 -0.7332  0.8893  0.2313
   13MOL    H55 4399   3.547   3.928   4.326  0.0921  0.2652  0.1892
   13MOL    C56 4400   2.875   3.713   4.724 -0.0446  0.3760  0.6488
   13MOL    C57 4401   2.931   3.714   4.866 -0.1202 -0.6331 -0.1503
   13MOL    C58 4402   2.987   3.850   4.918 -0.0439 -0.8187 -0.7100
   13MOL    O59 4403   2.931   3.933   4.995  0.1508  0.5975 -0.1839
   13MOL    O60 4404   3.116   3.851   4.878  0.0017  0.2236 -0.5848
   13MOL    C61 4405   3.196   3.972   4.913 -0.5566  0.1419 -0.7239
   13MOL    C62 4406   3.329   3.958   4.832 -0.5635 -0.1122 -0.1875
   13MOL    C63 4407   3.418   3.855   4.896 -0.3262 -0.7999  0.2900
   13MOL    H64 4408   2.803   3.631   4.715 -2.1896  2.3015 -0.4261
   13MOL    H65 4409   2.815   3.803   4.709 -0.0013  0.2818 -0.0965
   13MOL    H66 4410   3.014   3.643   4.858 -1.0637 -1.6733 -0.9611
   13MOL    H67 4411   3.147   4.063   4.878 -0.0792  0.3575 -0.8227
   13MOL    H68 4412   3.213   3.976   5.020  1.9845 -1.9542 -1.0016
   13MOL    H69 4413   3.308   3.928   4.729 -0.9375 -0.3164 -0.0519
   13MOL    H70 4414   3.394   4.045   4.839 -0.6231  0.1460 -2.3444
   13MOL    H71 4415   3.381   3.755   4.873 -1.8387  0.3164 -2.2795
   13MOL    H72 4416   3.421   3.875   5.003 -0.4929  1.0157 -0.0338
   13MOL    H73 4417   3.518   3.852   4.852 -1.1629 -0.5792 -1.6808
   13MOL    C74 4418   2.831   3.663   4.976  0.0619 -0.3528 -0.0270
   13MOL    C75 4419   2.783   3.513   4.979  0.2735  0.3303 -0.3867
   13MOL    C76 4420   2.902   3.419   4.977  0.7813 -0.2033 -0.3179
   13MOL    O77 4421   2.962   3.381   5.077 -0.7231  0.4008  0.0733
   13MOL    O78 4422   2.924   3.378   4.852  0.1786 -0.1333 -0.2854
   13MOL    C79 4423   3.045   3.320   4.832 -0.1065  0.6768 -0.4260
   13MOL    C80 4424   3.016   3.172   4.791 -0.5256 -0.5237 -1.3580
   13MOL    C81 4425   2.919   3.089   4.878 -0.0935 -0.3218 -0.5730
   13MOL    H82 4426   2.741   3.724   4.979  0.4355  0.2590 -0.9031
   13MOL    H83 4427   2.884   3.681   5.069 -1.2585 -0.4640  0.7613
   13MOL    H84 4428   2.726   3.486   4.890  3.3734  1.2618 -2.7454
   13MOL    H85 4429   3.103   3.373   4.755 -0.4296 -1.7307 -2.3891
   13MOL    H86 4430   3.114   3.327   4.916  2.1800  1.8798 -2.3078
   13MOL    H87 4431   2.993   3.186   4.685  0.9946 -1.2851 -1.7963
   13MOL    H88 4432   3.107   3.114   4.776 -0.0553 -0.8628  2.3819
   13MOL    H89 4433   2.964   3.090   4.977 -1.0664  1.3314 -0.1249
   13MOL    H90 4434   2.908   2.983   4.854  0.4760 -0.1130 -1.7774
   13MOL    H91 4435   2.822   3.138   4.866 -0.6284 -1.0582  0.5814
   13MOL    C92 4436   2.703   3.490   5.111  0.0989  0.9857 -0.4136
   13MOL    C93 4437   2.613   3.365   5.140 -0.1122 -0.8949 -0.0928
   13MOL    C94 4438   2.554   3.384   5.277 -0.1896  0.0807 -0.6537
   13MOL    O95 4439   2.500   3.491   5.306 -0.0489 -0.1681  0.2184
   13MOL    O96 4440   2.565   3.273   5.359  0.4805  0.3941  0.0751
   13MOL    C97 4441   2.526   3.282   5.490  0.0942 -0.3912  0.2914
   13MOL    C98 4442   2.616   3.195   5.575  0.1013 -0.4505 -0.1965
   13MOL    C99 4443   2.750   3.274   5.593  0.1490 -0.2605 -0.3722
   13MOL   H100 4444   2.640   3.578   5.125 -1.4887 -0.4380  1.6470
   13MOL   H101 4445   2.770   3.508   5.195 -1.6312  1.7578  0.8303
   13MOL   H102 4446   2.676   3.277   5.139  2.0330  0.6079 -0.5755
   13MOL   H103 4447   2.534   3.384   5.529  1.6020 -0.3619 -0.0765
   13MOL   H104 4448   2.425   3.242   5.502 -0.1003  0.7148  2.7592
   13MOL   H105 4449   2.572   3.175   5.672 -1.1565 -1.2273 -0.9234
   13MOL   H106 4450   2.645   3.100   5.529  0.2957 -1.3877  1.8256
   13MOL   H107 4451   2.794   3.313   5.502  1.6017 -0.1795  0.3566
   13MOL   H108 4452   2.828   3.219   5.645 -0.4374  0.0942  0.9281
   13MOL   H109 4453   2.727   3.364   5.651 -3.7033 -1.7916  0.6413
   13MOL   C110 4454   2.497   3.333   5.041  0.4309 -0.1471 -0.1213
   13MOL   C111 4455   2.376   3.433   5.017  0.1198 -0.3825  0.2915
   13MOL   C112 4456   2.414   3.561   4.947  0.0074 -0.0759  0.1905
   13MOL   O113 4457   2.368   3.673   4.976 -0.2054  0.1619 -0.4226
   13MOL   O114 4458   2.486   3.539   4.843  0.3462 -0.1503  0.6704
   13MOL   C115 4459   2.509   3.643   4.753 -0.7615 -0.5289 -0.2853
   13MOL   C116 4460   2.418   3.646   4.638  0.0914  0.7916  0.0945
   13MOL   C117 4461   2.443   3.747   4.525 -0.6932  0.3792 -0.1441
   13MOL   H118 4462   2.451   3.243   5.080 -0.9933  0.7068  0.1818
   13MOL   H119 4463   2.531   3.304   4.941 -3.1335  1.0849 -1.7911
   13MOL   H120 4464   2.344   3.459   5.117 -1.1396  0.7699 -0.3991
   13MOL   H121 4465   2.517   3.737   4.808  1.5995 -0.4565 -0.6623
   13MOL   H122 4466   2.611   3.621   4.720 -1.1896 -0.4247 -1.7324
   13MOL   H123 4467   2.427   3.545   4.600 -0.9781  1.3182 -1.6116
   13MOL   H124 4468   2.317   3.663   4.676 -0.6615 -1.4248 -0.8494
   13MOL   H125 4469   2.391   3.841   4.545 -0.6551  0.3207  0.2179
   13MOL   H126 4470   2.392   3.716   4.433 -0.8462 -0.1620  0.1234
   13MOL   H127 4471   2.547   3.762   4.495 -1.1572  1.2652 -1.3955
   13MOL   C128 4472   2.263   3.357   4.945 -0.2628 -0.6428 -0.1973
   13MOL   C129 4473   2.128   3.389   5.003 -1.2391  0.2428  0.4198
   13MOL   C130 4474   2.107   3.357   5.156 -0.5295 -0.2351  0.2990
   13MOL   O131 4475   2.126   3.441   5.245  0.4989  0.7055 -0.0354
   13MOL   O132 4476   2.071   3.225   5.176  0.4452 -0.1107 -0.1533
   13MOL   C133 4477   2.070   3.164   5.303 -0.2316 -0.2904 -0.3091
   13MOL   C134 4478   2.203   3.128   5.369  0.0002 -0.2524  0.4726
   13MOL   C135 4479   2.294   3.040   5.283  0.1667 -0.1015 -0.2897
   13MOL   H136 4480   2.275   3.250   4.966  0.2064 -0.3082  1.3468
   13MOL   H137 4481   2.260   3.359   4.836  1.7078  1.0197 -0.2421
   13MOL   H138 4482   2.070   3.311   4.953 -3.2728  1.9131  0.0702
   13MOL   H139 4483   2.027   3.237   5.372 -1.4381 -2.3640  1.1816
   13MOL   H140 4484   2.003   3.079   5.304 -0.5599 -0.0323 -0.2066
   13MOL   H141 4485   2.237   3.224   5.407  0.1926  0.2666 -0.9889
   13MOL   H142 4486   2.184   3.067   5.457 -2.7611  0.8334  0.6855
   13MOL   H143 4487   2.387   3.021   5.337  1.2529  0.5887 -1.8783
   13MOL   H144 4488   2.317   3.082   5.185 -2.0419  0.1786 -0.7145
   13MOL   H145 4489   2.236   2.948   5.274 -1.0292  0.6022  0.1656
   13MOL   C146 4490   2.064   3.527   4.974 -0.3016 -0.5302 -0.0868
   13MOL   C147 4491   2.046   3.555   4.828 -0.5154  0.3079  0.1462
   13MOL   C148 4492   1.960   3.453   4.757 -0.0269  0.2912 -0.1995
   13MOL   O149 4493   1.864   3.394   4.808 -0.5888  0.8796 -0.3621
   13MOL   O150 4494   2.007   3.422   4.638 -0.1514  0.1532  0.6306
   13MOL   C151 4495   1.971   3.303   4.572 -0.2810 -0.4199 -0.3221
   13MOL   C152 4496   1.837   3.328   4.495  1.4285 -0.2038 -0.6297
   13MOL   C153 4497   1.822   3.460   4.420 -0.3359 -0.1099  0.2216
   13MOL   H154 4498   2.118   3.604   5.029 -0.2933 -1.9054  1.9008
   13MOL   H155 4499   1.968   3.523   5.026 -0.8420  0.4668 -0.9830
   13MOL   H156 4500   2.141   3.547   4.774 -0.2157  0.0666  0.7007
   13MOL   H157 4501   2.050   3.267   4.506  0.2447  1.3421 -0.6631
   13MOL   H158 4502   1.959   3.227   4.650  0.2909  0.2483  0.4243
   13MOL   H159 4503   1.820   3.241   4.432  0.6003 -0.4996 -0.0115
   13MOL   H160 4504   1.748   3.324   4.559 -0.4356  1.8218 -2.9849
   13MOL   H161 4505   1.914   3.491   4.370 -0.2723  1.7993  1.4716
   13MOL   H162 4506   1.822   3.541   4.493 -0.0534  0.4300 -0.3718
   13MOL   H163 4507   1.729   3.471   4.365 -2.2952  1.4927  3.6793
   13MOL   C164 4508   2.004   3.694   4.794  0.5962 -0.9379 -0.1779
   13MOL   C165 4509   1.865   3.751   4.841 -0.0900 -0.3463 -0.0192
   13MOL   C166 4510   1.885   3.809   4.985  0.2865 -0.3214  0.5015
   13MOL   O167 4511   1.827   3.756   5.081  0.8218  0.3455 -0.2568
   13MOL   O168 4512   1.977   3.905   5.001  0.9632 -0.3285  0.3194
   13MOL   C169 4513   2.000   3.951   5.133 -0.8629 -0.2978 -0.3480
   13MOL   C170 4514   2.112   4.054   5.125  0.1433  0.2926 -0.0273
   13MOL   C171 4515   2.068   4.195   5.067  0.5337  0.3070  0.6310
   13MOL   H172 4516   2.021   3.717   4.689  2.3155  3.0402  0.8378
   13MOL   H173 4517   2.086   3.759   4.826  0.0527  0.9891 -2.5663
   13MOL   H174 4518   1.796   3.667   4.849 -1.3226  0.3977 -2.1156
   13MOL   H175 4519   1.906   3.988   5.174 -0.0077  0.2698  1.1342
   13MOL   H176 4520   2.020   3.857   5.186 -2.0309 -0.6908 -0.5877
   13MOL   H177 4521   2.160   4.067   5.222 -1.5014 -0.1236  0.8571
   13MOL   H178 4522   2.189   4.010   5.061 -0.7167 -0.3217 -0.6360
   13MOL   H179 4523   2.131   4.281   5.087  0.5523  0.6330 -0.7911
   13MOL   H180 4524   1.975   4.222   5.118 -1.8434  0.3663 -3.4772
   13MOL   H181 4525   2.058   4.192   4.958 -1.3580 -1.7067  0.8081
   13MOL   C182 4526   1.816   3.871   4.756 -1.1612 -0.2667  0.7235
   13MOL   C183 4527   1.665   3.883   4.740 -0.2166  0.6533  0.2061
   13MOL   C184 4528   1.611   3.762   4.671 -0.6266  0.1406 -0.3330
   13MOL   O185 4529   1.602   3.755   4.548 -0.3759 -0.0982  0.1715
   13MOL   O186 4530   1.592   3.663   4.749  0.1806  0.2626  0.1738
   13MOL   C187 4531   1.541   3.536   4.696  0.0497  0.1079  0.1023
   13MOL   C188 4532   1.490   3.436   4.801  0.4401 -0.0346  0.5425
   13MOL   C189 4533   1.446   3.302   4.735 -0.3892 -0.2148  0.3273
   13MOL   H190 4534   1.860   3.862   4.657 -1.7344  0.8099  0.3608
   13MOL   H191 4535   1.856   3.966   4.793 -1.0683  0.1347 -0.3810
   13MOL   H192 4536   1.647   3.959   4.664 -2.0269  0.4849  0.4289
   13MOL   H193 4537   1.466   3.558   4.620 -0.7531  0.2238  0.9080
   13MOL   H194 4538   1.624   3.498   4.638 -0.5789 -1.1629  0.0134
   13MOL   H195 4539   1.564   3.398   4.870  1.3707 -0.8246 -0.8725
   13MOL   H196 4540   1.410   3.474   4.864 -0.2765 -0.8693  0.1436
   13MOL   H197 4541   1.383   3.258   4.813 -1.6245  0.4941 -0.2514
   13MOL   H198 4542   1.515   3.221   4.712 -0.4811 -0.3421  0.4974
   13MOL   H199 4543   1.384   3.311   4.646  0.8617  2.3827 -0.3228
   13MOL   C200 4544   1.595   3.920   4.876  0.7571 -0.2795  0.8832
   13MOL   C201 4545   1.642   4.041   4.955 -0.1492 -0.5747 -0.7739
   13MOL   C202 4546   1.637   4.169   4.872 -0.7173 -0.5687 -0.7928
   13MOL   O203 4547   1.529   4.229   4.866  0.0259  0.3412  0.5549
   13MOL   O204 4548   1.747   4.189   4.806 -0.3801  0.5790 -0.0104
   13MOL   C205 4549   1.746   4.275   4.692 -0.6345 -0.1697 -0.2739
   13MOL   C206 4550   1.807   4.417   4.718  0.3761 -0.2554  1.0062
   13MOL   C207 4551   1.777   4.524   4.614  0.6647  0.2823 -0.7490
   13MOL   H208 4552   1.605   3.840   4.949  2.4139  0.5545  1.5819
   13MOL   H209 4553   1.489   3.929   4.851  0.3275  0.2502  2.7559
   13MOL   H210 4554   1.748   4.037   4.981 -0.1477  1.7920 -0.3210
   13MOL   H211 4555   1.807   4.236   4.611 -0.0203 -0.2810  0.2423
   13MOL   H212 4556   1.646   4.287   4.649  0.3184  0.0896 -2.5234
   13MOL   H213 4557   1.764   4.461   4.808  0.7993  0.7904  0.7088
   13MOL   H214 4558   1.913   4.411   4.743  0.0834  0.0550  2.3468
   13MOL   H215 4559   1.671   4.533   4.588  0.8627 -2.0595 -2.5410
   13MOL   H216 4560   1.836   4.512   4.524  0.8580 -1.7176 -0.3743
   13MOL   H217 4561   1.813   4.619   4.653  1.2996 -1.1068  2.2341
   13MOL   C218 4562   1.551   4.052   5.086 -0.2430  0.3452  0.7545
   13MOL   C219 4563   1.571   3.960   5.204  0.6446 -0.0542  0.4054
   13MOL   C220 4564   1.662   4.015   5.318 -0.2573 -0.2811  0.8105
   13MOL   O221 4565   1.712   4.129   5.321 -0.2858  0.7833  0.4865
   13MOL   O222 4566   1.682   3.927   5.426  0.7851 -0.0302 -0.3624
   13MOL   C223 4567   1.765   3.961   5.533 -0.4432  0.3555 -0.0934
   13MOL   C224 4568   1.847   3.837   5.563  0.6893  0.4587  1.3101
   13MOL   C225 4569   1.945   3.799   5.459  0.4737 -0.5535  0.5611
   13MOL   H226 4570   1.445   4.050   5.057  0.3047 -0.9813 -1.2614
   13MOL   H227 4571   1.571   4.155   5.117  1.5823  0.4875 -0.7819
   13MOL   H228 4572   1.639   3.880   5.174  1.6926 -0.2131  3.0434
   13MOL   H229 4573   1.823   4.051   5.512 -1.1305  0.6201 -0.8977
   13MOL   H230 4574   1.705   3.998   5.616  0.6444  0.3355  0.7121
   13MOL   H231 4575   1.895   3.868   5.656  3.0217 -1.4260  0.7785
   13MOL   H232 4576   1.781   3.753   5.585 -0.5991  1.0285 -0.2364
   13MOL   H233 4577   1.901   3.785   5.360 -0.5255 -1.7741  1.1713
   13MOL   H234 4578   1.992   3.703   5.482 -0.1732 -0.9112  0.4056
   13MOL   H235 4579   2.008   3.885   5.436 -0.3614 -0.2576 -0.6981
   13MOL   C236 4580   1.431   3.915   5.257 -0.9566 -0.0605  0.0116
   13MOL   C237 4581   1.367   3.798   5.177 -0.6553 -0.1266  0.5189
   13MOL   C238 4582   1.432   3.657   5.204  0.0697  0.8445 -0.2130
   13MOL   O239 4583   1.381   3.580   5.284  0.3696  0.3814  0.0631
   13MOL   O240 4584   1.546   3.634   5.144  0.1675  0.1236  0.2663
   13MOL   C241 4585   1.626   3.512   5.170 -0.4927 -0.3864  0.8902
   13MOL   C242 4586   1.723   3.507   5.291  0.8076  0.4425  0.2616
   13MOL   C243 4587   1.769   3.365   5.320 -0.2773  0.3650 -0.0994
   13MOL   H244 4588   1.369   4.004   5.268  1.1576  1.7634 -2.1409
   13MOL   H245 4589   1.428   3.883   5.361  1.4140  0.5517  0.2907
   13MOL   H246 4590   1.390   3.823   5.074 -0.9302 -2.3537 -0.0887
   13MOL   H247 4591   1.551   3.434   5.182  0.5978 -1.5924 -0.0424
   13MOL   H248 4592   1.681   3.490   5.079 -0.6217 -0.4002  0.8159
   13MOL   H249 4593   1.806   3.574   5.268  1.9711 -1.5997 -1.7660
   13MOL   H250 4594   1.674   3.548   5.379  2.6064  2.7755  0.2223
   13MOL   H251 4595   1.797   3.322   5.224  0.1997  0.6733 -0.0975
   13MOL   H252 4596   1.692   3.296   5.355  0.0517  0.3936  0.6805
   13MOL   H253 4597   1.865   3.364   5.371 -0.3600 -0.4730  0.0479
   13MOL   C254 4598   1.209   3.796   5.181 -0.5316  0.4905 -0.6344
   13MOL   C255 4599   1.128   3.772   5.054 -1.0756 -0.8134  0.8365
   13MOL   C256 4600   1.167   3.885   4.954 -0.4760 -0.4416 -0.0514
   13MOL   O257 4601   1.216   3.863   4.847  0.3498  0.3011 -0.1482
   13MOL   O258 4602   1.144   4.005   4.999 -0.0951  0.2592  0.3087
   13MOL   C259 4603   1.159   4.121   4.915  0.0758 -0.4459 -0.8445
   13MOL   C260 4604   1.200   4.240   5.001 -0.0826  0.4719  0.1447
   13MOL   C261 4605   1.105   4.270   5.116 -0.8358  0.0365  0.1222
   13MOL   H262 4606   1.181   3.885   5.238 -1.2198  0.5616 -1.0632
   13MOL   H263 4607   1.175   3.729   5.259 -1.2453  3.7236  1.9619
   13MOL   H264 4608   1.022   3.791   5.073 -1.0215 -1.3307  1.7271
   13MOL   H265 4609   1.228   4.111   4.831  1.5626  0.5633  0.2383
   13MOL   H266 4610   1.062   4.128   4.865  0.2272 -0.4924 -1.1459
   13MOL   H267 4611   1.301   4.216   5.035  0.3173 -1.0175 -1.9510
   13MOL   H268 4612   1.197   4.332   4.943  1.2170  0.9614  0.8331
   13MOL   H269 4613   1.125   4.371   5.152 -0.2943  0.1503 -0.4855
   13MOL   H270 4614   1.120   4.209   5.205 -1.1581  0.0856  0.2113
   13MOL   H271 4615   1.003   4.262   5.079 -0.8355 -0.4547  0.2233
   13MOL   C272 4616   1.137   3.630   5.007  0.2516  0.4373  0.4064
   13MOL   C273 4617   1.070   3.520   5.089 -0.5513  0.0446 -0.3232
   13MOL   C274 4618   0.918   3.495   5.080 -0.7131 -0.0797  0.3804
   13MOL   O275 4619   0.857   3.455   5.176 -0.1770 -0.0756 -0.3884
   13MOL   O276 4620   0.869   3.523   4.960  0.0946  0.5851 -0.3233
   13MOL   C277 4621   0.727   3.517   4.936 -0.2175  0.5022  0.4030
   13MOL   C278 4622   0.655   3.648   4.972 -0.7893  0.1963 -0.3136
   13MOL   C279 4623   0.504   3.642   4.972 -0.5521  0.2065  0.1947
   13MOL   H280 4624   1.239   3.597   4.988  0.0741 -0.2993  0.7091
   13MOL   H281 4625   1.098   3.643   4.906  0.6090 -0.1273  0.1978
   13MOL   H282 4626   1.079   3.557   5.191  0.1434 -0.8890 -0.0391
   13MOL   H283 4627   0.717   3.517   4.828 -0.1870 -4.2980  0.3272
   13MOL   H284 4628   0.676   3.428   4.974 -1.6627  2.1855  2.5942
   13MOL   H285 4629   0.693   3.688   5.065  0.2367  0.6457 -0.9118
   13MOL   H286 4630   0.683   3.717   4.892 -0.7681  0.6963  0.1283
   13MOL   H287 4631   0.483   3.592   4.877 -1.5761  2.7371 -0.9506
   13MOL   H288 4632   0.456   3.739   4.980 -0.5650  0.3261 -1.2346
   13MOL   H289 4633   0.490   3.574   5.056  0.3259  1.1066  1.0812
   13MOL   C290 4634   1.143   3.385   5.065  1.1071 -0.1369  0.1204
   13MOL   C291 4635   1.098   3.252   5.122  0.1866 -0.4385  0.9647
   13MOL   C292 4636   1.179   3.130   5.063  0.4696  0.0404  0.7543
   13MOL   O293 4637   1.127   3.053   4.988 -0.5913 -0.2305  0.4156
   13MOL   O294 4638   1.310   3.110   5.108  1.2293 -0.2012  0.1471
   13MOL   C295 4639   1.379   2.998   5.067  0.0782 -0.2767 -0.0772
   13MOL   C296 4640   1.506   2.975   5.145 -0.3956  0.3544  0.2975
   13MOL   C297 4641   1.605   3.088   5.133  0.0667  0.1961 -0.5483
   13MOL   H298 4642   1.250   3.394   5.087  1.0170  0.2883  0.3764
   13MOL   H299 4643   1.136   3.371   4.957  1.9118 -1.9264  0.2793
   13MOL   H300 4644   0.992   3.234   5.106  0.3905 -0.1180 -0.8283
   13MOL   H301 4645   1.312   2.913   5.073 -0.5616 -0.0285 -3.0474
   13MOL   H302 4646   1.407   3.000   4.961  1.2491 -2.3388  0.1587
   13MOL   H303 4647   1.489   2.959   5.251 -1.7624 -0.3512 -0.0203
   13MOL   H304 4648   1.550   2.882   5.110  1.8731  0.9882  1.3396
   13MOL   H305 4649   1.605   3.115   5.027 -1.0345  0.9272 -0.3727
   13MOL   H306 4650   1.706   3.062   5.166 -1.0914 -0.0725  2.8706
   13MOL   H307 4651   1.567   3.172   5.191  0.3137 -1.3561  1.8959
   13MOL   C308 4652   1.092   3.247   5.283 -0.2610 -0.8639 -0.8836
   13MOL   C309 4653   1.008   3.142   5.352  0.3576  0.0075  0.3876
   13MOL   C310 4654   1.085   3.001   5.348 -0.0462  0.7293 -0.5213
   13MOL   O311 4655   1.204   2.997   5.380 -0.4658  0.0152  1.1861
   13MOL   O312 4656   1.011   2.899   5.290  0.3273  0.3351 -0.0241
   13MOL   C313 4657   1.081   2.782   5.257 -0.5743 -0.3051 -0.6008
   13MOL   C314 4658   0.993   2.692   5.175  0.0261  0.3813 -0.6940
   13MOL   C315 4659   0.856   2.661   5.247 -0.2379 -0.1621  0.6277
   13MOL   H316 4660   1.065   3.346   5.318  0.2791 -0.4006 -1.7640
   13MOL   H317 4661   1.193   3.244   5.323  0.3946  1.8395 -2.2208
   13MOL   H318 4662   0.918   3.122   5.293  0.0535 -1.7959  1.4219
   13MOL   H319 4663   1.169   2.808   5.199 -2.1432  0.8485 -2.5367
   13MOL   H320 4664   1.106   2.723   5.345 -1.6815  1.0554  0.6677
   13MOL   H321 4665   0.978   2.742   5.080  1.0922  0.9116 -0.5842
   13MOL   H322 4666   1.030   2.602   5.126 -2.2894 -0.1195 -1.5977
   13MOL   H323 4667   0.804   2.753   5.275 -3.1407 -1.3415 -0.6909
   13MOL   H324 4668   0.786   2.609   5.182 -1.0055  0.6894  0.7652
   13MOL   H325 4669   0.869   2.606   5.340  2.5396  1.0287  1.0100
   13MOL   C326 4670   0.970   3.181   5.500  0.4807  0.0584 -0.6821
   13MOL   C327 4671   0.832   3.123   5.542 -0.1477 -0.7160  0.1177
   13MOL   C328 4672   0.807   3.137   5.695 -0.3346 -0.1759 -0.9229
   13MOL   O329 4673   0.862   3.226   5.764 -0.1364 -0.0760 -0.3388
   13MOL   O330 4674   0.730   3.032   5.750 -0.5806  0.0384  0.0814
   13MOL   C331 4675   0.726   3.018   5.887  0.2328 -0.0938 -0.0972
   13MOL   C332 4676   0.664   2.892   5.938  0.1933  0.0747 -0.3258
   13MOL   C333 4677   0.744   2.761   5.914  0.6248  0.1211 -0.6370
   13MOL   H334 4678   0.964   3.289   5.514  0.5414 -0.0138 -0.0843
   13MOL   H335 4679   1.044   3.138   5.567 -0.5344  1.3945  1.3375
   13MOL   H336 4680   0.844   3.015   5.529  3.4800 -0.7302  2.6374
   13MOL   H337 4681   0.825   3.036   5.927 -0.4705  0.3726  1.4552
   13MOL   H338 4682   0.657   3.097   5.919 -0.2268 -1.3429  2.0768
   13MOL   H339 4683   0.635   2.904   6.042  0.3067  0.5430 -0.3475
   13MOL   H340 4684   0.574   2.886   5.877  0.8901  0.3292 -1.3869
   13MOL   H341 4685   0.685   2.676   5.948  0.4701  0.5791  0.2464
   13MOL   H342 4686   0.764   2.752   5.807 -3.4413  1.3295 -1.5653
   13MOL   H343 4687   0.837   2.758   5.970  0.6843 -1.0998 -0.7787
   13MOL   C344 4688   0.709   3.180   5.462 -0.3631  0.4682  0.2562
   13MOL   C345 4689   0.573   3.098   5.459 -0.2026 -0.4764 -0.3344
   13MOL   C346 4690   0.527   3.075   5.314 -0.3266  0.1084 -0.9208
   13MOL   O347 4691   0.457   3.149   5.255 -0.2761 -1.2803  0.4229
   13MOL   O348 4692   0.585   2.969   5.269 -0.0421 -0.1327 -0.1409
   13MOL   C349 4693   0.564   2.929   5.135 -0.0375 -0.5541  0.2860
   13MOL   C350 4694   0.655   3.001   5.036  0.1796  0.5438 -0.3983
   13MOL   C351 4695   0.795   2.949   5.045 -0.4476  0.0446  0.1057
   13MOL   H352 4696   0.748   3.215   5.366 -1.4634 -0.5498 -0.5925
   13MOL   H353 4697   0.693   3.273   5.517 -1.2579  0.8865 -0.6859
   13MOL   H354 4698   0.501   3.154   5.519 -2.1844 -0.2774 -2.8205
   13MOL   H355 4699   0.596   2.825   5.144  2.1896  0.3454  3.6063
   13MOL   H356 4700   0.456   2.917   5.124 -0.2335 -0.1019  1.6012
   13MOL   H357 4701   0.625   2.982   4.933  1.3780 -2.4587 -0.2578
   13MOL   H358 4702   0.637   3.108   5.045 -1.6809  0.5138 -3.2301
   13MOL   H359 4703   0.824   2.974   5.147 -2.2487  1.4742  0.2889
   13MOL   H360 4704   0.796   2.844   5.017  0.8238  0.2982 -0.8444
   13MOL   H361 4705   0.867   3.002   4.984 -2.5087  0.9893 -1.5647
   13MOL   H362 4706   0.592   2.999   5.500 -0.9761 -1.0916 -1.4508
   14MOL     C1 4707   1.120   7.312   2.347  0.2265 -0.1423 -0.0478
   14MOL     C2 4708   0.990   7.283   2.281 -0.2869  0.3837  0.0691
   14MOL     C3 4709   0.877   7.339   2.362 -0.5352 -0.1377 -0.0324
   14MOL     O4 4710   0.809   7.272   2.439 -0.5521 -0.5466  0.9406
   14MOL     O5 4711   0.868   7.485   2.337  0.4707  0.1291  0.7005
   14MOL     C6 4712   0.750   7.554   2.373 -0.0101 -0.7371 -0.5416
   14MOL     C7 4713   0.629   7.525   2.282 -0.1287  0.5226 -0.5635
   14MOL     C8 4714   0.516   7.627   2.297 -0.2891 -0.7099  0.7849
   14MOL     H9 4715   1.202   7.242   2.334 -0.9746 -1.6200  0.2465
   14MOL    H10 4716   1.163   7.394   2.289  0.3733  0.4396  0.8680
   14MOL    H11 4717   0.970   7.177   2.297 -0.1687  0.0425 -1.9198
   14MOL    H12 4718   0.729   7.535   2.478  0.5834  0.7291 -0.1418
   14MOL    H13 4719   0.761   7.663   2.379 -0.9089 -0.7188  1.0104
   14MOL    H14 4720   0.663   7.531   2.179 -1.8871  0.5006 -1.1660
   14MOL    H15 4721   0.606   7.418   2.279  0.9778  0.2991 -1.1796
   14MOL    H16 4722   0.488   7.651   2.399 -0.2810 -2.3124  1.1854
   14MOL    H17 4723   0.566   7.722   2.280 -0.2486 -0.7422  0.7238
   14MOL    H18 4724   0.433   7.618   2.226 -1.0777  1.5753  1.4010
   14MOL    H19 4725   1.114   7.360   2.445  0.3651  0.7903 -0.4946
   14MOL    C20 4726   0.991   7.312   2.123  0.7776  0.8528  0.0122
   14MOL    C21 4727   0.949   7.185   2.038 -0.5426  0.2249 -0.5410
   14MOL    C22 4728   0.802   7.142   2.054 -0.6775  0.0632  0.2967
   14MOL    O23 4729   0.720   7.217   2.102 -0.4228 -0.4418 -0.5461
   14MOL    O24 4730   0.784   7.015   2.022  0.2686 -0.1785  0.1463
   14MOL    C25 4731   0.654   6.965   2.048 -0.4795 -0.3538 -0.1287
   14MOL    C26 4732   0.562   6.974   1.927  0.6721 -0.0269  0.1859
   14MOL    C27 4733   0.609   6.867   1.828 -0.2011  0.1208 -0.3170
   14MOL    H28 4734   1.091   7.345   2.095  0.8924  0.6047  0.1295
   14MOL    H29 4735   0.917   7.389   2.102 -2.6380 -2.0809  0.6806
   14MOL    H30 4736   1.004   7.102   2.083 -0.6654 -0.1065 -0.9942
   14MOL    H31 4737   0.669   6.859   2.069  1.2121 -0.2785 -0.8987
   14MOL    H32 4738   0.606   6.997   2.140 -1.9417 -2.1889 -0.2339
   14MOL    H33 4739   0.460   6.954   1.960  0.6900  0.6409  0.6468
   14MOL    H34 4740   0.568   7.070   1.876  1.6574 -0.6608 -0.9018
   14MOL    H35 4741   0.696   6.896   1.770  0.8104  0.9023  1.5503
   14MOL    H36 4742   0.531   6.834   1.760  1.1637  0.1785 -1.9440
   14MOL    H37 4743   0.638   6.776   1.880 -2.2625  0.0158  0.6872
   14MOL    C38 4744   0.975   7.194   1.884  0.6208 -0.1985 -0.5929
   14MOL    C39 4745   0.925   7.319   1.811  0.7561  0.4238 -0.2607
   14MOL    C40 4746   1.027   7.371   1.709 -0.1617  0.1849 -1.0426
   14MOL    O41 4747   1.017   7.351   1.589  0.4873 -0.4585  0.3683
   14MOL    O42 4748   1.131   7.439   1.768 -0.2640 -0.4335 -0.1029
   14MOL    C43 4749   1.247   7.482   1.697 -0.0567  0.1130  1.0393
   14MOL    C44 4750   1.239   7.631   1.675  0.4565 -0.0360 -0.8044
   14MOL    C45 4751   1.129   7.682   1.577 -0.2350 -0.9622  0.3015
   14MOL    H46 4752   0.938   7.106   1.830 -1.3636  0.5724 -0.5030
   14MOL    H47 4753   1.084   7.195   1.877  0.5765 -0.8149 -1.5113
   14MOL    H48 4754   0.902   7.394   1.886  0.2458 -0.0222  0.0333
   14MOL    H49 4755   1.343   7.454   1.740 -0.7374 -1.3857  1.6073
   14MOL    H50 4756   1.256   7.437   1.598  0.5991  1.5816  0.4039
   14MOL    H51 4757   1.225   7.690   1.765 -1.8571 -0.5835 -0.7685
   14MOL    H52 4758   1.331   7.664   1.627  1.6742 -1.8435  0.2520
   14MOL    H53 4759   1.122   7.790   1.586 -0.0355 -0.8315 -1.1000
   14MOL    H54 4760   1.033   7.640   1.608  0.7293 -3.6425 -0.1474
   14MOL    H55 4761   1.134   7.649   1.474 -2.1105 -0.0085 -0.1086
   14MOL    C56 4762   0.784   7.293   1.746  0.1593  0.1041  0.3942
   14MOL    C57 4763   0.701   7.413   1.688  0.2070  0.2301 -0.2292
   14MOL    C58 4764   0.587   7.361   1.606 -0.2597  0.1217  0.3324
   14MOL    O59 4765   0.477   7.333   1.656  0.1852 -0.6153  0.1832
   14MOL    O60 4766   0.619   7.342   1.485  0.1553 -0.3418  0.3066
   14MOL    C61 4767   0.529   7.276   1.400  0.6132  0.2009  0.3415
   14MOL    C62 4768   0.596   7.155   1.330 -0.7534 -0.2642  0.3822
   14MOL    C63 4769   0.741   7.177   1.288 -0.4970 -0.4936 -0.2843
   14MOL    H64 4770   0.716   7.250   1.821  0.4945 -2.8342 -0.8981
   14MOL    H65 4771   0.788   7.208   1.677  0.3700  0.5846 -0.1870
   14MOL    H66 4772   0.769   7.470   1.625  1.6803 -0.4626  0.7129
   14MOL    H67 4773   0.433   7.244   1.441  1.3897  0.3828  2.3429
   14MOL    H68 4774   0.520   7.366   1.339  0.4135  0.1200  0.2502
   14MOL    H69 4775   0.597   7.065   1.392 -2.1165 -0.4584  0.1386
   14MOL    H70 4776   0.530   7.137   1.246 -0.7290 -1.3310  0.5775
   14MOL    H71 4777   0.782   7.085   1.245 -0.1037  0.1127 -1.2453
   14MOL    H72 4778   0.800   7.197   1.377 -0.7992 -1.3043  0.1056
   14MOL    H73 4779   0.757   7.248   1.207  3.6144  0.8503  1.5516
   14MOL    C74 4780   0.647   7.505   1.803 -0.0509 -0.3588  0.3154
   14MOL    C75 4781   0.570   7.630   1.758 -0.1145 -0.4404 -0.7797
   14MOL    C76 4782   0.512   7.705   1.885  0.1060  0.4268 -0.2685
   14MOL    O77 4783   0.569   7.693   1.998 -0.5967 -0.0624  0.0286
   14MOL    O78 4784   0.420   7.789   1.850 -0.0528  0.2431 -0.2830
   14MOL    C79 4785   0.380   0.001   1.950 -0.7735 -0.4219 -0.1000
   14MOL    C80 4786   0.294   0.105   1.879 -0.0401  0.7788 -0.0529
   14MOL    C81 4787   0.173   0.047   1.811  0.2717 -0.2178 -0.1148
   14MOL    H82 4788   0.736   7.538   1.857 -1.8666  0.7533  2.7201
   14MOL    H83 4789   0.586   7.447   1.872  0.0305 -0.2658  0.4656
   14MOL    H84 4790   0.478   7.598   1.709 -1.5413  2.4808 -0.1426
   14MOL    H85 4791   0.326   7.845   2.038  1.5332  0.3650  1.7030
   14MOL    H86 4792   0.465   0.054   1.994  2.2932 -3.9698 -1.4766
   14MOL    H87 4793   0.245   0.177   1.943 -1.5582 -0.3494  0.0754
   14MOL    H88 4794   0.352   0.154   1.801  1.0778 -1.3638 -0.6340
   14MOL    H89 4795   0.129   7.849   1.872  0.9478 -2.4743 -2.4565
   14MOL    H90 4796   0.190   0.004   1.712  0.8198 -0.0399 -0.0976
   14MOL    H91 4797   0.097   0.123   1.793 -0.3940 -1.0319 -0.7635
   14MOL    C92 4798   0.648   7.714   1.663 -0.0265 -0.3102 -0.2331
   14MOL    C93 4799   0.588   7.842   1.593 -0.4717 -0.4713  0.0148
   14MOL    C94 4800   0.678   0.079   1.634 -0.6829 -1.1618  0.2034
   14MOL    O95 4801   0.801   0.077   1.601  0.7306  0.1999  0.1120
   14MOL    O96 4802   0.616   0.174   1.702 -0.0301  0.3020  0.2757
   14MOL    C97 4803   0.686   0.270   1.776 -0.2418 -0.7195 -0.1486
   14MOL    C98 4804   0.598   0.370   1.851 -0.5284 -0.8910  0.2213
   14MOL    C99 4805   0.685   0.440   1.958  0.0244  0.0435 -0.5387
   14MOL   H100 4806   0.687   7.655   1.580 -0.9788  1.8227 -2.2571
   14MOL   H101 4807   0.738   7.737   1.720 -0.1344 -0.0657 -0.1599
   14MOL   H102 4808   0.491   7.873   1.632 -0.4166  0.0297 -0.2342
   14MOL   H103 4809   0.736   0.223   1.861  0.0705  0.6121  0.4080
   14MOL   H104 4810   0.772   0.305   1.718 -1.0004  1.7385  0.1593
   14MOL   H105 4811   0.562   0.437   1.773 -1.8097  0.7753  2.1949
   14MOL   H106 4812   0.513   0.322   1.899 -1.3309 -0.1979 -0.5124
   14MOL   H107 4813   0.607   0.497   2.009  0.0574 -0.2305 -0.1788
   14MOL   H108 4814   0.771   0.497   1.924  1.6721 -1.2148  1.3677
   14MOL   H109 4815   0.729   0.372   2.031  1.3759  0.2649 -1.1316
   14MOL   C110 4816   0.567   7.819   1.438 -0.3469  0.1194 -0.1495
   14MOL   C111 4817   0.464   7.706   1.415 -0.1921  0.4761  0.2855
   14MOL   C112 4818   0.324   7.753   1.452  0.9973 -0.0559 -0.3241
   14MOL   O113 4819   0.296   7.868   1.490 -0.3017  0.0768 -0.1437
   14MOL   O114 4820   0.240   7.661   1.447  0.4985 -0.2368 -0.2733
   14MOL   C115 4821   0.111   7.679   1.512  0.3145 -0.1369  0.0197
   14MOL   C116 4822   0.100   7.566   1.617 -0.0188  0.0769  0.7902
   14MOL   C117 4823   0.116   7.423   1.566 -0.2714 -0.5935 -0.2053
   14MOL   H118 4824   0.662   7.789   1.395 -0.1751 -0.6726  0.7590
   14MOL   H119 4825   0.539   0.030   1.386  1.6544  0.5305 -0.5367
   14MOL   H120 4826   0.486   7.628   1.487 -0.8477  0.9439  0.9907
   14MOL   H121 4827   0.101   7.774   1.564  0.6788 -0.4807  0.7190
   14MOL   H122 4828   0.029   7.683   1.440  0.7321  0.9707 -0.3907
   14MOL   H123 4829   0.176   7.583   1.694  0.6686  1.5834 -0.1815
   14MOL   H124 4830   0.005   7.571   1.670 -0.4392  3.2265 -0.1359
   14MOL   H125 4831   0.193   7.407   1.491 -1.3461  0.5749 -1.5890
   14MOL   H126 4832   0.022   7.384   1.525 -0.2386  0.0455 -0.8982
   14MOL   H127 4833   0.134   7.357   1.651  0.3037 -0.5670 -0.3082
   14MOL   C128 4834   0.489   7.633   1.277  0.1116  0.1693 -0.8646
   14MOL   C129 4835   0.505   7.727   1.151 -0.3760  0.0324 -0.4761
   14MOL   C130 4836   0.652   7.764   1.128 -0.5846 -0.8224 -0.3683
   14MOL   O131 4837   0.704   7.873   1.138  0.2390  0.0128  0.0716
   14MOL   O132 4838   0.734   7.652   1.106  0.1897 -0.5048  0.6523
   14MOL   C133 4839   0.877   7.671   1.098 -0.5203  0.3514 -0.6245
   14MOL   C134 4840   0.924   7.652   1.245 -1.0271 -0.7250 -0.4685
   14MOL   C135 4841   0.904   7.519   1.299  0.4766 -0.3050 -0.0764
   14MOL   H136 4842   0.399   7.572   1.277  0.8636 -0.9923 -3.1074
   14MOL   H137 4843   0.577   7.571   1.293  0.3357  1.0341  1.4448
   14MOL   H138 4844   0.451   7.819   1.174  1.3490  0.7989  0.6451
   14MOL   H139 4845   0.925   7.605   1.026  1.4228  0.5652  0.4353
   14MOL   H140 4846   0.906   7.771   1.067  0.8846  0.1640  0.0468
   14MOL   H141 4847   1.031   7.663   1.263 -1.0500 -0.6859 -0.3573
   14MOL   H142 4848   0.881   7.731   1.307 -1.6947 -0.8773 -0.7255
   14MOL   H143 4849   0.928   7.512   1.405  1.8330  0.4821 -0.3138
   14MOL   H144 4850   0.960   7.442   1.246 -2.1092 -1.6618 -0.8891
   14MOL   H145 4851   0.800   7.489   1.306  0.0354  1.1146 -0.3275
   14MOL   C146 4852   0.436   7.659   1.028  0.0465 -0.4192 -0.2713
   14MOL   C147 4853   0.440   7.748   0.898  0.0499  0.6996  0.5770
   14MOL   C148 4854   0.419   7.662   0.775 -0.5266  0.1145  0.7531
   14MOL   O149 4855   0.381   7.542   0.778 -0.1771  0.0699 -0.2798
   14MOL   O150 4856   0.440   7.734   0.663 -0.2022 -0.0667  0.1919
   14MOL   C151 4857   0.427   7.671   0.535 -0.6978  0.0968 -0.4051
   14MOL   C152 4858   0.282   7.693   0.482  0.4195 -0.5976 -0.6987
   14MOL   C153 4859   0.272   7.642   0.341  0.2199  0.3172  0.1024
   14MOL   H154 4860   0.332   7.642   1.053  0.1284 -0.5886 -0.0417
   14MOL   H155 4861   0.488   7.565   1.007  0.3973 -0.1284 -0.7364
   14MOL   H156 4862   0.548   7.766   0.896  0.3449 -1.0970 -0.3662
   14MOL   H157 4863   0.496   7.726   0.470 -0.7882 -0.1509 -0.7128
   14MOL   H158 4864   0.452   7.565   0.536  3.3030  0.9673 -0.1322
   14MOL   H159 4865   0.209   7.632   0.534  0.9789 -1.0789 -0.4700
   14MOL   H160 4866   0.246   7.796   0.489 -1.7579 -1.2825 -1.4326
   14MOL   H161 4867   0.173   7.615   0.305  0.2006 -1.0223  1.1158
   14MOL   H162 4868   0.323   7.546   0.346 -0.1221  0.1538  0.4716
   14MOL   H163 4869   0.326   7.694   0.262 -0.6195  0.4866 -0.3545
   14MOL   C164 4870   0.365   0.008   0.909  0.5778  0.3124 -0.4047
   14MOL   C165 4871   0.209   7.875   0.906  0.4079  0.6434 -0.2769
   14MOL   C166 4872   0.144   0.082   1.015  0.4821 -0.4353  0.7314
   14MOL   O167 4873   0.101   0.196   0.999  0.3981  0.0081  0.0080
   14MOL   O168 4874   0.137   0.019   1.134 -1.2761  0.0826 -0.4285
   14MOL   C169 4875   0.064   0.071   1.247 -0.5729 -0.2284  0.2648
   14MOL   C170 4876   7.803   0.005   1.232  0.7417 -0.3391  0.4691
   14MOL   C171 4877   7.737   0.012   1.368 -0.5545 -0.0054  0.1474
   14MOL   H172 4878   0.391   0.056   0.814 -1.8396  2.7152  0.0860
   14MOL   H173 4879   0.405   0.072   0.987  3.9219 -2.9185  0.6840
   14MOL   H174 4880   0.192   7.772   0.939 -3.0095  1.5298  0.9411
   14MOL   H175 4881   0.114   0.054   1.342 -0.0222  0.6750  0.1427
   14MOL   H176 4882   0.063   0.179   1.234 -0.0355 -0.2181  0.2857
   14MOL   H177 4883   7.750   0.047   1.147 -2.1078  1.0472  2.8628
   14MOL   H178 4884   7.809   7.777   1.215  0.1707 -0.2506 -0.3460
   14MOL   H179 4885   7.710   0.109   1.409  1.2194 -0.1297  1.6859
   14MOL   H180 4886   7.811   7.860   1.441 -0.0210 -1.2083 -0.8964
   14MOL   H181 4887   7.656   7.823   1.392 -0.2932 -0.5762 -0.5991
   14MOL   C182 4888   0.145   0.025   0.770  0.4849  0.1410  0.3181
   14MOL   C183 4889   7.880   7.850   0.738  0.6802 -0.7259 -0.0488
   14MOL   C184 4890   7.854   7.697   0.724  0.1441 -0.3399 -0.7001
   14MOL   O185 4891   7.802   7.651   0.626 -0.2209  0.7658 -0.0854
   14MOL   O186 4892   0.028   7.637   0.824  0.2468 -0.8616  0.6994
   14MOL   C187 4893   0.019   7.496   0.837  0.4463  0.7441 -0.1892
   14MOL   C188 4894   0.096   7.451   0.960  0.1624  0.1666  0.5222
   14MOL   C189 4895   0.028   7.518   1.086 -0.4213  0.5103  0.2093
   14MOL   H190 4896   0.208   7.852   0.699 -1.6300 -0.9411 -0.7708
   14MOL   H191 4897   0.144   0.132   0.746  0.5591  0.1776  0.4805
   14MOL   H192 4898   7.873   0.003   0.634  1.6375 -2.6742 -0.7500
   14MOL   H193 4899   7.795   7.465   0.838 -0.2880  3.0420 -1.7791
   14MOL   H194 4900   0.054   7.444   0.747 -0.8866  0.4388 -0.5462
   14MOL   H195 4901   0.082   7.343   0.968 -1.2063  0.4096  1.5069
   14MOL   H196 4902   0.199   7.484   0.956 -0.0166  0.6068 -0.9314
   14MOL   H197 4903   0.061   7.621   1.099 -1.4596  0.6268  2.0794
   14MOL   H198 4904   0.049   7.456   1.173  0.4399  1.1353  0.4566
   14MOL   H199 4905   7.801   7.527   1.067 -0.3263 -1.0192 -1.1396
   14MOL   C200 4906   7.769   0.038   0.816  0.0850 -0.0762 -0.2720
   14MOL   C201 4907   7.627   0.034   0.748  0.6762  0.5688  0.5853
   14MOL   C202 4908   7.525   7.812   0.807 -0.2620  0.6098  0.8339
   14MOL   O203 4909   7.486   7.828   0.918  0.1250 -0.2829 -0.7555
   14MOL   O204 4910   7.501   7.707   0.722  0.5938  0.1918  0.2146
   14MOL   C205 4911   7.392   7.623   0.757 -0.3625 -0.7104 -0.9781
   14MOL   C206 4912   7.325   7.569   0.625  0.0903  0.8493 -0.1257
   14MOL   C207 4913   7.278   7.682   0.529 -0.4553  0.3874 -0.0355
   14MOL   H208 4914   7.793   0.142   0.840 -0.8859  0.5663 -1.8911
   14MOL   H209 4915   7.761   7.879   0.917 -0.2382 -0.8801 -0.6070
   14MOL   H210 4916   7.641   0.009   0.643 -1.2076  1.5882  0.0710
   14MOL   H211 4917   7.426   7.538   0.817 -1.9643  0.5623  1.8227
   14MOL   H212 4918   7.320   7.662   0.828  1.4813 -1.6954  1.4877
   14MOL   H213 4919   7.391   7.501   0.571  0.0214  0.7326 -0.0655
   14MOL   H214 4920   7.240   7.505   0.649 -2.1526  3.4691 -0.9081
   14MOL   H215 4921   7.364   7.741   0.497  0.8443  0.8118  3.9442
   14MOL   H216 4922   7.210   7.750   0.581 -2.5910 -0.3901 -1.7408
   14MOL   H217 4923   7.215   7.652   0.446 -1.3981 -2.1018  1.5209
   14MOL   C218 4924   7.568   0.175   0.744 -0.0747  0.4150 -0.7478
   14MOL   C219 4925   7.423   0.193   0.673 -0.5671 -1.2602 -0.1063
   14MOL   C220 4926   7.369   0.333   0.717  0.7904 -0.6484  0.1043
   14MOL   O221 4927   7.284   0.338   0.806 -0.3179 -0.0242 -0.2874
   14MOL   O222 4928   7.427   0.434   0.654  0.0472 -0.6716 -0.1936
   14MOL   C223 4929   7.427   0.568   0.693  0.1313  0.2343 -0.0322
   14MOL   C224 4930   7.535   0.588   0.803  0.3373 -0.2553  0.7431
   14MOL   C225 4931   7.578   0.732   0.822 -0.1752 -0.0863  0.3842
   14MOL   H226 4932   7.644   0.240   0.701  0.1810 -0.2239 -1.2682
   14MOL   H227 4933   7.549   0.195   0.850 -0.1307  0.2436 -0.7248
   14MOL   H228 4934   7.352   0.122   0.716 -0.9369 -0.6912  0.2215
   14MOL   H229 4935   7.473   0.599   0.599  0.3677  0.0959  0.0367
   14MOL   H230 4936   7.339   0.622   0.726  1.1627  1.6656  0.4365
   14MOL   H231 4937   7.494   0.548   0.896 -0.4853  2.1397  1.4436
   14MOL   H232 4938   7.626   0.528   0.799  1.3235  1.3203 -1.2928
   14MOL   H233 4939   7.616   0.771   0.728  1.2087 -1.9747  0.1326
   14MOL   H234 4940   7.656   0.739   0.898  0.4887  0.7239 -0.3623
   14MOL   H235 4941   7.499   0.801   0.849  0.0114 -0.4287  1.8673
   14MOL   C236 4942   7.434   0.162   0.525  0.0215 -0.0316  0.1551
   14MOL   C237 4943   7.552   0.240   0.449 -0.0122 -0.3316 -0.3289
   14MOL   C238 4944   7.659   0.137   0.410 -0.7941  0.6889  0.4238
   14MOL   O239 4945   7.780   0.141   0.444 -0.1772 -0.5544  0.4101
   14MOL   O240 4946   7.611   0.043   0.328 -0.5705 -0.2410  0.1855
   14MOL   C241 4947   7.695   7.821   0.289 -0.6298  0.4416  0.9635
   14MOL   C242 4948   7.623   7.696   0.238  0.1937 -0.1645  0.5923
   14MOL   C243 4949   7.706   7.569   0.226 -1.0376  0.0025 -0.2340
   14MOL   H244 4950   7.338   0.182   0.478  0.5150  0.3397 -0.7075
   14MOL   H245 4951   7.449   0.055   0.509  1.4693  0.5660 -2.6548
   14MOL   H246 4952   7.599   0.310   0.519  1.6399 -0.3470 -1.4003
   14MOL   H247 4953   7.770   7.856   0.218  0.8071  0.3642  2.3972
   14MOL   H248 4954   7.757   7.789   0.373 -0.1229 -1.4202 -0.0798
   14MOL   H249 4955   7.545   7.685   0.313  0.0913 -0.4917  0.4373
   14MOL   H250 4956   7.575   7.712   0.142  1.3892  1.2697  0.2169
   14MOL   H251 4957   7.719   7.520   0.323  1.5527 -0.6753 -0.8721
   14MOL   H252 4958   7.801   7.588   0.177  0.1682 -3.4210  0.6322
   14MOL   H253 4959   7.651   7.498   0.165  1.0445 -1.6150 -0.2918
   14MOL   C254 4960   7.498   0.321   0.331  0.4582 -0.2532 -0.0274
   14MOL   C255 4961   7.561   0.440   0.259 -0.4054  0.2259  0.3132
   14MOL   C256 4962   7.708   0.425   0.212  0.1645  0.2305  0.0211
   14MOL   O257 4963   7.792   0.503   0.250  0.0115 -0.5655  0.3421
   14MOL   O258 4964   7.727   0.318   0.128 -0.6688 -0.6027  0.3855
   14MOL   C259 4965   7.863   0.305   0.076 -0.0044 -0.3399  0.1025
   14MOL   C260 4966   0.015   0.167   0.016 -0.4543 -0.1477 -1.0231
   14MOL   C261 4967   7.794   0.139   7.782 -1.0493 -0.1073 -0.4526
   14MOL   H262 4968   7.406   0.364   0.370  0.1270 -1.1727  0.2214
   14MOL   H263 4969   7.455   0.257   0.255  2.2237 -3.4653  1.5505
   14MOL   H264 4970   7.554   0.518   0.335 -2.2228 -0.4602  0.8673
   14MOL   H265 4971   0.002   0.377   7.876  0.5799  0.8814  1.3323
   14MOL   H266 4972   0.067   0.314   0.145  0.0770 -0.3972  0.0108
   14MOL   H267 4973   0.115   0.171   7.854  0.5202 -0.6040  1.1874
   14MOL   H268 4974   0.012   0.086   0.088 -1.7310  1.7995  1.1834
   14MOL   H269 4975   7.776   0.233   7.729  4.5814  1.4335  0.0370
   14MOL   H270 4976   7.699   0.103   7.822  0.6916 -1.9830  2.1814
   14MOL   H271 4977   7.840   0.070   7.711 -0.8609 -0.5990  0.1414
   14MOL   C272 4978   7.484   0.490   0.138 -0.4941 -0.0599 -0.9839
   14MOL   C273 4979   7.523   0.630   0.084 -1.1249  0.0907 -0.2528
   14MOL   C274 4980   7.523   0.633   7.814 -0.3671  0.2242  0.1274
   14MOL   O275 4981   7.444   0.696   7.740 -0.1259 -0.5942  0.1650
   14MOL   O276 4982   7.633   0.562   7.771  0.2137 -0.1412 -0.0204
   14MOL   C277 4983   7.666   0.566   7.629 -0.1446  0.0152  0.3860
   14MOL   C278 4984   7.816   0.553   7.607  0.0794  0.2199  0.2195
   14MOL   C279 4985   7.851   0.561   7.451 -0.3428 -0.0278  0.8581
   14MOL   H280 4986   7.378   0.484   0.160 -0.7147  2.4005 -1.2562
   14MOL   H281 4987   7.488   0.421   0.054  0.0510  0.2448 -1.2082
   14MOL   H282 4988   7.627   0.657   0.107  0.0118 -1.4777 -3.3507
   14MOL   H283 4989   7.631   0.470   7.592 -0.8162 -0.4767  2.2679
   14MOL   H284 4990   7.625   0.652   7.575 -1.4898 -0.0097  1.3480
   14MOL   H285 4991   7.853   0.651   7.640  1.4881 -0.8309  1.8585
   14MOL   H286 4992   7.873   0.475   7.658 -0.1035  1.1008  1.7962
   14MOL   H287 4993   7.829   0.664   7.425  1.9733 -0.1223 -1.6824
   14MOL   H288 4994   7.797   0.499   7.380 -1.2058 -0.5176  1.9232
   14MOL   H289 4995   0.078   0.556   7.429 -0.5269  0.6159 -0.2273
   14MOL   C290 4996   7.422   0.740   0.145 -0.1155  0.2095  0.5238
   14MOL   C291 4997   7.437   0.793   0.291  0.2880 -0.5652 -0.4000
   14MOL   C292 4998   7.573   0.859   0.314  0.8244 -0.4486 -0.1264
   14MOL   O293 4999   7.616   0.940   0.233 -0.8722  0.2502 -0.4164
   14MOL   O294 5000   7.621   0.830   0.437 -0.1780  0.7826  0.1082
   14MOL   C295 5001   7.722   0.902   0.499 -0.4437 -0.4913 -0.2449
   14MOL   C296 5002   7.858   0.879   0.428  0.1213 -0.4439 -1.1129
   14MOL   C297 5003   0.106   0.932   0.509  0.1871 -0.3595  0.1148
   14MOL   H298 5004   7.317   0.711   0.137  0.4738 -2.5608  2.0604
   14MOL   H299 5005   7.429   0.828   0.081 -0.4292 -0.5394 -0.5575
   14MOL   H300 5006   7.435   0.703   0.354  2.3922 -2.2321 -2.6229
   14MOL   H301 5007   7.709   1.010   0.495 -0.9394 -0.5917 -1.8621
   14MOL   H302 5008   7.729   0.871   0.603  0.8237  2.4099  0.5561
   14MOL   H303 5009   7.875   0.777   0.394 -0.1710 -0.1173 -2.2341
   14MOL   H304 5010   7.850   0.947   0.344  0.1816  1.0759  0.0825
   14MOL   H305 5011   0.101   0.887   0.608  2.6500  2.9101  1.8450
   14MOL   H306 5012   0.115   1.040   0.526  0.3996 -0.4063  0.3004
   14MOL   H307 5013   0.190   0.888   0.456  0.1134  0.8594 -1.0567
   14MOL   C308 5014   7.314   0.883   0.321  0.1609 -0.3916  0.5439
   14MOL   C309 5015   7.296   0.941   0.459 -0.7837 -0.6193  0.0232
   14MOL   C310 5016   7.370   1.076   0.475  0.0554 -0.7245 -0.0864
   14MOL   O311 5017   7.442   1.108   0.569 -0.0350  0.0027  0.2234
   14MOL   O312 5018   7.348   1.159   0.371  0.0574  0.2558 -0.2353
   14MOL   C313 5019   7.399   1.288   0.377  0.3351  0.1489 -0.4972
   14MOL   C314 5020   7.334   1.372   0.263 -0.1187 -0.0688  0.1982
   14MOL   C315 5021   7.406   1.361   0.124  0.1407  0.5317 -0.4466
   14MOL   H316 5022   7.230   0.814   0.312 -1.3501  1.4924 -0.3509
   14MOL   H317 5023   7.304   0.958   0.242 -1.0842 -1.1721 -0.0549
   14MOL   H318 5024   7.323   0.861   0.527 -0.2569  0.5030  1.1427
   14MOL   H319 5025   7.371   1.332   0.473  1.5286  1.5745 -0.7811
   14MOL   H320 5026   7.506   1.294   0.362  0.4418 -0.2223  0.1069
   14MOL   H321 5027   7.227   1.356   0.254  0.0359  0.7296 -4.3343
   14MOL   H322 5028   7.339   1.478   0.287 -2.2552 -0.0103  0.5309
   14MOL   H323 5029   7.391   1.258   0.092  1.0188 -0.8323  3.3134
   14MOL   H324 5030   7.366   1.437   0.058  0.2172  1.0537  0.1035
   14MOL   H325 5031   7.514   1.371   0.119  0.7806 -3.0658  3.1919
   14MOL   C326 5032   7.148   0.972   0.490 -0.4263  0.1462 -0.3906
   14MOL   C327 5033   7.132   0.977   0.646 -0.2815 -0.0785 -0.0841
   14MOL   C328 5034   7.026   1.076   0.685  0.5279  0.1188 -0.1614
   14MOL   O329 5035   6.928   1.049   0.758 -0.5265 -0.2282  0.0001
   14MOL   O330 5036   7.053   1.199   0.632 -0.1107  0.0015  0.4338
   14MOL   C331 5037   6.993   1.314   0.691 -0.2984 -0.4114  0.2216
   14MOL   C332 5038   6.914   1.401   0.594 -0.2641  0.2559  0.1391
   14MOL   C333 5039   6.981   1.428   0.458  0.6305 -0.8687 -0.3697
   14MOL   H334 5040   7.082   0.890   0.465 -1.7016  0.6992  1.0775
   14MOL   H335 5041   7.110   1.058   0.434 -0.6736 -1.2487 -2.3777
   14MOL   H336 5042   7.227   1.005   0.691 -0.4282  1.4304 -0.6551
   14MOL   H337 5043   6.924   1.293   0.773 -1.4929  1.1234 -0.3706
   14MOL   H338 5044   7.072   1.380   0.727 -0.0999  0.6322 -2.0633
   14MOL   H339 5045   6.834   1.330   0.570  0.2358 -0.9252  1.8448
   14MOL   H340 5046   6.860   1.484   0.641 -0.2005 -0.8570  2.2419
   14MOL   H341 5047   6.995   1.341   0.393 -0.3259 -0.0876 -1.6583
   14MOL   H342 5048   6.928   1.506   0.403  0.1283 -0.0658  1.2273
   14MOL   H343 5049   7.082   1.460   0.483 -0.3711  2.7007 -0.5078
   14MOL   C344 5050   7.085   0.837   0.706 -0.5897 -0.9594  0.1769
   14MOL   C345 5051   7.115   0.814   0.858 -0.3207  0.1651  0.1484
   14MOL   C346 5052   7.102   0.668   0.901 -0.4279  0.4349  0.0282
   14MOL   O347 5053   7.022   0.586   0.854  0.3990  0.0274 -0.1728
   14MOL   O348 5054   7.192   0.641   0.996 -0.2232  0.3924  0.4105
   14MOL   C349 5055   7.204   0.511   1.054 -0.4586 -0.6171 -0.1084
   14MOL   C350 5056   7.123   0.519   1.183 -0.5425 -0.1112  0.2477
   14MOL   C351 5057   7.168   0.621   1.287 -0.1974 -0.6005 -0.0398
   14MOL   H352 5058   7.150   0.770   0.651  0.2494  1.2584 -1.6324
   14MOL   H353 5059   6.989   0.799   0.673 -1.1425  0.2428  0.3495
   14MOL   H354 5060   7.047   0.881   0.911 -1.3540  0.6400 -1.7256
   14MOL   H355 5061   7.157   0.428   1.001  0.8063 -0.5645 -1.3425
   14MOL   H356 5062   7.305   0.488   1.085 -0.6325 -0.5521  0.5024
   14MOL   H357 5063   7.016   0.533   1.166 -0.7467 -0.5601  1.1506
   14MOL   H358 5064   7.132   0.422   1.230  0.8504 -0.6111 -1.0086
   14MOL   H359 5065   7.187   0.723   1.252  0.0169  0.2281  2.4150
   14MOL   H360 5066   7.079   0.629   1.348  0.7025  0.5147  1.1574
   14MOL   H361 5067   7.251   0.582   1.345 -1.0430 -0.8217  1.0302
   14MOL   H362 5068   7.221   0.832   0.876  0.2566 -3.0815  0.4522
   15MOL     C1 5069   3.928   4.888   5.070  0.1178  0.4504  0.4555
   15MOL     C2 5070   3.886   5.018   5.005  0.1749 -0.9770 -0.2294
   15MOL     C3 5071   4.002   5.120   5.015 -0.3951  0.2570 -0.3011
   15MOL     O4 5072   4.110   5.089   5.064 -0.2872  0.3276 -0.0386
   15MOL     O5 5073   3.966   5.243   4.976  1.0948  0.2442 -0.1513
   15MOL     C6 5074   4.065   5.344   4.972 -0.2670  0.3940 -0.7303
   15MOL     C7 5075   4.107   5.361   4.824 -0.2283  0.7095  0.2954
   15MOL     C8 5076   4.217   5.471   4.797 -0.4506 -0.7260  0.7215
   15MOL     H9 5077   4.034   4.861   5.068 -0.1697 -0.8333  1.5970
   15MOL    H10 5078   3.907   4.886   5.177  3.6629 -0.2104  1.2186
   15MOL    H11 5079   3.809   5.056   5.072  0.3539  0.4357 -0.8010
   15MOL    H12 5080   4.017   5.437   5.002 -1.6774  0.5069 -3.2190
   15MOL    H13 5081   4.155   5.328   5.031  0.4983  0.7254 -1.7933
   15MOL    H14 5082   4.116   5.261   4.782  0.4319  0.7915  0.2397
   15MOL    H15 5083   4.020   5.397   4.768 -0.3274 -0.4792 -0.3373
   15MOL    H16 5084   4.179   5.568   4.826  0.5381 -0.3680  0.8459
   15MOL    H17 5085   4.309   5.458   4.853 -0.7375 -3.0847  0.6851
   15MOL    H18 5086   4.250   5.485   4.694 -1.1223  1.9854  0.8491
   15MOL    H19 5087   3.878   4.798   5.033 -0.1708  0.6292  0.4148
   15MOL    C20 5088   3.837   4.997   4.861 -0.6490 -0.1136 -0.1824
   15MOL    C21 5089   3.735   5.102   4.802 -0.1512  0.4938 -0.0751
   15MOL    C22 5090   3.726   5.073   4.655 -0.2756 -0.4053  0.1078
   15MOL    O23 5091   3.709   4.958   4.620 -0.1565  0.3637 -0.2315
   15MOL    O24 5092   3.740   5.182   4.575 -0.7797  0.7160 -0.0272
   15MOL    C25 5093   3.727   5.183   4.435  0.3607  0.0458  0.4249
   15MOL    C26 5094   3.863   5.142   4.373 -0.5763  0.2466  0.4032
   15MOL    C27 5095   3.976   5.239   4.388  0.0074  0.4364  0.4593
   15MOL    H28 5096   3.777   4.906   4.870 -0.3192 -0.6682 -3.0065
   15MOL    H29 5097   3.916   4.970   4.792 -0.6091  1.3733 -0.7232
   15MOL    H30 5098   3.785   5.198   4.811 -0.0440  0.6729 -2.3655
   15MOL    H31 5099   3.639   5.129   4.400  1.4959 -1.0420 -0.8302
   15MOL    H32 5100   3.723   5.289   4.410  1.1393  0.4147  1.8332
   15MOL    H33 5101   3.891   5.041   4.405 -1.7278 -0.7028 -1.5480
   15MOL    H34 5102   3.845   5.143   4.266 -0.5242  0.6054  0.3974
   15MOL    H35 5103   4.073   5.206   4.352  0.2483 -0.1697  1.6436
   15MOL    H36 5104   3.984   5.268   4.493  0.0752 -0.7366  0.7871
   15MOL    H37 5105   3.954   5.326   4.326  0.4065  0.0266 -0.2587
   15MOL    C38 5106   3.603   5.087   4.881  0.1433 -0.3387 -0.1784
   15MOL    C39 5107   3.523   5.219   4.897  0.7003  0.5906 -0.7245
   15MOL    C40 5108   3.617   5.326   4.963 -0.2734  0.0020 -0.4684
   15MOL    O41 5109   3.644   5.427   4.906 -0.5478 -0.4249 -0.1299
   15MOL    O42 5110   3.652   5.292   5.091 -0.1220  0.0739 -0.2085
   15MOL    C43 5111   3.741   5.376   5.172  0.4054 -0.4349 -0.2976
   15MOL    C44 5112   3.749   5.313   5.312 -1.1143 -0.1524 -0.1710
   15MOL    C45 5113   3.628   5.351   5.401  0.0883  0.0491 -0.0273
   15MOL    H46 5114   3.624   5.049   4.981 -0.3395  0.3055  0.1737
   15MOL    H47 5115   3.537   5.010   4.842  0.2733 -1.2948  1.4510
   15MOL    H48 5116   3.452   5.209   4.979 -0.2360  3.1289 -1.1840
   15MOL    H49 5117   3.843   5.384   5.136 -0.7363  1.5947 -3.4336
   15MOL    H50 5118   3.720   5.484   5.173 -2.7013 -0.9721  2.0060
   15MOL    H51 5119   3.760   5.205   5.314  1.4047  0.0644  3.3519
   15MOL    H52 5120   3.835   5.350   5.368  0.1226 -0.1655 -2.0162
   15MOL    H53 5121   3.638   5.302   5.497  2.3805  0.6321  0.0548
   15MOL    H54 5122   3.535   5.314   5.356 -0.9797  2.0074  0.5285
   15MOL    H55 5123   3.611   5.458   5.402  1.3575  0.2815 -1.5183
   15MOL    C56 5124   3.452   5.272   4.770 -0.0392  0.3983  0.1024
   15MOL    C57 5125   3.323   5.190   4.723 -0.0441  0.8992  0.0212
   15MOL    C58 5126   3.190   5.248   4.774  0.3001 -0.2372 -0.0551
   15MOL    O59 5127   3.119   5.180   4.849 -0.0388  0.0550 -0.1483
   15MOL    O60 5128   3.162   5.375   4.730  1.0156  0.2998  0.4347
   15MOL    C61 5129   3.033   5.432   4.747 -0.5572  0.0514  0.0948
   15MOL    C62 5130   3.044   5.574   4.801  0.0877  0.6063 -0.3658
   15MOL    C63 5131   2.912   5.652   4.786  0.1584  0.1945 -0.7832
   15MOL    H64 5132   3.517   5.280   4.683  1.4444  2.0037  1.3119
   15MOL    H65 5133   3.425   5.377   4.785 -0.6193  0.2106  0.3884
   15MOL    H66 5134   3.320   5.097   4.780 -3.2559  0.0018 -1.5419
   15MOL    H67 5135   2.981   5.431   4.651 -1.1722  1.1091  0.3996
   15MOL    H68 5136   2.973   5.368   4.812 -2.3712  1.8604  0.2692
   15MOL    H69 5137   3.067   5.579   4.907 -1.7647  1.1722  0.0366
   15MOL    H70 5138   3.130   5.621   4.754 -0.3752  1.8211 -0.0311
   15MOL    H71 5139   2.830   5.611   4.846 -0.4417 -1.1285 -2.4706
   15MOL    H72 5140   2.885   5.673   4.683  1.9219  0.4571 -1.2033
   15MOL    H73 5141   2.936   5.754   4.817 -1.7392  0.1611  0.9628
   15MOL    C74 5142   3.318   5.164   4.573  0.0864  0.1423  0.6319
   15MOL    C75 5143   3.245   5.033   4.531 -0.2594  0.6614 -0.5776
   15MOL    C76 5144   3.134   5.058   4.420  0.4833  0.2619 -0.4727
   15MOL    O77 5145   3.152   5.023   4.304  0.5675 -0.8717 -0.2287
   15MOL    O78 5146   3.027   5.124   4.480  0.1224  0.4468  0.9300
   15MOL    C79 5147   2.924   5.172   4.398  0.0922  0.2050 -0.8410
   15MOL    C80 5148   2.784   5.151   4.448  1.5308  0.2766 -0.8146
   15MOL    C81 5149   2.735   5.246   4.563 -0.3696  0.1821  0.0691
   15MOL    H82 5150   3.418   5.157   4.531 -0.0128  0.2980  0.3693
   15MOL    H83 5151   3.267   5.246   4.523  2.6321  0.9030 -0.8089
   15MOL    H84 5152   3.187   5.025   4.623  1.7491 -0.4102  0.6466
   15MOL    H85 5153   2.942   5.279   4.398 -0.3407  0.2748 -0.3325
   15MOL    H86 5154   2.943   5.142   4.295 -0.2875 -1.6226 -0.3941
   15MOL    H87 5155   2.720   5.156   4.360  2.8444 -1.4755 -1.9137
   15MOL    H88 5156   2.772   5.048   4.481 -2.3381  0.3508 -1.7399
   15MOL    H89 5157   2.628   5.240   4.582 -0.4015 -0.3026 -0.2635
   15MOL    H90 5158   2.754   5.351   4.541 -0.8609  0.3832  0.6044
   15MOL    H91 5159   2.788   5.216   4.654  1.8256  2.0190 -0.5480
   15MOL    C92 5160   3.336   4.904   4.517  0.0120 -0.2253  0.1409
   15MOL    C93 5161   3.273   4.763   4.539  0.4562  0.4957 -0.6818
   15MOL    C94 5162   3.201   4.730   4.668 -0.4455 -0.1499 -0.1632
   15MOL    O95 5163   3.262   4.665   4.752  0.1223 -0.2020  0.1033
   15MOL    O96 5164   3.077   4.781   4.676 -0.2798 -0.3365  0.2100
   15MOL    C97 5165   3.017   4.762   4.805  0.2430  0.3564  0.3865
   15MOL    C98 5166   2.896   4.862   4.815 -0.3177  0.6355 -0.6490
   15MOL    C99 5167   2.787   4.837   4.709  0.6572 -0.1490  1.2335
   15MOL   H100 5168   3.412   4.909   4.595  1.8102 -0.3777 -1.5650
   15MOL   H101 5169   3.384   4.910   4.420  3.4851 -1.1795  1.7317
   15MOL   H102 5170   3.353   4.689   4.539 -1.9713 -2.2507 -1.1970
   15MOL   H103 5171   2.971   4.663   4.798 -0.4082  0.6000  1.1855
   15MOL   H104 5172   3.094   4.768   4.881 -0.4116  1.6361  0.9654
   15MOL   H105 5173   2.855   4.862   4.916 -0.4507  0.0323 -0.7015
   15MOL   H106 5174   2.922   4.967   4.806 -1.0878  0.8001 -1.0217
   15MOL   H107 5175   2.824   4.840   4.606 -0.5599 -0.0919  0.7877
   15MOL   H108 5176   2.702   4.903   4.724  1.1450  0.9756 -0.7265
   15MOL   H109 5177   2.743   4.740   4.731 -2.0438  0.9132  0.5904
   15MOL   C110 5178   3.192   4.728   4.417  0.3402 -0.1526  0.4860
   15MOL   C111 5179   3.137   4.586   4.412 -0.2966 -0.4293 -0.6204
   15MOL   C112 5180   2.983   4.578   4.430  0.2365 -0.0534  0.1466
   15MOL   O113 5181   2.933   4.513   4.523  0.6015  0.4219  0.4626
   15MOL   O114 5182   2.913   4.658   4.351  0.1920 -0.5084 -0.4203
   15MOL   C115 5183   2.774   4.669   4.360 -0.0535  0.5149 -1.0459
   15MOL   C116 5184   2.725   4.729   4.229 -0.0998 -0.6899 -0.2684
   15MOL   C117 5185   2.785   4.867   4.206 -0.0324  0.4344 -0.4632
   15MOL   H118 5186   3.241   4.757   4.324  1.6058 -1.8907  0.5772
   15MOL   H119 5187   3.109   4.799   4.422  0.2062 -0.2154 -0.8732
   15MOL   H120 5188   3.172   4.531   4.499  3.3702  1.9982 -0.4248
   15MOL   H121 5189   2.744   4.565   4.371  0.3513  0.3971 -1.0413
   15MOL   H122 5190   2.741   4.734   4.441  1.2059 -0.1118 -0.0157
   15MOL   H123 5191   2.775   4.661   4.161 -0.4102  2.3795 -3.6931
   15MOL   H124 5192   2.616   4.732   4.216 -0.1494 -0.5220  0.1454
   15MOL   H125 5193   2.894   4.864   4.217  0.0524 -1.5635 -1.5427
   15MOL   H126 5194   2.743   4.933   4.281  1.9236  1.4082 -0.1895
   15MOL   H127 5195   2.753   4.903   4.108 -1.2154 -1.7746 -0.9219
   15MOL   C128 5196   3.196   4.508   4.289  0.3680  0.4413 -0.3593
   15MOL   C129 5197   3.355   4.494   4.301  0.4560 -0.2711  0.1176
   15MOL   C130 5198   3.407   4.432   4.429 -0.1512 -0.7146  1.1217
   15MOL   O131 5199   3.501   4.493   4.485 -0.1378  0.3378 -0.4297
   15MOL   O132 5200   3.350   4.315   4.465  0.1360 -0.1353 -0.0401
   15MOL   C133 5201   3.386   4.267   4.589 -0.3593 -0.0438  0.7509
   15MOL   C134 5202   3.296   4.328   4.693  0.0310 -0.2793  0.3289
   15MOL   C135 5203   3.143   4.299   4.666  0.7397 -0.2793  0.6402
   15MOL   H136 5204   3.167   4.563   4.200 -0.9915  1.4563  0.6740
   15MOL   H137 5205   3.154   4.409   4.270 -0.6948  0.7632  0.2282
   15MOL   H138 5206   3.404   4.591   4.294 -1.5149  0.8719  1.8111
   15MOL   H139 5207   3.368   4.160   4.594 -2.6661  0.2854 -0.2480
   15MOL   H140 5208   3.493   4.282   4.604 -0.3434 -0.9192  1.6176
   15MOL   H141 5209   3.335   4.291   4.788  0.5888 -1.2945 -0.2910
   15MOL   H142 5210   3.309   4.436   4.686  1.3513 -0.5053 -0.9210
   15MOL   H143 5211   3.082   4.344   4.745 -3.8599  0.5965 -3.1928
   15MOL   H144 5212   3.139   4.191   4.683  2.3606 -0.0512  2.6260
   15MOL   H145 5213   3.099   4.320   4.569 -0.5389 -3.1609  0.5557
   15MOL   C146 5214   3.418   4.417   4.179  0.0165 -0.3791  0.0857
   15MOL   C147 5215   3.381   4.461   4.036 -0.2686  0.4142  0.0794
   15MOL   C148 5216   3.394   4.610   4.010  0.5693 -0.6814  0.5130
   15MOL   O149 5217   3.498   4.667   4.043 -0.2946 -0.3740  0.4233
   15MOL   O150 5218   3.281   4.658   3.950  0.1853 -0.1418  0.4892
   15MOL   C151 5219   3.259   4.793   3.907 -0.4127  0.1876 -0.4199
   15MOL   C152 5220   3.141   4.849   3.995 -0.4318 -0.0846  0.1340
   15MOL   C153 5221   3.071   4.968   3.931 -0.4114  0.1617  0.0053
   15MOL   H154 5222   3.394   4.311   4.185  0.7835 -0.6538 -1.4249
   15MOL   H155 5223   3.526   4.428   4.189  0.5194  0.0313 -4.4757
   15MOL   H156 5224   3.276   4.433   4.027  0.3450 -1.2595 -2.4328
   15MOL   H157 5225   3.347   4.857   3.920 -0.5464  0.3240 -0.1722
   15MOL   H158 5226   3.231   4.776   3.804  0.2528  0.4163 -0.6432
   15MOL   H159 5227   3.074   4.773   4.032 -1.0203 -0.3091 -1.3440
   15MOL   H160 5228   3.186   4.876   4.090 -0.6408 -1.6563  0.6912
   15MOL   H161 5229   3.036   5.025   4.018 -0.5487 -1.4799  1.0516
   15MOL   H162 5230   2.985   4.936   3.872  0.1577 -0.0592 -0.7145
   15MOL   H163 5231   3.143   5.033   3.882 -1.7390  0.5636 -1.4338
   15MOL   C164 5232   3.453   4.394   3.926  0.1035 -0.1532 -0.2924
   15MOL   C165 5233   3.454   4.237   3.922 -0.1473  0.2210 -0.4326
   15MOL   C166 5234   3.315   4.186   3.896  0.8581  0.1240 -0.6732
   15MOL   O167 5235   3.226   4.259   3.856 -0.3417  0.4387 -0.4455
   15MOL   O168 5236   3.294   4.056   3.932 -0.0949  0.7595  0.1526
   15MOL   C169 5237   3.162   3.995   3.897 -0.6322  0.1056 -0.0395
   15MOL   C170 5238   3.156   3.858   3.949 -0.0280  0.4360  0.3129
   15MOL   C171 5239   3.149   3.855   4.099 -1.1076 -0.1227 -0.6691
   15MOL   H172 5240   3.558   4.424   3.926 -0.0964  0.5358 -0.5123
   15MOL   H173 5241   3.402   4.431   3.837  1.5191 -2.6678 -2.2323
   15MOL   H174 5242   3.478   4.182   4.013  1.9705  1.1387 -0.4012
   15MOL   H175 5243   3.080   4.051   3.941  0.1643  1.2441  0.0335
   15MOL   H176 5244   3.160   3.996   3.788  2.0579  1.7213 -0.1368
   15MOL   H177 5245   3.062   3.814   3.913  0.2881  0.4607 -0.5534
   15MOL   H178 5246   3.243   3.802   3.917  0.8325  1.7966  0.2439
   15MOL   H179 5247   3.253   3.868   4.132 -1.5804  0.3607  0.6949
   15MOL   H180 5248   3.114   3.755   4.123 -0.2249 -0.2542  0.1091
   15MOL   H181 5249   3.089   3.940   4.133 -2.9147 -1.4372 -0.5308
   15MOL   C182 5250   3.559   4.184   3.817  0.6280  0.1342 -0.1133
   15MOL   C183 5251   3.534   4.206   3.663 -0.8784 -0.5510  0.2039
   15MOL   C184 5252   3.570   4.348   3.610  0.6138  0.7764  0.6827
   15MOL   O185 5253   3.492   4.403   3.533  0.6366 -0.4702 -0.3560
   15MOL   O186 5254   3.698   4.382   3.641 -0.2638  0.4600  0.2430
   15MOL   C187 5255   3.747   4.498   3.575  0.2873 -0.0819  0.6760
   15MOL   C188 5256   3.708   4.621   3.654  0.4272 -0.4223  0.2030
   15MOL   C189 5257   3.769   4.626   3.789  0.4398 -0.1330 -0.4126
   15MOL   H190 5258   3.566   4.075   3.827  1.9615  0.2841  0.7588
   15MOL   H191 5259   3.661   4.210   3.847  0.5121  1.8206 -1.1186
   15MOL   H192 5260   3.427   4.194   3.644 -1.3942  3.0880  0.5271
   15MOL   H193 5261   3.854   4.477   3.570  0.2750 -0.0438  0.2463
   15MOL   H194 5262   3.711   4.497   3.472  2.2752 -1.9835 -0.0472
   15MOL   H195 5263   3.736   4.714   3.605  1.6722 -0.4924  0.7446
   15MOL   H196 5264   3.599   4.621   3.659  0.5150  1.9610  4.1431
   15MOL   H197 5265   3.857   4.689   3.785  0.4282 -0.2139 -2.3172
   15MOL   H198 5266   3.788   4.528   3.833 -0.9794 -2.1158 -3.9582
   15MOL   H199 5267   3.704   4.684   3.855 -0.7021 -2.3734  0.4899
   15MOL   C200 5268   3.626   4.102   3.587  0.3116 -0.2487 -0.0561
   15MOL   C201 5269   3.528   3.988   3.536 -0.3703  0.3708  0.0148
   15MOL   C202 5270   3.430   4.026   3.431  0.3861  0.1294  0.4253
   15MOL   O203 5271   3.458   4.014   3.309 -0.0205  0.8026  0.0016
   15MOL   O204 5272   3.306   4.053   3.470  0.0689  0.0140 -0.0751
   15MOL   C205 5273   3.195   4.073   3.383  0.5411 -0.1663 -0.3424
   15MOL   C206 5274   3.182   4.223   3.354  0.8461 -0.4689  0.2415
   15MOL   C207 5275   3.057   4.261   3.287 -0.5124  0.3682 -0.5624
   15MOL   H208 5276   3.712   4.065   3.642  0.3159  1.7776  1.3285
   15MOL   H209 5277   3.684   4.150   3.508 -3.0057  2.1814 -1.1372
   15MOL   H210 5278   3.468   3.956   3.621  0.5749 -0.2650  0.4402
   15MOL   H211 5279   3.212   4.017   3.291 -2.3181  0.2730 -1.1855
   15MOL   H212 5280   3.105   4.025   3.420  0.5474 -0.6492 -0.9464
   15MOL   H213 5281   3.185   4.274   3.451  2.2900  1.6925 -0.9021
   15MOL   H214 5282   3.273   4.260   3.309  0.4031 -1.6947 -1.7238
   15MOL   H215 5283   3.024   4.197   3.206 -2.2107  0.7124 -0.1668
   15MOL   H216 5284   3.072   4.360   3.243  0.5411  1.2781  1.7354
   15MOL   H217 5285   2.973   4.265   3.357 -0.6474  1.0347 -0.7617
   15MOL   C218 5286   3.608   3.861   3.500  0.5875 -0.5430 -0.4086
   15MOL   C219 5287   3.694   3.797   3.615 -0.3581  0.2597 -0.1093
   15MOL   C220 5288   3.598   3.750   3.726  0.2125 -0.0843 -0.3073
   15MOL   O221 5289   3.496   3.685   3.691 -0.5469  0.0664 -0.1108
   15MOL   O222 5290   3.632   3.796   3.850 -0.6292 -0.1492  0.8435
   15MOL   C223 5291   3.557   3.767   3.956 -0.0238  0.9392 -0.2822
   15MOL   C224 5292   3.645   3.755   4.080  0.2319  0.1409  0.4272
   15MOL   C225 5293   3.737   3.879   4.102  0.8520  0.6773 -0.0160
   15MOL   H226 5294   3.671   3.894   3.417  0.3091  0.4817 -0.2098
   15MOL   H227 5295   3.546   3.784   3.455  0.6194 -0.6938 -0.1938
   15MOL   H228 5296   3.752   3.875   3.664  0.6262 -0.9647  0.6994
   15MOL   H229 5297   3.501   3.859   3.973  0.0328  0.9088  0.0781
   15MOL   H230 5298   3.490   3.686   3.925  0.3263  0.2056  0.8581
   15MOL   H231 5299   3.583   3.742   4.169 -1.6757 -0.4814 -0.9614
   15MOL   H232 5300   3.707   3.667   4.060  1.4167  1.2653 -1.0222
   15MOL   H233 5301   3.690   3.977   4.092 -1.6634 -0.3087  1.4078
   15MOL   H234 5302   3.821   3.865   4.035 -0.0019 -0.7376 -0.8239
   15MOL   H235 5303   3.770   3.871   4.205  0.1629  3.0395  0.4101
   15MOL   C236 5304   3.797   3.691   3.569  0.2494  0.3483  0.1094
   15MOL   C237 5305   3.929   3.675   3.648 -0.0612  0.0456  0.4505
   15MOL   C238 5306   4.025   3.798   3.644  0.0455 -0.2233 -0.2787
   15MOL   O239 5307   4.112   3.805   3.552  0.0829 -0.0710  0.0731
   15MOL   O240 5308   4.006   3.884   3.742  0.0753 -0.1335 -0.3599
   15MOL   C241 5309   4.074   4.007   3.751 -0.4181  0.1615  0.2882
   15MOL   C242 5310   4.188   3.992   3.857 -0.0999 -0.6553 -0.3968
   15MOL   C243 5311   4.316   3.915   3.823 -0.3308  0.1557 -0.0389
   15MOL   H244 5312   3.827   3.722   3.469  1.3837  0.2792  0.4156
   15MOL   H245 5313   3.763   3.589   3.554 -0.0912  0.3914  0.5802
   15MOL   H246 5314   3.976   3.608   3.576 -2.1472  2.1091 -3.0074
   15MOL   H247 5315   4.097   4.054   3.655  0.9808  1.2510  1.1370
   15MOL   H248 5316   4.017   4.092   3.790 -0.6524 -0.4582  1.3103
   15MOL   H249 5317   4.216   4.095   3.883  2.2016 -0.9090 -1.7116
   15MOL   H250 5318   4.159   3.941   3.949  0.0404 -0.2730 -0.1360
   15MOL   H251 5319   4.300   3.818   3.777  0.7118 -0.1577  0.2504
   15MOL   H252 5320   4.375   3.893   3.912 -0.1167  1.8817  0.2555
   15MOL   H253 5321   4.364   3.982   3.752 -1.2763  0.2069 -0.6347
   15MOL   C254 5322   3.927   3.630   3.793 -0.6810 -0.3448 -0.5965
   15MOL   C255 5323   4.059   3.577   3.850  0.2565  0.4530  0.6224
   15MOL   C256 5324   4.055   3.573   4.004  0.4598 -0.2956  0.3604
   15MOL   O257 5325   4.125   3.655   4.067  0.0217  0.8685  0.2452
   15MOL   O258 5326   3.979   3.474   4.049 -0.4641 -0.0459  0.0189
   15MOL   C259 5327   4.010   3.416   4.172 -0.6195  0.5133  0.2507
   15MOL   C260 5328   3.965   3.275   4.187 -0.2493 -0.5348 -0.3108
   15MOL   C261 5329   4.030   3.183   4.083  0.1269  0.1280  0.3518
   15MOL   H262 5330   3.858   3.547   3.809 -1.3346  0.6249  1.8124
   15MOL   H263 5331   3.882   3.710   3.851  2.0935  0.5664  0.3852
   15MOL   H264 5332   4.134   3.653   3.825  1.6765 -0.4168  2.1734
   15MOL   H265 5333   4.118   3.416   4.188 -0.7812  2.0453  1.4496
   15MOL   H266 5334   3.966   3.478   4.249  1.5042  1.4091  0.7793
   15MOL   H267 5335   3.983   3.246   4.291 -2.1235 -1.2109 -0.1474
   15MOL   H268 5336   3.857   3.273   4.171 -0.1576 -0.5601 -0.9428
   15MOL   H269 5337   3.977   3.089   4.086 -1.1752  0.8736  1.2578
   15MOL   H270 5338   4.137   3.178   4.104  0.0605 -0.4394  0.5480
   15MOL   H271 5339   4.032   3.212   3.978  3.6981  0.5558  0.4608
   15MOL   C272 5340   4.106   3.438   3.788  0.5651 -0.2532  0.6362
   15MOL   C273 5341   4.236   3.369   3.849  0.1366  0.3890  0.8552
   15MOL   C274 5342   4.259   3.240   3.769 -0.6921  0.0957 -0.1233
   15MOL   O275 5343   4.262   3.131   3.831  0.1304 -0.0710 -0.5166
   15MOL   O276 5344   4.284   3.258   3.636 -0.0899  0.0071 -0.3214
   15MOL   C277 5345   4.290   3.153   3.543  0.2918 -0.0128 -0.0825
   15MOL   C278 5346   4.174   3.150   3.439  0.1368  0.4866 -0.1941
   15MOL   C279 5347   4.027   3.131   3.496  0.3788  0.1188  0.1595
   15MOL   H280 5348   4.130   3.463   3.684  1.0933  0.3288  0.8976
   15MOL   H281 5349   4.031   3.364   3.760  0.8085 -0.0533 -0.6072
   15MOL   H282 5350   4.198   3.349   3.949  1.8365  0.6358  1.5758
   15MOL   H283 5351   4.391   3.155   3.502  0.1947  0.1362 -0.3113
   15MOL   H284 5352   4.278   3.054   3.586 -1.5956 -0.5051 -1.7313
   15MOL   H285 5353   4.175   3.245   3.386  3.4633  0.2625 -0.6164
   15MOL   H286 5354   4.190   3.074   3.363 -1.4161  0.6045 -0.6615
   15MOL   H287 5355   3.953   3.178   3.432 -0.0520 -1.5155 -0.5821
   15MOL   H288 5356   4.023   3.188   3.588  0.2417  2.2291 -1.1251
   15MOL   H289 5357   3.998   3.026   3.500  1.4822 -0.1646  1.0035
   15MOL   C290 5358   4.352   3.460   3.851  0.5588 -0.2147  0.0601
   15MOL   C291 5359   4.477   3.395   3.918 -0.3181 -0.0813  0.2878
   15MOL   C292 5360   4.574   3.342   3.817  0.1425 -0.1664  0.3167
   15MOL   O293 5361   4.585   3.217   3.794 -0.2232 -0.8524  0.4829
   15MOL   O294 5362   4.641   3.435   3.751  0.4033  0.4670 -0.2264
   15MOL   C295 5363   4.721   3.385   3.640  0.4986 -0.2704  0.0171
   15MOL   C296 5364   4.647   3.413   3.505  0.0926  0.2272  0.5728
   15MOL   C297 5365   4.640   3.565   3.469  0.0102 -0.0356  0.0109
   15MOL   H298 5366   4.342   3.557   3.901 -0.2057  0.1734 -0.8370
   15MOL   H299 5367   4.368   3.488   3.747 -2.6890 -1.3595 -0.8061
   15MOL   H300 5368   4.451   3.301   3.966  1.3356 -0.5804  0.2440
   15MOL   H301 5369   4.808   3.450   3.646 -0.9540  1.8282 -0.9185
   15MOL   H302 5370   4.747   3.279   3.646 -0.8461 -0.5701  0.8519
   15MOL   H303 5371   4.705   3.360   3.430 -1.0644  0.7806 -0.7513
   15MOL   H304 5372   4.543   3.380   3.513  0.5008 -1.2407 -0.1383
   15MOL   H305 5373   4.599   3.583   3.370  0.1513  0.7715  0.1013
   15MOL   H306 5374   4.726   3.625   3.497  0.7642 -0.7135 -0.8502
   15MOL   H307 5375   4.567   3.608   3.539  0.1755  1.6644 -0.8459
   15MOL   C308 5376   4.543   3.477   4.025  0.6114  0.3955  0.0251
   15MOL   C309 5377   4.466   3.508   4.156 -0.1936 -0.1354  0.2698
   15MOL   C310 5378   4.485   3.395   4.255  0.3210  0.7241 -0.1897
   15MOL   O311 5379   4.553   3.406   4.358  0.0511 -0.3848 -0.2589
   15MOL   O312 5380   4.439   3.280   4.208 -0.2731  0.3103  0.3856
   15MOL   C313 5381   4.486   3.155   4.253 -0.4175 -0.1251  0.3226
   15MOL   C314 5382   4.391   3.037   4.235 -0.0099  0.0776  0.3492
   15MOL   C315 5383   4.448   2.914   4.310 -0.2975 -0.7136  0.2379
   15MOL   H316 5384   4.568   3.572   3.978  1.1587 -0.5021 -1.5433
   15MOL   H317 5385   4.634   3.427   4.058 -0.1129 -1.3508 -0.5334
   15MOL   H318 5386   4.361   3.511   4.128 -0.1776  0.2521  0.2421
   15MOL   H319 5387   4.582   3.147   4.203 -1.0285  2.1121 -1.2714
   15MOL   H320 5388   4.513   3.167   4.358 -0.7658 -2.6131  0.7197
   15MOL   H321 5389   4.289   3.058   4.268 -0.5097 -1.7593  0.0489
   15MOL   H322 5390   4.373   3.011   4.131  0.0781  0.0276  0.3463
   15MOL   H323 5391   4.451   2.933   4.417 -1.3775  1.1788 -0.0429
   15MOL   H324 5392   4.384   2.828   4.294  0.7154 -1.3561 -0.3915
   15MOL   H325 5393   4.552   2.886   4.291 -0.8784 -0.7636 -3.1779
   15MOL   C326 5394   4.489   3.657   4.219  0.1719 -0.2904 -0.5283
   15MOL   C327 5395   4.361   3.716   4.292  0.1511  0.0247 -0.2600
   15MOL   C328 5396   4.361   3.691   4.441  0.5977  0.9280 -0.0118
   15MOL   O329 5397   4.292   3.598   4.492  0.0594 -0.5720 -0.4138
   15MOL   O330 5398   4.445   3.769   4.509 -0.0094 -0.0686 -0.0870
   15MOL   C331 5399   4.452   3.773   4.651  0.6664 -0.1817 -0.3889
   15MOL   C332 5400   4.439   3.914   4.711  0.3394 -0.0456  0.0201
   15MOL   C333 5401   4.475   3.914   4.862 -0.5016  0.0136 -0.2701
   15MOL   H334 5402   4.532   3.729   4.149 -1.1560 -0.7702 -1.8607
   15MOL   H335 5403   4.571   3.650   4.290  0.2962 -1.3042 -0.7640
   15MOL   H336 5404   4.272   3.666   4.253 -0.5120  0.2022  1.0277
   15MOL   H337 5405   4.369   3.720   4.698  0.1880  1.0388  0.1822
   15MOL   H338 5406   4.539   3.724   4.695 -0.5708  0.0751  2.4543
   15MOL   H339 5407   4.513   3.976   4.661 -0.7452  0.3583 -1.1066
   15MOL   H340 5408   4.341   3.961   4.699  1.5791  3.0399  1.4458
   15MOL   H341 5409   4.433   3.828   4.915  1.7581  1.1990  3.6241
   15MOL   H342 5410   4.579   3.899   4.890  0.5270  4.0302 -1.6686
   15MOL   H343 5411   4.430   3.996   4.917 -1.1326 -1.6038  1.6918
   15MOL   C344 5412   4.353   3.863   4.250 -0.5032 -0.6080 -0.3173
   15MOL   C345 5413   4.241   3.948   4.305  0.7194  0.7331  0.4620
   15MOL   C346 5414   4.194   4.060   4.217  0.0407  0.4874 -0.8525
   15MOL   O347 5415   4.278   4.109   4.139  0.1845 -0.2972 -0.2207
   15MOL   O348 5416   4.071   4.097   4.233 -0.1642  0.5072  0.3864
   15MOL   C349 5417   4.020   4.200   4.149  0.1688 -0.2198  0.6789
   15MOL   C350 5418   3.882   4.182   4.098  0.4650  0.4295  0.1431
   15MOL   C351 5419   3.778   4.196   4.212  0.3787  0.2172  0.7540
   15MOL   H352 5420   4.357   3.853   4.142  0.2804 -0.3323 -0.3117
   15MOL   H353 5421   4.435   3.925   4.285 -1.1548 -0.0406  0.2459
   15MOL   H354 5422   4.263   3.980   4.407  1.5232 -1.9460  1.1592
   15MOL   H355 5423   4.036   4.295   4.200 -3.0966  1.0952 -0.5921
   15MOL   H356 5424   4.079   4.209   4.057 -1.1170  0.7231 -0.0675
   15MOL   H357 5425   3.858   4.263   4.029 -0.1516  0.0675 -0.0683
   15MOL   H358 5426   3.880   4.092   4.037 -1.8865  1.5428 -1.4734
   15MOL   H359 5427   3.750   4.300   4.230 -1.0510  0.1877 -1.2211
   15MOL   H360 5428   3.688   4.156   4.167  0.4203 -0.6385  1.4341
   15MOL   H361 5429   3.801   4.131   4.297 -0.1652 -1.2136 -0.1853
   15MOL   H362 5430   4.156   3.881   4.314 -0.1928  1.8972  0.6451
   16MOL     C1 5431   4.754   5.823   1.003  0.4014  0.3512  0.4205
   16MOL     C2 5432   4.732   5.888   1.136  0.6258  0.6012  0.3237
   16MOL     C3 5433   4.581   5.897   1.164 -0.6952 -0.0201  0.1665
   16MOL     O4 5434   4.500   5.863   1.079  0.1172  0.4793  0.1782
   16MOL     O5 5435   4.549   5.961   1.273  0.6977  0.7932  0.4927
   16MOL     C6 5436   4.409   5.973   1.303  0.1473  0.6593 -0.3167
   16MOL     C7 5437   4.352   6.106   1.256 -0.3874  0.0906 -0.2568
   16MOL     C8 5438   4.325   6.111   1.103  0.0648  0.2364 -0.4211
   16MOL     H9 5439   4.725   5.718   1.011 -0.6165  0.5323 -0.7318
   16MOL    H10 5440   4.701   5.874   0.923 -0.6550  1.5124  1.8381
   16MOL    H11 5441   4.764   5.992   1.131 -0.4457  0.8649 -1.6346
   16MOL    H12 5442   4.351   5.886   1.272  1.6629 -0.8104  0.8300
   16MOL    H13 5443   4.401   5.974   1.412  1.9055 -1.2477 -0.1187
   16MOL    H14 5444   4.251   6.122   1.295 -0.6932 -1.2949 -0.4345
   16MOL    H15 5445   4.415   6.190   1.282 -1.1896  1.6978 -3.2132
   16MOL    H16 5446   4.248   6.179   1.065  1.0916  0.8409 -1.4410
   16MOL    H17 5447   4.414   6.148   1.052  0.2415  0.9957  0.4339
   16MOL    H18 5448   4.292   6.015   1.064 -2.6821  1.2532 -0.7453
   16MOL    H19 5449   4.861   5.822   0.983  0.3437 -1.5162  0.1190
   16MOL    C20 5450   4.812   5.822   1.254 -0.2525 -0.1334  0.1547
   16MOL    C21 5451   4.965   5.849   1.254 -0.4916  0.0052  0.0376
   16MOL    C22 5452   4.991   6.004   1.244  0.1527 -0.0249 -0.0187
   16MOL    O23 5453   5.048   6.051   1.147 -0.0284 -0.0016  0.2177
   16MOL    O24 5454   4.959   6.076   1.350  0.3418 -0.5278 -0.2665
   16MOL    C25 5455   4.983   6.221   1.344  0.1216  0.6929 -0.3392
   16MOL    C26 5456   4.872   6.287   1.424 -0.0827  0.4493 -0.0466
   16MOL    C27 5457   4.736   6.235   1.373  0.0293 -1.0218 -0.5000
   16MOL    H28 5458   4.789   5.716   1.261 -0.1155 -0.2552 -1.1857
   16MOL    H29 5459   4.778   5.868   1.348 -4.1497 -1.0476 -0.6963
   16MOL    H30 5460   5.009   5.800   1.168 -0.8691  2.9571 -1.9064
   16MOL    H31 5461   5.078   6.232   1.395  0.5077 -3.4243 -0.0194
   16MOL    H32 5462   5.001   6.268   1.247 -1.4161  2.0807  0.0279
   16MOL    H33 5463   4.891   6.260   1.528 -0.2314  1.7161  0.3266
   16MOL    H34 5464   4.883   6.396   1.424 -1.1910  0.5973  1.9638
   16MOL    H35 5465   4.649   6.269   1.429  0.1475 -0.2535 -0.7800
   16MOL    H36 5466   4.728   6.126   1.369  0.4925 -1.0857  0.1783
   16MOL    H37 5467   4.729   6.262   1.268  0.0154 -3.6749 -1.2174
   16MOL    C38 5468   5.038   5.786   1.373 -0.2902 -0.3274  0.1201
   16MOL    C39 5469   5.063   5.638   1.357 -0.4473 -0.3341  0.6428
   16MOL    C40 5470   5.164   5.605   1.241  0.1620 -0.4999  0.4401
   16MOL    O41 5471   5.152   5.512   1.166 -0.0076  0.1182 -0.3187
   16MOL    O42 5472   5.271   5.694   1.239  0.0224  0.2953 -0.7518
   16MOL    C43 5473   5.357   5.690   1.129  0.5982  0.1980  0.6606
   16MOL    C44 5474   5.294   5.750   1.007 -0.5046 -0.1880  0.6499
   16MOL    C45 5475   5.389   5.763   0.889 -0.1514  0.1940 -0.8791
   16MOL    H46 5476   4.972   5.797   1.459  0.4585  0.0275  0.6604
   16MOL    H47 5477   5.125   5.848   1.394 -1.4042  1.4550 -0.4006
   16MOL    H48 5478   4.967   5.588   1.339  0.1074 -0.6746 -1.6031
   16MOL    H49 5479   5.444   5.750   1.154  1.7893 -1.0905 -0.3211
   16MOL    H50 5480   5.388   5.593   1.091  1.3223 -0.0030  1.7763
   16MOL    H51 5481   5.202   5.697   0.986 -0.0584 -0.8600  0.3855
   16MOL    H52 5482   5.262   5.853   1.023  1.6451  0.4273  1.2430
   16MOL    H53 5483   5.347   5.832   0.816  0.6868  0.3020 -1.2704
   16MOL    H54 5484   5.423   5.675   0.833  1.0695 -0.3253  0.6459
   16MOL    H55 5485   5.481   5.815   0.915 -2.1418  2.3817  2.1001
   16MOL    C56 5486   5.110   5.577   1.494  0.0752 -0.0593  0.5413
   16MOL    C57 5487   4.988   5.543   1.585  0.0307 -0.3253  0.0339
   16MOL    C58 5488   4.904   5.426   1.534  0.4492  0.2141 -0.2964
   16MOL    O59 5489   4.793   5.445   1.494 -0.2829 -0.2085  0.4857
   16MOL    O60 5490   4.975   5.309   1.553  0.2775 -0.5154  0.2112
   16MOL    C61 5491   4.910   5.188   1.527  0.2646 -0.7402  0.2974
   16MOL    C62 5492   4.993   5.073   1.574  0.4853  0.1149 -0.6345
   16MOL    C63 5493   5.011   5.067   1.730  0.3350  0.2287 -0.2533
   16MOL    H64 5494   5.187   5.638   1.540 -0.9983  0.6098  1.4777
   16MOL    H65 5495   5.159   5.480   1.479 -0.1442  0.0829 -1.1147
   16MOL    H66 5496   4.920   5.627   1.601 -0.0005 -0.3081 -0.1836
   16MOL    H67 5497   4.811   5.185   1.574  0.9635  0.3469  1.8640
   16MOL    H68 5498   4.888   5.181   1.420 -0.0429  3.1933  0.0298
   16MOL    H69 5499   4.941   4.983   1.540  0.6535 -0.5673  0.9003
   16MOL    H70 5500   5.079   5.069   1.508  0.3650 -1.0768 -0.7253
   16MOL    H71 5501   4.913   5.061   1.778  0.3353 -0.3398 -0.3169
   16MOL    H72 5502   5.063   5.158   1.759 -0.8701  0.6742  0.5452
   16MOL    H73 5503   5.077   4.986   1.761  0.3923  0.0993 -0.6941
   16MOL    C74 5504   5.045   5.512   1.722  0.4589  0.2188 -0.2221
   16MOL    C75 5505   4.951   5.493   1.844 -0.3199 -0.0524 -0.6622
   16MOL    C76 5506   4.999   5.374   1.934 -0.5136  0.5310  0.2642
   16MOL    O77 5507   4.933   5.272   1.934  0.7466  0.3468  0.8297
   16MOL    O78 5508   5.117   5.398   1.994 -0.3638 -0.5421  0.0216
   16MOL    C79 5509   5.157   5.294   2.086  0.4335 -0.0471  0.0176
   16MOL    C80 5510   5.078   5.326   2.225 -0.0544  0.0028  0.0569
   16MOL    C81 5511   5.108   5.458   2.299  0.9447 -0.6868  0.5781
   16MOL    H82 5512   5.126   5.582   1.744 -0.0050  0.4044  0.9440
   16MOL    H83 5513   5.101   5.418   1.718  0.1072 -0.0531  0.9837
   16MOL    H84 5514   4.847   5.473   1.818 -0.4764  1.8582 -1.5796
   16MOL    H85 5515   5.115   5.198   2.056  3.3567 -1.3049 -0.2795
   16MOL    H86 5516   5.264   5.278   2.099  0.4082 -0.5555 -0.4129
   16MOL    H87 5517   4.971   5.322   2.202 -0.2144  1.9835  0.3671
   16MOL    H88 5518   5.100   5.239   2.287 -0.2005 -1.4134 -1.8328
   16MOL    H89 5519   5.025   5.504   2.354  1.0195  1.6237 -1.1744
   16MOL    H90 5520   5.156   5.533   2.236 -0.9412 -0.6696 -0.8964
   16MOL    H91 5521   5.170   5.444   2.388 -1.8371 -2.9750  2.2495
   16MOL    C92 5522   4.951   5.631   1.919 -0.0256 -0.4703 -0.2949
   16MOL    C93 5523   4.859   5.637   2.044 -0.3401 -0.4850 -0.3851
   16MOL    C94 5524   4.898   5.749   2.123 -0.1020  0.1450 -0.2056
   16MOL    O95 5525   4.919   5.741   2.243 -0.5843 -0.4051  0.0763
   16MOL    O96 5526   4.904   5.866   2.052 -0.1447  1.0285  0.1149
   16MOL    C97 5527   4.931   5.988   2.124  0.0761  0.7243  0.1314
   16MOL    C98 5528   4.805   6.063   2.132  0.5339 -0.8465  0.0773
   16MOL    C99 5529   4.773   6.149   2.013  0.3052 -0.0190 -0.1124
   16MOL   H100 5530   4.923   5.703   1.842  0.9570  0.8475  0.5585
   16MOL   H101 5531   5.055   5.651   1.948  1.1882 -3.9803 -2.0219
   16MOL   H102 5532   4.893   5.555   2.106 -3.1521 -2.1325 -0.9202
   16MOL   H103 5533   4.979   5.977   2.221  2.2696 -4.2441 -1.3676
   16MOL   H104 5534   5.002   6.045   2.064 -1.4315  1.4795 -0.9823
   16MOL   H105 5535   4.716   6.004   2.150 -0.9006  1.2617  0.0676
   16MOL   H106 5536   4.808   6.117   2.226  2.1808 -0.8060  0.0169
   16MOL   H107 5537   4.738   6.091   1.928  2.9369 -0.0493 -1.2430
   16MOL   H108 5538   4.862   6.202   1.977 -0.1149  0.0843 -1.0078
   16MOL   H109 5539   4.697   6.223   2.038 -0.2530 -0.0049 -1.8371
   16MOL   C110 5540   4.707   5.620   2.023 -0.1891 -0.1115  0.4387
   16MOL   C111 5541   4.648   5.486   2.069  0.0972 -0.0162 -0.2069
   16MOL   C112 5542   4.651   5.455   2.220  0.1691 -0.5117 -0.6209
   16MOL   O113 5543   4.700   5.351   2.256 -0.3578 -0.6241 -0.6365
   16MOL   O114 5544   4.596   5.553   2.301 -0.1385 -0.2770 -0.6137
   16MOL   C115 5545   4.577   5.517   2.436  0.2351  0.4227 -0.2654
   16MOL   C116 5546   4.531   5.639   2.512 -0.0009  0.8707  0.2991
   16MOL   C117 5547   4.640   5.741   2.541  0.1347 -0.3076 -0.2229
   16MOL   H118 5548   4.689   5.646   1.919  0.0579 -0.5791  0.2819
   16MOL   H119 5549   4.648   5.691   2.082 -2.0194 -0.5069 -0.8742
   16MOL   H120 5550   4.711   5.411   2.022  1.6890  1.4293 -0.4275
   16MOL   H121 5551   4.499   5.441   2.442 -0.3358  0.8948 -1.4221
   16MOL   H122 5552   4.662   5.470   2.484  1.0073  0.5141 -1.5180
   16MOL   H123 5553   4.450   5.691   2.460 -1.1824 -3.0446 -1.9250
   16MOL   H124 5554   4.492   5.601   2.607  0.3254  1.1990  0.5695
   16MOL   H125 5555   4.663   5.785   2.444  2.0809  1.7363  1.1088
   16MOL   H126 5556   4.725   5.696   2.593 -0.2024 -0.6533  0.0231
   16MOL   H127 5557   4.602   5.824   2.601  0.3141 -1.7819  1.9859
   16MOL   C128 5558   4.499   5.462   2.021  0.0965  0.0105 -0.0834
   16MOL   C129 5559   4.470   5.440   1.874  0.0752 -0.1438  0.4115
   16MOL   C130 5560   4.541   5.314   1.826 -1.0141  0.4279  0.1765
   16MOL   O131 5561   4.632   5.317   1.741  0.3492 -0.2779  0.1469
   16MOL   O132 5562   4.499   5.201   1.891 -0.1422  0.1553 -0.0451
   16MOL   C133 5563   4.555   5.076   1.853 -0.0810  0.0456  0.6028
   16MOL   C134 5564   4.516   4.958   1.942 -0.6282 -0.2876  0.7488
   16MOL   C135 5565   4.363   4.937   1.962  0.0503  0.3206 -0.1513
   16MOL   H136 5566   4.441   5.546   2.060  0.6746  0.7937 -0.8961
   16MOL   H137 5567   4.465   5.375   2.076 -0.2465  1.0756  1.4360
   16MOL   H138 5568   4.513   5.521   1.813 -1.4161 -0.2048 -0.7408
   16MOL   H139 5569   4.512   5.051   1.756  0.0847 -1.2212  0.8500
   16MOL   H140 5570   4.662   5.090   1.838 -0.3910  0.7876 -1.0761
   16MOL   H141 5571   4.560   4.860   1.923  1.8964  0.9555 -0.0456
   16MOL   H142 5572   4.551   4.990   2.040 -0.7230 -0.2057  0.7567
   16MOL   H143 5573   4.312   4.892   1.877 -0.0149 -0.1375  0.1306
   16MOL   H144 5574   4.320   5.035   1.981  0.6641  0.2665  1.6084
   16MOL   H145 5575   4.355   4.880   2.054 -0.3632  2.5573  1.2396
   16MOL   C146 5576   4.314   5.428   1.865 -0.3264  0.7543  0.1887
   16MOL   C147 5577   4.256   5.418   1.713  0.3651 -0.3550 -0.4266
   16MOL   C148 5578   4.195   5.276   1.696 -0.7014 -0.2020 -0.5426
   16MOL   O149 5579   4.261   5.193   1.641  0.2176  0.5032 -0.7100
   16MOL   O150 5580   4.075   5.260   1.756 -0.0083 -0.4960  0.0162
   16MOL   C151 5581   4.016   5.129   1.767 -0.0334  0.1586 -0.5743
   16MOL   C152 5582   3.896   5.131   1.872  0.1069  0.3285  0.0454
   16MOL   C153 5583   3.800   5.017   1.867 -0.3190 -0.5639 -0.2813
   16MOL   H154 5584   4.270   5.522   1.900  0.8012  2.0519 -1.7930
   16MOL   H155 5585   4.272   5.350   1.928 -1.4223  0.7101 -0.5743
   16MOL   H156 5586   4.348   5.423   1.654  1.2022 -2.2004  0.6903
   16MOL   H157 5587   3.979   5.093   1.671  0.8011 -1.3413 -0.3535
   16MOL   H158 5588   4.090   5.054   1.795 -0.7464  0.3565  2.0118
   16MOL   H159 5589   3.943   5.136   1.970  0.2858 -1.6853  0.0764
   16MOL   H160 5590   3.856   5.232   1.865  0.1217  0.4969  2.2096
   16MOL   H161 5591   3.725   5.032   1.945 -0.6615  2.4801 -1.1229
   16MOL   H162 5592   3.852   4.922   1.872 -0.7995 -0.8789 -1.0814
   16MOL   H163 5593   3.749   5.029   1.771 -2.2758 -0.7869  0.6999
   16MOL   C164 5594   4.149   5.531   1.671 -0.5700  0.3317  0.0829
   16MOL   C165 5595   4.205   5.676   1.674 -0.1250 -0.8955  0.1202
   16MOL   C166 5596   4.313   5.685   1.566  0.5611 -0.5435  0.3247
   16MOL   O167 5597   4.296   5.671   1.444 -0.4451 -0.0581  0.4831
   16MOL   O168 5598   4.432   5.701   1.622 -0.3660  0.6550  0.5207
   16MOL   C169 5599   4.545   5.699   1.539 -0.0794 -0.5490 -0.5102
   16MOL   C170 5600   4.663   5.762   1.605 -0.2606  1.0649 -0.3614
   16MOL   C171 5601   4.657   5.910   1.613 -0.5710 -0.1041  0.0027
   16MOL   H172 5602   4.071   5.518   1.746 -0.6520  3.0496  0.5385
   16MOL   H173 5603   4.102   5.504   1.577  1.1456 -2.2615 -0.0602
   16MOL   H174 5604   4.245   5.698   1.773 -1.3531  2.4571 -0.0647
   16MOL   H175 5605   4.567   5.598   1.505  1.1965 -0.8600  1.1795
   16MOL   H176 5606   4.523   5.765   1.455  0.5508  1.4421  0.8357
   16MOL   H177 5607   4.685   5.710   1.698 -0.6844 -0.4874 -1.1059
   16MOL   H178 5608   4.749   5.734   1.545 -0.2972  1.2317 -0.4917
   16MOL   H179 5609   4.640   5.954   1.515 -0.6952 -0.2405 -0.0364
   16MOL   H180 5610   4.741   5.950   1.670 -1.2239 -0.4989  1.2764
   16MOL   H181 5611   4.565   5.941   1.663 -0.8958 -1.5974  0.3613
   16MOL   C182 5612   4.092   5.773   1.645  0.2180 -0.0439  0.9957
   16MOL   C183 5613   4.113   5.908   1.719 -0.1327  0.1401 -0.3772
   16MOL   C184 5614   4.153   6.022   1.624  0.1196  0.0537  0.0851
   16MOL   O185 5615   4.104   6.028   1.511  0.4950  0.1858  0.4834
   16MOL   O186 5616   4.221   6.115   1.682 -0.0613  0.3108  0.5220
   16MOL   C187 5617   4.309   6.208   1.626  0.4077  0.6363  0.2930
   16MOL   C188 5618   4.355   6.316   1.728  0.0261 -0.0346  1.0213
   16MOL   C189 5619   4.239   6.394   1.783  0.3304  0.4613  0.4024
   16MOL   H190 5620   3.998   5.727   1.676 -0.2939  2.1588  2.8871
   16MOL   H191 5621   4.069   5.780   1.539  2.1749 -1.9756  0.4046
   16MOL   H192 5622   4.196   5.904   1.789 -0.6463  1.4070  0.3203
   16MOL   H193 5623   4.388   6.150   1.579  0.1096 -1.7704  2.7039
   16MOL   H194 5624   4.276   6.258   1.534  1.1529  1.2624  0.3663
   16MOL   H195 5625   4.417   6.273   1.807  1.2177  2.6637  1.6266
   16MOL   H196 5626   4.417   6.378   1.663 -2.7100 -0.0574 -1.7266
   16MOL   H197 5627   4.273   6.488   1.827  1.9648 -0.3381  0.8832
   16MOL   H198 5628   4.185   6.335   1.857  2.3629 -0.8311  0.9043
   16MOL   H199 5629   4.174   6.433   1.705 -1.7669  2.6704  3.1385
   16MOL   C200 5630   3.991   5.960   1.800  0.1677 -0.3149  0.0530
   16MOL   C201 5631   3.951   5.885   1.928  0.1187  0.2518  0.3145
   16MOL   C202 5632   4.066   5.809   2.010 -0.1338 -0.3372 -0.6408
   16MOL   O203 5633   4.056   5.688   2.027  0.1331 -0.1715 -0.4912
   16MOL   O204 5634   4.172   5.887   2.037  0.0898 -0.3125  0.3165
   16MOL   C205 5635   4.291   5.829   2.090  0.6609  0.0144  0.3299
   16MOL   C206 5636   4.406   5.932   2.081  0.2814  0.4151  0.2434
   16MOL   C207 5637   4.434   5.997   1.942  0.3039 -0.1922  0.2199
   16MOL   H208 5638   3.904   5.972   1.736 -0.2947 -0.4007  0.6601
   16MOL   H209 5639   4.015   6.062   1.830 -2.2331  0.6890 -1.3363
   16MOL   H210 5640   3.878   5.809   1.900  0.6473 -0.8705  1.8844
   16MOL   H211 5641   4.269   5.787   2.188 -4.5796 -0.4789 -0.9400
   16MOL   H212 5642   4.313   5.747   2.023 -0.7978  0.4284 -0.6749
   16MOL   H213 5643   4.387   6.007   2.158  1.7856  1.7511 -0.6445
   16MOL   H214 5644   4.498   5.887   2.119 -0.2570 -0.6354  0.3058
   16MOL   H215 5645   4.477   5.915   1.883  2.2580  0.1965  1.0645
   16MOL   H216 5646   4.513   6.071   1.953  0.4011 -0.2425 -0.1276
   16MOL   H217 5647   4.346   6.037   1.891  0.8435  2.5149  1.3681
   16MOL   C218 5648   3.877   5.983   2.022 -0.1115  0.2391 -0.1319
   16MOL   C219 5649   3.753   6.049   1.961 -0.0389 -0.0889 -0.1797
   16MOL   C220 5650   3.630   5.955   1.945  0.1247  0.0486  0.8479
   16MOL   O221 5651   3.634   5.838   1.987  0.3156  0.2170  0.2390
   16MOL   O222 5652   3.537   6.014   1.880 -0.1826  0.0390 -0.2895
   16MOL   C223 5653   3.410   5.954   1.878  0.0929  0.3279 -0.2053
   16MOL   C224 5654   3.319   6.051   1.809 -0.6479  0.1297 -0.1238
   16MOL   C225 5655   3.166   6.034   1.841  0.0734 -0.1545 -0.2374
   16MOL   H226 5656   3.955   6.057   2.041  1.4114 -1.7501  1.6838
   16MOL   H227 5657   3.861   5.942   2.122 -1.1901  2.0815  0.4744
   16MOL   H228 5658   3.759   6.076   1.856  1.5406 -2.2789 -0.6726
   16MOL   H229 5659   3.417   5.868   1.811 -0.5296 -0.2883  0.5119
   16MOL   H230 5660   3.369   5.935   1.977  1.2729  4.3373  1.1633
   16MOL   H231 5661   3.342   6.153   1.841 -0.8659  0.5235 -1.1954
   16MOL   H232 5662   3.334   6.043   1.701 -0.0379 -2.2965  0.1191
   16MOL   H233 5663   3.111   6.115   1.792  1.3052  0.8142 -0.0623
   16MOL   H234 5664   3.141   6.032   1.947  2.6162 -0.3671  0.4037
   16MOL   H235 5665   3.127   5.938   1.806  1.3405 -0.7018 -0.1683
   16MOL   C236 5666   3.715   6.181   2.048  0.1091  0.3141  0.3776
   16MOL   C237 5667   3.810   6.303   2.033 -0.5932 -0.1610 -0.6987
   16MOL   C238 5668   3.803   6.373   1.894 -0.1526 -0.3374 -0.0574
   16MOL   O239 5669   3.765   6.489   1.874 -0.8324 -0.4124  0.2380
   16MOL   O240 5670   3.839   6.282   1.798 -0.0941 -0.2004  0.0288
   16MOL   C241 5671   3.861   6.320   1.666  0.0711 -0.3289  0.0933
   16MOL   C242 5672   3.772   6.235   1.576 -0.1299  0.2104  0.3408
   16MOL   C243 5673   3.637   6.303   1.540  0.3307 -0.6626 -0.4852
   16MOL   H244 5674   3.714   6.155   2.154 -0.1820 -1.1169  0.0347
   16MOL   H245 5675   3.616   6.215   2.016 -0.0680 -0.1094  0.4635
   16MOL   H246 5676   3.912   6.268   2.041 -0.8997 -1.2615 -1.4355
   16MOL   H247 5677   3.870   6.426   1.644 -0.6822 -0.4875 -0.9726
   16MOL   H248 5678   3.956   6.272   1.639 -0.4193 -0.8889 -0.6541
   16MOL   H249 5679   3.830   6.202   1.491  1.0081  1.3356  0.6631
   16MOL   H250 5680   3.764   6.140   1.630  1.8474  1.1155  2.3096
   16MOL   H251 5681   3.597   6.357   1.627 -1.6073 -0.8515 -1.2342
   16MOL   H252 5682   3.559   6.232   1.511  1.2547 -1.6894 -0.4937
   16MOL   H253 5683   3.647   6.376   1.460 -0.2424 -1.4993 -1.3209
   16MOL   C254 5684   3.791   6.409   2.150 -0.8439  0.8996 -0.2281
   16MOL   C255 5685   3.922   6.482   2.188  0.0664  0.3461  0.4063
   16MOL   C256 5686   3.894   6.633   2.211  0.4538 -0.7428  0.1921
   16MOL   O257 5687   3.778   6.668   2.246 -0.2622  0.0871 -0.5174
   16MOL   O258 5688   4.005   6.718   2.180 -0.1883  0.3386 -0.0318
   16MOL   C259 5689   3.983   6.857   2.182  0.3172  0.2559  0.2888
   16MOL   C260 5690   4.083   6.912   2.081 -0.4852 -0.0201 -0.4602
   16MOL   C261 5691   4.090   7.064   2.071 -0.4484  0.5291  0.3654
   16MOL   H262 5692   3.756   6.370   2.245  0.5402 -0.6784 -0.3479
   16MOL   H263 5693   3.706   6.469   2.116 -1.0509  0.6031 -0.2318
   16MOL   H264 5694   3.996   6.478   2.107  0.4667 -0.4971  0.8032
   16MOL   H265 5695   3.890   6.890   2.137 -0.6001 -2.4616  0.0842
   16MOL   H266 5696   3.992   6.879   2.288  1.4899  1.1517  0.0112
   16MOL   H267 5697   4.181   6.879   2.115 -0.9878 -0.6621  0.3852
   16MOL   H268 5698   4.078   6.870   1.981  3.5421  0.5506 -0.9645
   16MOL   H269 5699   4.068   7.108   2.168 -0.6857 -2.9922  1.9850
   16MOL   H270 5700   4.015   7.100   1.999  0.2323 -0.2614 -0.7522
   16MOL   H271 5701   4.187   7.103   2.041 -0.5897 -0.7696 -1.8968
   16MOL   C272 5702   4.002   6.431   2.302  0.3919 -0.9084 -0.0842
   16MOL   C273 5703   4.062   6.283   2.288  0.8883  0.3177  0.3202
   16MOL   C274 5704   4.181   6.286   2.191 -0.7024  0.5979 -0.0965
   16MOL   O275 5705   4.187   6.222   2.088 -0.3246 -0.4223  0.2025
   16MOL   O276 5706   4.288   6.365   2.236  0.1646 -0.1069  0.6344
   16MOL   C277 5707   4.398   6.387   2.148 -0.1072  0.1232 -0.4603
   16MOL   C278 5708   4.452   6.530   2.165 -0.3435 -0.0213 -0.0706
   16MOL   C279 5709   4.357   6.640   2.120  0.3760 -0.6319  0.0768
   16MOL   H280 5710   3.934   6.435   2.387 -2.2283 -0.6298 -2.1167
   16MOL   H281 5711   4.083   6.501   2.327 -0.8603  0.1752  1.0159
   16MOL   H282 5712   3.974   6.224   2.263  0.3649  1.9230 -1.7216
   16MOL   H283 5713   4.464   6.309   2.187 -0.6436 -0.6019 -0.9825
   16MOL   H284 5714   4.387   6.370   2.041 -2.0549 -0.1529 -0.2489
   16MOL   H285 5715   4.461   6.539   2.273 -2.3903  1.2866  0.0284
   16MOL   H286 5716   4.549   6.521   2.116  0.2750 -0.6243  1.2434
   16MOL   H287 5717   4.322   6.631   2.017  1.4191 -0.3076 -0.3134
   16MOL   H288 5718   4.413   6.733   2.130  3.5457 -2.1802 -2.4631
   16MOL   H289 5719   4.270   6.636   2.186  1.0315  1.8594  1.1659
   16MOL   C290 5720   4.107   6.234   2.426 -0.3815 -0.0384  0.2519
   16MOL   C291 5721   4.124   6.083   2.431 -0.2731  0.8627  0.5695
   16MOL   C292 5722   4.209   6.029   2.549 -1.1661  0.3292 -0.2218
   16MOL   O293 5723   4.305   5.951   2.531 -0.4087 -0.0208  0.2992
   16MOL   O294 5724   4.176   6.081   2.662  0.4974  0.0728 -0.3867
   16MOL   C295 5725   4.235   6.040   2.782 -0.0777  0.2073  0.8301
   16MOL   C296 5726   4.160   6.107   2.899  0.6827 -0.6573  0.6642
   16MOL   C297 5727   4.014   6.084   2.893  0.1805  0.4047  0.1159
   16MOL   H298 5728   4.030   6.268   2.495 -1.0586 -1.7846  0.3805
   16MOL   H299 5729   4.196   6.288   2.457 -0.3160 -0.1622  0.2803
   16MOL   H300 5730   4.198   6.061   2.354 -0.2728 -0.1538  0.8397
   16MOL   H301 5731   4.241   5.933   2.798  1.5301  0.2821  0.8634
   16MOL   H302 5732   4.338   6.076   2.768 -0.0600 -0.2773 -0.3355
   16MOL   H303 5733   4.194   6.070   2.996  0.4733 -2.1837  0.1604
   16MOL   H304 5734   4.179   6.214   2.906 -0.0470 -0.3881 -1.2074
   16MOL   H305 5735   3.962   6.152   2.825  1.6488  1.0998 -0.3231
   16MOL   H306 5736   3.965   6.094   2.990 -0.8025 -2.6771 -0.0170
   16MOL   H307 5737   3.991   5.981   2.865  0.0328  0.0202  1.6244
   16MOL   C308 5738   4.004   5.986   2.401 -0.7970  0.3667  0.4512
   16MOL   C309 5739   3.892   5.973   2.506  0.0038  0.5511  0.1299
   16MOL   C310 5740   3.806   6.095   2.530  0.3283 -0.4606 -0.0290
   16MOL   O311 5741   3.810   6.180   2.442  0.5998  0.0313  0.2172
   16MOL   O312 5742   3.745   6.112   2.649  0.1785 -0.1338  0.2551
   16MOL   C313 5743   3.666   6.223   2.668 -0.0542  0.0994  0.0729
   16MOL   C314 5744   3.551   6.210   2.765 -0.3592 -0.2256 -0.5567
   16MOL   C315 5745   3.432   6.129   2.717  0.3641  0.1353  0.1225
   16MOL   H316 5746   4.049   5.886   2.400 -0.5818  0.4078  2.8438
   16MOL   H317 5747   3.956   6.002   2.305  1.0836  1.0207 -0.3880
   16MOL   H318 5748   3.942   5.947   2.599 -0.8007 -1.3137  0.0534
   16MOL   H319 5749   3.731   6.308   2.691 -0.1649  0.9945 -2.7901
   16MOL   H320 5750   3.618   6.243   2.572 -0.0502 -0.8121 -0.1201
   16MOL   H321 5751   3.581   6.165   2.860  2.0736  0.7818 -0.8058
   16MOL   H322 5752   3.517   6.306   2.803 -1.5172 -1.3811  1.4128
   16MOL   H323 5753   3.470   6.028   2.704  1.3332  0.6242 -0.9333
   16MOL   H324 5754   3.352   6.132   2.791 -2.0087 -1.9860 -2.2283
   16MOL   H325 5755   3.392   6.158   2.619  0.1429  0.5422  0.3311
   16MOL   C326 5756   3.801   5.855   2.468  0.4387  0.2479 -0.3961
   16MOL   C327 5757   3.699   5.813   2.585 -0.2802 -0.3408 -0.2459
   16MOL   C328 5758   3.590   5.722   2.538  0.0637 -0.5232  0.1680
   16MOL   O329 5759   3.581   5.602   2.562 -0.0972 -0.0815  0.1338
   16MOL   O330 5760   3.514   5.785   2.448 -0.1152  0.1418  0.7156
   16MOL   C331 5761   3.405   5.740   2.370  0.0285  0.2628  0.2097
   16MOL   C332 5762   3.306   5.848   2.338  0.8213 -0.4800  0.0606
   16MOL   C333 5763   3.171   5.785   2.282 -0.5429 -0.0564  0.0099
   16MOL   H334 5764   3.860   5.765   2.450 -0.6695 -0.6945  0.6332
   16MOL   H335 5765   3.756   5.870   2.370 -1.2473 -0.1245  0.3064
   16MOL   H336 5766   3.636   5.895   2.619  0.7450  0.8072 -1.0816
   16MOL   H337 5767   3.459   5.703   2.283  1.0721  2.0641  0.0830
   16MOL   H338 5768   3.347   5.663   2.421 -3.7512  1.2631 -2.3421
   16MOL   H339 5769   3.281   5.923   2.413 -0.6570  1.2288 -2.1048
   16MOL   H340 5770   3.350   5.895   2.250  0.3647  2.1957  1.2224
   16MOL   H341 5771   3.189   5.730   2.190  0.0925  1.9942 -1.1385
   16MOL   H342 5772   3.123   5.723   2.358 -2.4361  3.3539  1.7127
   16MOL   H343 5773   3.100   5.858   2.243 -1.1378 -0.5348  0.1897
   16MOL   C344 5774   3.778   5.757   2.705 -0.0813  0.1611 -0.4661
   16MOL   C345 5775   3.689   5.709   2.824  0.2121  0.5051  0.2750
   16MOL   C346 5776   3.774   5.634   2.931  0.2371  0.5265  0.0443
   16MOL   O347 5777   3.796   5.689   3.035 -0.0977 -0.0521  0.0374
   16MOL   O348 5778   3.816   5.509   2.899 -0.3042  0.4948  0.2294
   16MOL   C349 5779   3.897   5.431   2.985 -0.6487 -0.3454  0.3420
   16MOL   C350 5780   3.811   5.347   3.078  0.2235  0.3106 -0.4423
   16MOL   C351 5781   3.729   5.248   2.994  0.4726 -0.0012  0.5796
   16MOL   H352 5782   3.849   5.829   2.746  0.0433  2.3893 -4.3077
   16MOL   H353 5783   3.844   5.677   2.673 -1.7055 -1.1740 -0.5265
   16MOL   H354 5784   3.616   5.635   2.794 -0.8025  1.3737  0.5906
   16MOL   H355 5785   3.981   5.387   2.932  0.6051  3.1412 -0.7225
   16MOL   H356 5786   3.955   5.496   3.051 -0.2806  2.3426 -2.5165
   16MOL   H357 5787   3.874   5.299   3.152 -0.8811 -0.7015 -0.1602
   16MOL   H358 5788   3.742   5.412   3.131  0.6920  0.1622  0.3599
   16MOL   H359 5789   3.647   5.199   3.047  2.5066 -2.9248  1.1769
   16MOL   H360 5790   3.677   5.309   2.920  1.2028  0.5143  0.4887
   16MOL   H361 5791   3.788   5.176   2.937  0.5935  2.3434 -2.3578
   16MOL   H362 5792   3.636   5.792   2.871 -0.2880 -0.1608  0.8945
   17MOL     C1 5793   3.713   2.592   1.962 -0.1490 -0.1927  0.3342
   17MOL     C2 5794   3.793   2.474   1.914 -0.4803  0.3073 -0.5674
   17MOL     C3 5795   3.773   2.441   1.767  0.3061 -0.2216 -1.4767
   17MOL     O4 5796   3.762   2.324   1.740 -0.1551  0.4002 -0.1252
   17MOL     O5 5797   3.781   2.544   1.683 -0.2089 -0.0723  0.2371
   17MOL     C6 5798   3.755   2.524   1.543 -0.5086 -1.2026  0.5194
   17MOL     C7 5799   3.769   2.654   1.474 -0.3657 -1.0752  0.0670
   17MOL     C8 5800   3.768   2.635   1.321 -0.5147 -0.4509  0.3653
   17MOL     H9 5801   3.754   2.680   1.913 -1.0441 -0.8843 -1.7032
   17MOL    H10 5802   3.606   2.574   1.957  0.1290 -1.9846  0.2561
   17MOL    H11 5803   3.752   2.384   1.961 -0.1652  0.2324 -0.4320
   17MOL    H12 5804   3.828   2.464   1.489  2.1921  0.5533  2.0753
   17MOL    H13 5805   3.659   2.477   1.521  0.5898 -2.6295 -1.3206
   17MOL    H14 5806   3.683   2.715   1.503  0.6054  2.1888 -3.3918
   17MOL    H15 5807   3.861   2.706   1.502  0.1996 -2.9186  1.6940
   17MOL    H16 5808   3.666   2.601   1.304 -1.1867  1.7900 -0.2115
   17MOL    H17 5809   3.799   2.716   1.255 -0.9728 -0.4647  0.1338
   17MOL    H18 5810   3.821   2.546   1.288 -2.9998 -1.6020 -0.6448
   17MOL    H19 5811   3.731   2.599   2.069 -2.5379  1.4821  0.6600
   17MOL    C20 5812   3.947   2.472   1.947  0.0566 -0.2757 -0.3106
   17MOL    C21 5813   3.993   2.481   2.091  0.0047  0.4737  0.0644
   17MOL    C22 5814   3.923   2.372   2.173  0.0427  0.2351  0.2959
   17MOL    O23 5815   3.868   2.404   2.272 -0.2518  0.4531 -0.2572
   17MOL    O24 5816   3.953   2.243   2.131  0.3912  0.7683 -0.1715
   17MOL    C25 5817   3.923   2.135   2.215  0.2857 -0.5323  0.5722
   17MOL    C26 5818   4.052   2.055   2.244  0.1510 -0.1401 -0.0024
   17MOL    C27 5819   4.036   1.937   2.331 -0.4937  0.0496 -0.2730
   17MOL    H28 5820   3.987   2.562   1.900  0.6159 -0.1323  0.4379
   17MOL    H29 5821   3.996   2.388   1.899  0.6571 -1.5479  2.4531
   17MOL    H30 5822   3.956   2.578   2.123 -2.9551 -0.4043 -0.5777
   17MOL    H31 5823   3.878   2.165   2.310  1.0644 -1.1816  1.1661
   17MOL    H32 5824   3.849   2.074   2.164  0.0175  0.8080 -0.6360
   17MOL    H33 5825   4.092   2.020   2.149 -2.7173  2.3014 -2.2104
   17MOL    H34 5826   4.124   2.122   2.291  1.2693 -0.4229 -1.2886
   17MOL    H35 5827   4.015   1.977   2.430  0.1277  0.0933 -0.1550
   17MOL    H36 5828   4.136   1.893   2.337 -1.0655 -1.3725 -0.9948
   17MOL    H37 5829   3.967   1.858   2.300  1.4324 -1.1902 -1.5154
   17MOL    C38 5830   4.149   2.473   2.091 -0.0276 -0.5781 -0.5252
   17MOL    C39 5831   4.222   2.495   2.228 -0.5048 -0.0478  0.7632
   17MOL    C40 5832   4.373   2.477   2.206  0.4410  0.4009  0.3657
   17MOL    O41 5833   4.454   2.568   2.198  0.8327  0.1399 -0.2673
   17MOL    O42 5834   4.391   2.345   2.192  0.0928 -0.0040 -0.4816
   17MOL    C43 5835   4.519   2.291   2.166  0.1276  0.1332  0.2201
   17MOL    C44 5836   4.538   2.285   2.015  0.6173  0.6548 -0.3767
   17MOL    C45 5837   4.677   2.237   1.967 -0.5976 -0.2300  0.0100
   17MOL    H46 5838   4.177   2.555   2.025  0.2556 -1.7815 -1.9319
   17MOL    H47 5839   4.189   2.387   2.039  0.9960 -1.8220  2.2008
   17MOL    H48 5840   4.182   2.421   2.298 -1.5874  0.8570  1.1275
   17MOL    H49 5841   4.595   2.356   2.210 -0.6975  1.9357 -0.9392
   17MOL    H50 5842   4.524   2.189   2.205 -2.7837 -0.5569 -1.0507
   17MOL    H51 5843   4.477   2.200   1.985 -0.3429  0.5119  1.9003
   17MOL    H52 5844   4.509   2.376   1.962  1.3524  0.0657 -1.8369
   17MOL    H53 5845   4.747   2.320   1.984 -1.9504  0.2962  3.5429
   17MOL    H54 5846   4.668   2.221   1.860  1.0994 -0.8388 -0.0598
   17MOL    H55 5847   4.722   2.155   2.023 -3.1048 -1.3650  0.4337
   17MOL    C56 5848   4.184   2.637   2.291 -0.1881  0.2971  0.2386
   17MOL    C57 5849   4.063   2.635   2.390  0.5277  0.9558  0.0802
   17MOL    C58 5850   4.082   2.531   2.500 -0.8249  0.7660 -0.3566
   17MOL    O59 5851   4.197   2.496   2.535  0.0233 -0.0719  0.2055
   17MOL    O60 5852   3.965   2.474   2.543 -0.3805 -0.5013  0.1002
   17MOL    C61 5853   3.974   2.386   2.653  0.2751 -0.1278  0.1127
   17MOL    C62 5854   3.871   2.413   2.763  0.1819 -0.1792 -0.6234
   17MOL    C63 5855   3.913   2.536   2.862  0.0354  0.5725  0.1642
   17MOL    H64 5856   4.172   2.702   2.205  1.4594 -0.0529 -0.2876
   17MOL    H65 5857   4.274   2.665   2.347  1.1385 -2.3229 -0.4827
   17MOL    H66 5858   3.972   2.604   2.338  0.7755  1.8821 -0.9359
   17MOL    H67 5859   3.949   2.294   2.599 -1.6861  0.5448 -0.1658
   17MOL    H68 5860   4.071   2.378   2.700  1.3666  1.3875 -1.8094
   17MOL    H69 5861   3.774   2.430   2.716 -0.5135  3.9864  2.0842
   17MOL    H70 5862   3.864   2.330   2.834 -0.7831  0.7723  0.4386
   17MOL    H71 5863   3.827   2.576   2.916 -2.5994 -1.6255 -2.2851
   17MOL    H72 5864   3.952   2.618   2.803 -0.5479  0.6372 -0.1326
   17MOL    H73 5865   3.991   2.506   2.932 -0.6268 -2.4004 -0.2920
   17MOL    C74 5866   4.022   2.781   2.436 -0.5107 -0.6735  0.0201
   17MOL    C75 5867   3.883   2.795   2.497 -0.5128 -0.1939 -0.3201
   17MOL    C76 5868   3.886   2.877   2.630  0.2252  0.1180  0.4007
   17MOL    O77 5869   3.834   2.834   2.740 -0.3737 -0.0696 -0.2332
   17MOL    O78 5870   3.939   2.996   2.614 -0.0217 -0.7974 -0.3745
   17MOL    C79 5871   3.925   3.086   2.721 -0.1231 -0.1613  0.2704
   17MOL    C80 5872   3.958   3.218   2.659 -0.0777  0.1505  0.3124
   17MOL    C81 5873   4.107   3.247   2.639 -0.1668  0.7440  0.0115
   17MOL    H82 5874   4.029   2.845   2.348  0.3395 -3.3130 -1.9073
   17MOL    H83 5875   4.095   2.826   2.503 -0.8312  1.0216 -0.7563
   17MOL    H84 5876   3.862   2.694   2.532 -2.2088  1.2361  2.9841
   17MOL    H85 5877   3.820   3.092   2.748  0.3058 -0.2015  1.9763
   17MOL    H86 5878   3.987   3.061   2.807 -0.5055  0.4587  0.7295
   17MOL    H87 5879   3.901   3.227   2.566 -1.4178 -1.1441  0.9991
   17MOL    H88 5880   3.907   3.293   2.719 -0.1864  0.5110 -0.2223
   17MOL    H89 5881   4.131   3.331   2.573  0.2832 -0.5069 -1.4509
   17MOL    H90 5882   4.151   3.160   2.590  0.1990  1.1202 -0.3383
   17MOL    H91 5883   4.154   3.255   2.737 -1.4245 -4.2866  1.1480
   17MOL    C92 5884   3.778   2.837   2.400  0.0345  0.2740  0.6263
   17MOL    C93 5885   3.627   2.797   2.429  1.1011 -0.0266 -0.0567
   17MOL    C94 5886   3.566   2.857   2.558  0.0138  0.0958  0.2642
   17MOL    O95 5887   3.567   2.979   2.580 -0.1107  0.0008 -0.3083
   17MOL    O96 5888   3.511   2.760   2.632  0.4260 -0.2065  0.5722
   17MOL    C97 5889   3.476   2.791   2.766 -0.2926 -0.6790  0.2868
   17MOL    C98 5890   3.481   2.672   2.856 -0.1000  1.0996  0.2089
   17MOL    C99 5891   3.363   2.572   2.832  0.0392  0.6677 -0.2191
   17MOL   H100 5892   3.798   2.802   2.299  0.7169 -1.2081  1.2675
   17MOL   H101 5893   3.778   2.945   2.388  2.5979  0.3027  0.6611
   17MOL   H102 5894   3.621   2.690   2.446 -1.7702  0.1637  0.2697
   17MOL   H103 5895   3.556   2.853   2.808 -1.0869 -0.2756  1.2278
   17MOL   H104 5896   3.381   2.841   2.778  1.3143  2.2881  1.1364
   17MOL   H105 5897   3.579   2.628   2.840  0.0608  1.1170  1.0922
   17MOL   H106 5898   3.483   2.706   2.960 -0.2748  1.6038  0.0480
   17MOL   H107 5899   3.359   2.547   2.726 -0.1810 -0.3677  0.0234
   17MOL   H108 5900   3.270   2.616   2.867  0.4048  0.9147  0.4536
   17MOL   H109 5901   3.383   2.475   2.878  1.7768  0.8573 -0.5350
   17MOL   C110 5902   3.534   2.833   2.311  0.5595  0.0902 -0.2904
   17MOL   C111 5903   3.380   2.785   2.321  0.1126  1.1308 -0.3047
   17MOL   C112 5904   3.367   2.633   2.351 -0.2691  0.1333 -0.2897
   17MOL   O113 5905   3.277   2.597   2.426 -0.5347 -0.2063  0.5167
   17MOL   O114 5906   3.461   2.545   2.306 -0.1150  0.2759 -0.1001
   17MOL   C115 5907   3.449   2.407   2.335 -0.2610  0.1566  0.0337
   17MOL   C116 5908   3.509   2.330   2.220  0.7280  0.3337  0.1275
   17MOL   C117 5909   3.455   2.350   2.073 -0.3153 -0.4627  0.2725
   17MOL   H118 5910   3.587   2.792   2.225  1.4007 -1.0321  0.7398
   17MOL   H119 5911   3.539   2.939   2.289  0.2547 -0.0460 -1.0189
   17MOL   H120 5912   3.338   2.803   2.222 -0.9435  0.8658  0.0935
   17MOL   H121 5913   3.499   2.378   2.427 -1.8859  1.9985  1.5565
   17MOL   H122 5914   3.344   2.376   2.341  0.0624 -1.1429 -0.6951
   17MOL   H123 5915   3.615   2.353   2.225  0.2820  2.3622  0.4776
   17MOL   H124 5916   3.502   2.222   2.234 -1.7523  0.2347 -1.4914
   17MOL   H125 5917   3.436   2.454   2.046  1.0348  0.1025  1.4952
   17MOL   H126 5918   3.363   2.292   2.065 -0.5697 -0.1429  0.8896
   17MOL   H127 5919   3.516   2.303   1.996  1.2952 -0.1187  1.3181
   17MOL   C128 5920   3.299   2.876   2.412  0.5686 -0.6086  0.0255
   17MOL   C129 5921   3.142   2.874   2.392 -0.4958 -0.7380 -0.0803
   17MOL   C130 5922   3.074   2.913   2.521  0.8008 -0.0452 -0.0353
   17MOL   O131 5923   3.004   2.826   2.579 -0.5780 -0.0410  0.7163
   17MOL   O132 5924   3.089   3.044   2.550  0.0336 -0.1264  0.1322
   17MOL   C133 5925   3.005   3.098   2.649 -0.7781 -0.0768 -0.2054
   17MOL   C134 5926   2.885   3.166   2.580  0.1640 -0.9236 -0.0072
   17MOL   C135 5927   2.756   3.093   2.556  0.8156 -0.2319 -0.3449
   17MOL   H136 5928   3.333   2.978   2.395 -1.9686  0.3566  0.6021
   17MOL   H137 5929   3.312   2.860   2.519 -0.9270 -0.7400  0.1884
   17MOL   H138 5930   3.105   2.775   2.366 -2.1883  0.0094 -0.5867
   17MOL   H139 5931   2.967   3.026   2.723 -1.2312  0.5318  0.1568
   17MOL   H140 5932   3.071   3.170   2.698  1.5073 -2.0214 -0.3207
   17MOL   H141 5933   2.857   3.250   2.644 -0.0578  0.3468 -1.7643
   17MOL   H142 5934   2.915   3.208   2.485 -2.1953  1.5786  0.2979
   17MOL   H143 5935   2.672   3.161   2.545  1.1195  0.3135  0.6487
   17MOL   H144 5936   2.732   3.026   2.639  0.5581  0.2432 -0.0328
   17MOL   H145 5937   2.763   3.038   2.462 -2.2537  0.7026 -1.1863
   17MOL   C146 5938   3.083   2.957   2.269  0.4308 -0.0367  0.1423
   17MOL   C147 5939   3.024   2.872   2.154 -0.0148 -0.3726 -0.5400
   17MOL   C148 5940   2.889   2.803   2.189  0.5175  0.4611  0.5293
   17MOL   O149 5941   2.850   2.795   2.306  0.0052 -0.4008 -0.1193
   17MOL   O150 5942   2.829   2.738   2.083 -0.4539 -0.2565 -0.2740
   17MOL   C151 5943   2.710   2.660   2.097 -1.0347  0.0296  0.5987
   17MOL   C152 5944   2.624   2.684   1.980 -0.3453 -0.1309  0.1434
   17MOL   C153 5945   2.495   2.614   1.969  0.8767  0.2361  0.1132
   17MOL   H154 5946   3.161   3.021   2.229  1.9084 -2.1024 -0.3497
   17MOL   H155 5947   3.010   3.033   2.298 -2.5836 -2.2230 -1.3159
   17MOL   H156 5948   3.087   2.783   2.146 -2.0584 -2.1143  1.8933
   17MOL   H157 5949   2.738   2.555   2.106  0.4418  0.5701  2.3170
   17MOL   H158 5950   2.648   2.674   2.185  0.8663  0.8511  1.8309
   17MOL   H159 5951   2.603   2.790   1.972 -0.9527 -0.2490  0.1277
   17MOL   H160 5952   2.690   2.657   1.897  2.5274  1.1217  1.9451
   17MOL   H161 5953   2.427   2.640   2.050  0.2555 -1.0645  0.0194
   17MOL   H162 5954   2.505   2.506   1.979 -1.5319 -0.2392 -2.1169
   17MOL   H163 5955   2.432   2.641   1.884 -0.2881  0.8826  1.1517
   17MOL   C164 5956   3.019   2.945   2.016 -0.1957 -0.4178 -0.7017
   17MOL   C165 5957   2.906   3.050   1.997 -0.2324 -0.1087  0.4057
   17MOL   C166 5958   2.909   3.165   2.097 -0.0895 -0.5619 -0.5300
   17MOL   O167 5959   2.801   3.203   2.147 -0.3037 -0.4344 -0.3105
   17MOL   O168 5960   3.026   3.233   2.112  0.5613  0.0109 -0.2591
   17MOL   C169 5961   3.035   3.359   2.174 -0.3112  0.4083 -0.1661
   17MOL   C170 5962   3.004   3.471   2.073  0.0021  0.4263 -0.1535
   17MOL   C171 5963   3.012   3.610   2.141 -0.0878 -0.1155  0.0983
   17MOL   H172 5964   3.003   2.866   1.943 -1.3019  0.1062 -1.0331
   17MOL   H173 5965   3.114   2.991   1.990 -1.2187  1.6792 -0.8682
   17MOL   H174 5966   2.812   3.001   2.022 -1.4987  1.3058 -1.4795
   17MOL   H175 5967   2.971   3.357   2.262 -2.1861 -1.2416 -1.5135
   17MOL   H176 5968   3.139   3.365   2.205 -0.0188  1.8178 -1.3633
   17MOL   H177 5969   3.077   3.472   1.993 -0.0219  0.6190 -0.1736
   17MOL   H178 5970   2.906   3.447   2.031 -0.9799  0.8346  1.8214
   17MOL   H179 5971   2.991   3.693   2.074 -0.2382  0.1705  0.5025
   17MOL   H180 5972   3.104   3.631   2.197 -0.0277  1.6616 -0.6574
   17MOL   H181 5973   2.925   3.605   2.206 -1.6101  1.8310 -1.7458
   17MOL   C182 5974   2.897   3.111   1.855 -0.6586  0.1571 -0.2826
   17MOL   C183 5975   2.902   3.006   1.741  0.0523  0.1569  0.1145
   17MOL   C184 5976   2.761   2.962   1.706  0.0407 -0.5098 -0.0925
   17MOL   O185 5977   2.726   2.840   1.710 -0.1308 -0.5111 -0.4227
   17MOL   O186 5978   2.681   3.068   1.664 -0.2086 -0.2414  0.0861
   17MOL   C187 5979   2.541   3.042   1.641  0.4438  0.5128  0.1258
   17MOL   C188 5980   2.463   3.177   1.637  0.0082 -0.5530 -0.2220
   17MOL   C189 5981   2.507   3.266   1.524  0.7385 -0.6057  0.0749
   17MOL   H190 5982   2.986   3.175   1.848 -0.5718  0.0792  0.1136
   17MOL   H191 5983   2.817   3.185   1.856  0.9929  2.0068  0.5349
   17MOL   H192 5984   2.959   2.918   1.770  0.8182 -0.2868 -2.5951
   17MOL   H193 5985   2.533   2.988   1.547  0.1926  2.4945 -1.0134
   17MOL   H194 5986   2.500   2.982   1.723 -1.7068  1.2486 -0.3741
   17MOL   H195 5987   2.356   3.163   1.626 -0.4000  2.3124 -0.1114
   17MOL   H196 5988   2.465   3.228   1.733  0.8297 -0.0587 -0.4969
   17MOL   H197 5989   2.614   3.286   1.520  1.2646 -3.1881  0.5185
   17MOL   H198 5990   2.460   3.363   1.539  2.7761  0.0827  2.2708
   17MOL   H199 5991   2.476   3.232   1.425  0.1526 -1.8568  0.6723
   17MOL   C200 5992   2.976   3.050   1.615 -0.3248  0.0088  0.1778
   17MOL   C201 5993   3.134   3.085   1.636 -0.8141 -0.1128  0.1657
   17MOL   C202 5994   3.212   2.960   1.651 -0.2430  0.0148 -0.1936
   17MOL   O203 5995   3.157   2.847   1.639  0.1437 -0.2395  0.4666
   17MOL   O204 5996   3.339   2.977   1.661  0.1735  0.7757 -0.0391
   17MOL   C205 5997   3.421   2.862   1.685  0.0206 -0.7210  0.1447
   17MOL   C206 5998   3.516   2.874   1.805  0.4921  0.4060 -0.3951
   17MOL   C207 5999   3.449   2.816   1.930 -0.2044 -0.0020  0.3250
   17MOL   H208 6000   2.934   3.141   1.573 -1.8272 -1.1033 -0.7547
   17MOL   H209 6001   2.954   2.978   1.537  4.1272 -0.5777 -0.6679
   17MOL   H210 6002   3.153   3.149   1.722 -2.9825  1.2705 -0.3557
   17MOL   H211 6003   3.362   2.770   1.685 -2.0479  0.5508  1.1092
   17MOL   H212 6004   3.474   2.853   1.591  0.2517  0.1730  0.1867
   17MOL   H213 6005   3.605   2.816   1.781  0.5098 -0.2594  1.2047
   17MOL   H214 6006   3.556   2.974   1.821 -1.0980  1.0981 -0.6452
   17MOL   H215 6007   3.343   2.841   1.937 -0.5680 -1.2864 -0.3412
   17MOL   H216 6008   3.500   2.860   2.016 -0.1202  0.5129  0.0142
   17MOL   H217 6009   3.458   2.708   1.943  0.1807  0.0784  0.7527
   17MOL   C218 6010   3.186   3.167   1.511 -0.3478 -0.4765  0.7618
   17MOL   C219 6011   3.122   3.307   1.492 -0.3359 -0.2307  0.0558
   17MOL   C220 6012   3.095   3.375   1.628 -0.2327 -0.4276  0.3050
   17MOL   O221 6013   3.178   3.399   1.719  0.3939  0.4565 -0.3802
   17MOL   O222 6014   2.971   3.406   1.634 -0.2079  0.1438 -0.0017
   17MOL   C223 6015   2.926   3.521   1.711 -1.1514  1.1472 -0.4092
   17MOL   C224 6016   2.777   3.555   1.704 -0.0430 -0.6018 -0.4180
   17MOL   C225 6017   2.686   3.447   1.764  0.1944 -0.5647  1.2249
   17MOL   H226 6018   3.187   3.101   1.425  2.4867  0.7605 -0.2362
   17MOL   H227 6019   3.293   3.183   1.530  0.1145 -2.7004  0.1647
   17MOL   H228 6020   3.021   3.293   1.452 -0.9980  1.9596  0.8920
   17MOL   H229 6021   2.950   3.493   1.814 -0.6848  1.1065 -0.5275
   17MOL   H230 6022   2.985   3.603   1.671 -0.5171  1.3128  0.8442
   17MOL   H231 6023   2.754   3.645   1.761 -0.8615 -0.3510 -1.1364
   17MOL   H232 6024   2.750   3.572   1.599  1.5477 -2.6032 -1.1777
   17MOL   H233 6025   2.584   3.480   1.745  0.2819 -1.0553 -0.1169
   17MOL   H234 6026   2.706   3.452   1.871 -1.1949  3.0564  1.3948
   17MOL   H235 6027   2.701   3.345   1.728 -1.1403 -0.1699 -0.4907
   17MOL   C236 6028   3.192   3.393   1.383 -0.2162  0.0926 -0.2526
   17MOL   C237 6029   3.339   3.432   1.407  0.6088  0.2764  0.5079
   17MOL   C238 6030   3.444   3.328   1.360  0.3602  0.5023  0.0733
   17MOL   O239 6031   3.403   3.225   1.297 -0.0714 -0.4809  0.3904
   17MOL   O240 6032   3.574   3.348   1.404 -0.1911  0.3217 -0.3294
   17MOL   C241 6033   3.665   3.241   1.376 -0.5905  0.4815 -0.1085
   17MOL   C242 6034   3.656   3.122   1.461 -0.1820 -0.2479  0.2757
   17MOL   C243 6035   3.778   3.028   1.441  0.1657  0.2346 -0.0695
   17MOL   H244 6036   3.134   3.484   1.365  1.3458  1.0581 -0.4387
   17MOL   H245 6037   3.178   3.345   1.285  0.2527  0.4173 -0.4780
   17MOL   H246 6038   3.344   3.448   1.515  0.8083 -0.1495  0.5616
   17MOL   H247 6039   3.658   3.213   1.271  0.5465  2.5898 -0.7691
   17MOL   H248 6040   3.766   3.281   1.364 -0.5756  0.5028  0.0846
   17MOL   H249 6041   3.641   3.138   1.567 -1.0845 -1.1652  0.3045
   17MOL   H250 6042   3.565   3.070   1.429  0.4850 -1.8291  0.9110
   17MOL   H251 6043   3.789   3.000   1.336 -2.9605 -2.3043  0.2141
   17MOL   H252 6044   3.777   2.938   1.503 -3.0920 -1.9842 -3.1424
   17MOL   H253 6045   3.874   3.071   1.469  1.1447 -2.6655  1.2621
   17MOL   C254 6046   3.358   3.578   1.353  0.6883  0.7881 -0.1998
   17MOL   C255 6047   3.295   3.694   1.439 -0.0049 -0.5656  0.0720
   17MOL   C256 6048   3.374   3.741   1.569 -0.1649 -0.3542 -0.1498
   17MOL   O257 6049   3.484   3.704   1.591  0.6314  0.0806  0.7158
   17MOL   O258 6050   3.296   3.821   1.649  0.4983 -0.3434  0.2963
   17MOL   C259 6051   3.355   3.874   1.769 -0.1174 -0.7977 -0.2203
   17MOL   C260 6052   3.307   3.793   1.894  1.2269 -1.1769  0.2822
   17MOL   C261 6053   3.354   3.650   1.897  0.3835 -0.3745  0.7360
   17MOL   H262 6054   3.319   3.587   1.251  1.4273  2.2377 -0.3657
   17MOL   H263 6055   3.466   3.591   1.347  0.8124 -0.3514 -0.5076
   17MOL   H264 6056   3.200   3.655   1.474  0.6257 -1.8538  0.3768
   17MOL   H265 6057   3.464   3.866   1.760  0.0005  0.1675  0.2590
   17MOL   H266 6058   3.327   3.979   1.768  1.7683 -0.2651 -0.1529
   17MOL   H267 6059   3.351   3.848   1.978 -0.4207  0.6463 -0.0196
   17MOL   H268 6060   3.200   3.798   1.915  0.4865  1.0932 -3.6258
   17MOL   H269 6061   3.460   3.638   1.917  0.6705  1.1129  0.1097
   17MOL   H270 6062   3.319   3.595   1.809  0.3936  1.0548 -0.1761
   17MOL   H271 6063   3.303   3.596   1.977  1.6710 -0.8860  1.2296
   17MOL   C272 6064   3.269   3.809   1.345 -0.0418 -0.0953  0.9399
   17MOL   C273 6065   3.145   3.794   1.252 -0.4717  0.1119 -0.5323
   17MOL   C274 6066   3.023   3.796   1.334  0.7490 -0.1395 -0.1421
   17MOL   O275 6067   2.985   3.707   1.404 -1.0908 -0.1259 -0.5377
   17MOL   O276 6068   2.945   3.911   1.330 -0.4257  0.2623  0.3057
   17MOL   C277 6069   2.821   3.924   1.395  0.5670  0.3666 -0.3765
   17MOL   C278 6070   2.824   4.069   1.437 -0.2171 -0.1136  0.0950
   17MOL   C279 6071   2.874   4.164   1.322  0.3260 -0.0164  0.3594
   17MOL   H280 6072   3.359   3.820   1.284 -0.0021 -1.9029  0.6497
   17MOL   H281 6073   3.264   3.904   1.398  0.0068  1.0566 -1.0649
   17MOL   H282 6074   3.154   3.692   1.215  0.6759 -0.5609  1.5088
   17MOL   H283 6075   2.746   3.921   1.316  0.0947 -0.3997  0.0986
   17MOL   H284 6076   2.803   3.854   1.477  0.6412 -0.3329 -0.9534
   17MOL   H285 6077   2.727   4.095   1.481 -0.6175 -1.1221 -0.1758
   17MOL   H286 6078   2.901   4.084   1.512 -1.6139  2.7708  1.0216
   17MOL   H287 6079   2.979   4.153   1.294  0.2033  0.8017 -0.4272
   17MOL   H288 6080   2.868   4.270   1.344  0.2640  0.3272 -1.2326
   17MOL   H289 6081   2.814   4.148   1.232  0.3676  4.3482 -0.5516
   17MOL   C290 6082   3.155   3.904   1.138  0.2697  0.0773  0.1143
   17MOL   C291 6083   3.044   3.883   1.033 -0.1635 -0.0802 -0.4424
   17MOL   C292 6084   2.989   4.023   0.979 -0.2320  0.0963  0.0741
   17MOL   O293 6085   2.887   4.077   1.017  0.2508  0.0883  0.0842
   17MOL   O294 6086   3.076   4.076   0.888  0.4424 -0.1800 -0.0417
   17MOL   C295 6087   3.052   4.209   0.847  0.3812 -0.5225 -0.0610
   17MOL   C296 6088   3.000   4.226   0.706  0.4643  0.1252 -0.3155
   17MOL   C297 6089   3.086   4.153   0.604  0.5139 -0.3027  0.2414
   17MOL   H298 6090   3.256   3.891   1.099  0.7011 -0.4719  1.3782
   17MOL   H299 6091   3.141   4.002   1.183 -1.7805  0.1092 -0.5481
   17MOL   H300 6092   2.958   3.850   1.091  0.5662 -0.4671  0.4159
   17MOL   H301 6093   2.978   4.263   0.907  1.6013 -0.5466  1.5000
   17MOL   H302 6094   3.141   4.269   0.862 -1.3879  2.1927  0.0670
   17MOL   H303 6095   2.895   4.197   0.696 -0.3488  2.5257  0.6823
   17MOL   H304 6096   2.989   4.333   0.685 -0.2247 -0.1749 -1.4788
   17MOL   H305 6097   3.187   4.139   0.644  0.2721 -2.1102  0.2880
   17MOL   H306 6098   3.091   4.187   0.501  2.2383 -0.7471  0.1535
   17MOL   H307 6099   3.055   4.050   0.622 -0.6547  0.3393  2.0449
   17MOL   C308 6100   3.071   3.777   0.919  0.2484 -0.0882 -0.0246
   17MOL   C309 6101   2.966   3.676   0.896  0.0434 -0.1147  0.5490
   17MOL   C310 6102   2.837   3.719   0.826  0.0418  0.4454 -0.4228
   17MOL   O311 6103   2.829   3.719   0.702  0.2280  0.1408 -0.1214
   17MOL   O312 6104   2.734   3.732   0.911 -0.3490 -0.0290 -0.0663
   17MOL   C313 6105   2.604   3.774   0.864 -0.7668  0.3843  0.1383
   17MOL   C314 6106   2.587   3.923   0.869  0.3284  0.0075  0.1598
   17MOL   C315 6107   2.452   3.971   0.823 -0.2429  0.4366  0.2311
   17MOL   H316 6108   3.165   3.727   0.942 -0.2665 -1.4330 -0.7922
   17MOL   H317 6109   3.092   3.828   0.825 -0.4075  1.0605  0.4528
   17MOL   H318 6110   2.941   3.645   0.998  1.0699 -0.0134  0.8410
   17MOL   H319 6111   2.579   3.745   0.761  0.2674  0.1000 -0.0404
   17MOL   H320 6112   2.538   3.720   0.932 -0.5891  0.1394  0.1175
   17MOL   H321 6113   2.602   3.951   0.974 -1.1227  0.2812  0.2941
   17MOL   H322 6114   2.658   3.963   0.797  1.2782 -1.6612  0.1337
   17MOL   H323 6115   2.437   3.946   0.718 -0.3306  2.7288 -0.3363
   17MOL   H324 6116   2.371   3.922   0.878  0.6667 -0.5605  0.6985
   17MOL   H325 6117   2.453   4.079   0.834  2.0275  0.5210 -0.4459
   17MOL   C326 6118   3.029   3.553   0.827 -0.2730  0.1172  0.9012
   17MOL   C327 6119   3.102   3.464   0.915 -0.7068  0.3258  0.4234
   17MOL   C328 6120   3.005   3.367   0.989  0.4470  1.0025  0.6748
   17MOL   O329 6121   2.959   3.262   0.944  0.2067  0.0985  0.1119
   17MOL   O330 6122   2.968   3.412   1.113 -0.2559  0.0676 -0.8031
   17MOL   C331 6123   2.870   3.342   1.192 -0.5043  0.0956  0.0549
   17MOL   C332 6124   2.809   3.438   1.294 -0.6654  0.7874  0.2970
   17MOL   C333 6125   2.737   3.548   1.230  0.0992  0.1866  0.1441
   17MOL   H334 6126   3.099   3.595   0.754  1.2394 -1.5781  1.3633
   17MOL   H335 6127   2.960   3.484   0.777  2.3208 -1.2896 -0.8881
   17MOL   H336 6128   3.147   3.521   0.996 -1.9155 -0.3850  1.6345
   17MOL   H337 6129   2.790   3.290   1.138  0.3595 -2.1905  0.8861
   17MOL   H338 6130   2.920   3.258   1.241 -1.7550 -1.8678 -1.9504
   17MOL   H339 6131   2.747   3.373   1.356  0.3550  0.3421  0.8638
   17MOL   H340 6132   2.876   3.487   1.364  0.6125 -0.4176 -0.0661
   17MOL   H341 6133   2.679   3.506   1.149  0.1850  0.1349  0.1094
   17MOL   H342 6134   2.675   3.601   1.303 -0.1123  0.1275  0.0055
   17MOL   H343 6135   2.811   3.613   1.182 -2.6310  0.9451 -3.2475
   17MOL   C344 6136   3.206   3.385   0.833 -0.0273 -0.7693  0.1797
   17MOL   C345 6137   3.313   3.305   0.915 -0.0007 -0.7604 -0.1563
   17MOL   C346 6138   3.437   3.379   0.964 -0.4852 -0.0927 -0.0078
   17MOL   O347 6139   3.438   3.463   1.058  0.4979  0.1142  0.0343
   17MOL   O348 6140   3.540   3.352   0.887  0.3949  0.5446  0.6540
   17MOL   C349 6141   3.668   3.399   0.915  0.0525 -0.3415  0.4848
   17MOL   C350 6142   3.760   3.379   0.802 -0.3319 -0.0446 -0.7299
   17MOL   C351 6143   3.758   3.491   0.683 -0.4027 -0.5025 -0.3246
   17MOL   H352 6144   3.264   3.457   0.776 -1.8159  1.5475  1.1878
   17MOL   H353 6145   3.151   3.325   0.760  0.8307 -0.9161 -0.3449
   17MOL   H354 6146   3.348   3.221   0.855 -1.4782  0.3395 -2.6757
   17MOL   H355 6147   3.658   3.504   0.946 -0.2728 -0.6581  1.4850
   17MOL   H356 6148   3.707   3.340   0.997 -0.3193 -2.2707 -0.7030
   17MOL   H357 6149   3.862   3.377   0.841 -0.7478 -1.4704  0.3133
   17MOL   H358 6150   3.740   3.278   0.769 -3.2330 -0.0273  0.8718
   17MOL   H359 6151   3.815   3.454   0.597 -2.2435 -0.3096 -1.6523
   17MOL   H360 6152   3.657   3.506   0.647 -0.1806 -1.1107 -1.2299
   17MOL   H361 6153   3.808   3.587   0.698 -0.4861 -0.4275 -0.5204
   17MOL   H362 6154   3.275   3.257   1.005  0.9067 -1.2194 -0.0108
   18MOL     C1 6155   5.422   4.765   4.322 -0.0524  0.4151 -0.3701
   18MOL     C2 6156   5.500   4.800   4.191 -0.1686  0.1901  0.1074
   18MOL     C3 6157   5.421   4.776   4.070 -0.1937 -0.6584  0.1863
   18MOL     O4 6158   5.468   4.719   3.972 -0.1336 -0.1335 -0.1076
   18MOL     O5 6159   5.298   4.835   4.076 -0.1075  0.1708  0.0103
   18MOL     C6 6160   5.215   4.844   3.964  0.1850  0.3737 -0.0134
   18MOL     C7 6161   5.234   4.982   3.901 -0.7861  0.1890  0.3016
   18MOL     C8 6162   5.123   5.008   3.802 -0.8596 -0.0760 -1.2735
   18MOL     H9 6163   5.456   4.679   4.380 -3.6520 -1.1764 -0.5144
   18MOL    H10 6164   5.404   4.848   4.390  1.0353  0.3321  0.0337
   18MOL    H11 6165   5.574   4.722   4.176  0.4643  0.4364  1.9274
   18MOL    H12 6166   5.233   4.760   3.897  2.1163  0.0826  0.8230
   18MOL    H13 6167   5.112   4.835   4.000  0.2209  0.2639  0.0633
   18MOL    H14 6168   5.254   5.062   3.972 -3.5460 -0.3787  1.7671
   18MOL    H15 6169   5.327   4.973   3.844  1.4964 -0.7869  4.0310
   18MOL    H16 6170   5.124   4.931   3.724  0.9989 -2.7301  1.2469
   18MOL    H17 6171   5.025   5.015   3.849 -0.5034 -0.2788 -0.4933
   18MOL    H18 6172   5.126   5.095   3.737  2.3888 -0.3147 -1.5092
   18MOL    H19 6173   5.320   4.737   4.299  0.3786 -0.8881 -0.7743
   18MOL    C20 6174   5.578   4.935   4.183 -0.0525 -0.7802  0.2580
   18MOL    C21 6175   5.702   4.922   4.278 -0.1447 -0.1970  0.4779
   18MOL    C22 6176   5.810   4.828   4.226  0.3850  0.2402 -0.7595
   18MOL    O23 6177   5.840   4.729   4.296 -0.0200 -0.1437  0.1589
   18MOL    O24 6178   5.848   4.850   4.109 -0.4120 -0.2764 -0.2255
   18MOL    C25 6179   5.949   4.787   4.040 -0.8184 -0.0030 -0.1460
   18MOL    C26 6180   6.080   4.851   4.065 -0.7109 -0.6909  0.0730
   18MOL    C27 6181   6.100   4.988   4.005  0.9239  0.1145 -0.5124
   18MOL    H28 6182   5.508   5.014   4.211  0.2265 -0.3298 -0.2961
   18MOL    H29 6183   5.612   4.965   4.084 -1.7680 -1.8797 -0.6767
   18MOL    H30 6184   5.659   4.878   4.369  0.8372  1.2633  1.6724
   18MOL    H31 6185   5.938   4.681   4.059  2.8987 -0.3874  0.2602
   18MOL    H32 6186   5.926   4.798   3.934  0.3390  1.1845 -0.2916
   18MOL    H33 6187   6.114   4.858   4.169 -1.0388 -0.9254  0.1981
   18MOL    H34 6188   6.144   4.779   4.013  0.3516  0.1053  0.2494
   18MOL    H35 6189   6.012   5.047   4.030  0.9162 -0.4958  0.9542
   18MOL    H36 6190   6.114   4.981   3.897 -0.0859 -1.6786 -0.5581
   18MOL    H37 6191   6.190   5.042   4.033 -0.1254  1.0248  1.1912
   18MOL    C38 6192   5.755   5.066   4.307 -0.3875  0.7891  0.1190
   18MOL    C39 6193   5.865   5.093   4.421  0.2931  0.2286  0.2634
   18MOL    C40 6194   5.919   5.235   4.394 -0.8452  0.5905  0.3791
   18MOL    O41 6195   6.041   5.256   4.373  0.2616 -0.2287 -0.0827
   18MOL    O42 6196   5.818   5.319   4.406  0.3503 -0.4213 -0.5160
   18MOL    C43 6197   5.829   5.465   4.409  0.6075 -0.7539 -0.1490
   18MOL    C44 6198   5.711   5.512   4.491  0.5764  0.0505  0.2725
   18MOL    C45 6199   5.574   5.478   4.421 -0.0675  0.6948 -0.1777
   18MOL    H46 6200   5.672   5.132   4.336 -0.4649  1.7063 -2.1104
   18MOL    H47 6201   5.786   5.115   4.215  0.2031  1.0203  0.4408
   18MOL    H48 6202   5.943   5.021   4.394  0.3719  0.2321  0.4796
   18MOL    H49 6203   5.924   5.493   4.454  0.3192 -0.6791  0.4044
   18MOL    H50 6204   5.836   5.509   4.309 -0.6573  0.4742  0.3059
   18MOL    H51 6205   5.706   5.464   4.589  2.7211 -0.7716  0.0026
   18MOL    H52 6206   5.722   5.620   4.507  0.8857 -0.3212  2.8410
   18MOL    H53 6207   5.492   5.532   4.468 -1.4353 -1.5446  0.1049
   18MOL    H54 6208   5.551   5.371   4.425 -0.3589  0.7649  0.0738
   18MOL    H55 6209   5.568   5.514   4.319  2.3028 -1.4030 -1.0847
   18MOL    C56 6210   5.808   5.075   4.566 -0.5242 -0.0682  0.4986
   18MOL    C57 6211   5.917   5.041   4.677  0.2019  0.3193 -0.0407
   18MOL    C58 6212   5.982   4.905   4.645  0.2934 -0.0505  0.0691
   18MOL    O59 6213   6.101   4.897   4.637 -0.2888  0.1398  0.6327
   18MOL    O60 6214   5.897   4.801   4.625  0.0782 -0.4570 -0.0420
   18MOL    C61 6215   5.941   4.675   4.580 -0.7722 -0.2433 -0.4939
   18MOL    C62 6216   5.945   4.578   4.694 -0.3933  0.0235 -0.0576
   18MOL    C63 6217   5.800   4.557   4.750  0.1003  0.4185 -0.0564
   18MOL    H64 6218   5.743   4.987   4.563  0.7531 -1.0089  0.3756
   18MOL    H65 6219   5.745   5.158   4.598  1.5131  1.8902 -0.4935
   18MOL    H66 6220   5.865   5.036   4.772  1.2001  0.7721  0.5473
   18MOL    H67 6221   5.876   4.633   4.503 -0.1963  0.1185 -1.1832
   18MOL    H68 6222   6.035   4.689   4.526 -0.6213  0.4493 -0.0588
   18MOL    H69 6223   5.995   4.487   4.659 -2.2456 -1.2174  0.4209
   18MOL    H70 6224   6.000   4.611   4.782 -0.6935 -3.4998  1.5414
   18MOL    H71 6225   5.789   4.471   4.816  1.8116 -2.1702 -2.9823
   18MOL    H72 6226   5.729   4.548   4.667  0.4373  1.8200 -0.5123
   18MOL    H73 6227   5.777   4.646   4.809 -1.0919 -0.4994  0.8888
   18MOL    C74 6228   6.016   5.157   4.715 -0.3354  1.0323 -0.4066
   18MOL    C75 6229   6.065   5.166   4.862 -0.1392 -0.1183 -0.0545
   18MOL    C76 6230   6.145   5.047   4.918 -0.1281 -1.2840  0.1338
   18MOL    O77 6231   6.110   4.993   5.021  0.0619 -0.3257  0.2569
   18MOL    O78 6232   6.257   5.014   4.852 -0.2283  0.0596  0.7091
   18MOL    C79 6233   6.342   4.916   4.920 -0.2940  0.5856 -0.1431
   18MOL    C80 6234   6.308   4.775   4.876 -0.4684  0.4289 -1.0106
   18MOL    C81 6235   6.403   4.675   4.941  0.1814 -0.3003 -0.2353
   18MOL    H82 6236   5.960   5.245   4.684 -0.8384  1.1493  0.8054
   18MOL    H83 6237   6.104   5.151   4.651  0.5212 -2.1153  0.9616
   18MOL    H84 6238   5.974   5.173   4.921 -0.0302  1.4124 -0.0273
   18MOL    H85 6239   6.446   4.944   4.906 -0.4176  1.7600  1.1718
   18MOL    H86 6240   6.324   4.940   5.025  2.3877  1.9355  0.0382
   18MOL    H87 6241   6.205   4.755   4.906 -0.5444  0.2536 -1.3927
   18MOL    H88 6242   6.303   4.770   4.768  0.7092  1.4816 -1.1215
   18MOL    H89 6243   6.463   4.728   5.016 -2.5364  2.1794  0.2886
   18MOL    H90 6244   6.474   4.642   4.866  0.2758 -2.1158  0.6284
   18MOL    H91 6245   6.356   4.589   4.987 -0.5537 -0.7552 -1.7968
   18MOL    C92 6246   6.141   5.298   4.882 -0.0511  0.1302 -0.4229
   18MOL    C93 6247   6.110   5.385   4.997  0.2920  0.4468  0.3132
   18MOL    C94 6248   5.967   5.442   5.000  0.5844 -0.0323  0.3901
   18MOL    O95 6249   5.952   5.562   4.995 -0.3048  0.1380 -0.1708
   18MOL    O96 6250   5.873   5.352   5.023  0.3016  0.3369  0.1460
   18MOL    C97 6251   5.729   5.379   5.005  0.0958 -0.6778  0.1666
   18MOL    C98 6252   5.685   5.337   4.862  0.2191  0.1105  0.0130
   18MOL    C99 6253   5.538   5.382   4.844  0.2995  0.3572  0.0050
   18MOL   H100 6254   6.130   5.358   4.793  1.0273  0.3154 -0.4407
   18MOL   H101 6255   6.249   5.283   4.889 -0.0889  1.0143  3.4977
   18MOL   H102 6256   6.178   5.469   4.983  0.6339  0.3699  1.4634
   18MOL   H103 6257   5.669   5.337   5.085 -1.0321 -1.4444 -1.0726
   18MOL   H104 6258   5.714   5.487   5.016 -0.0741 -0.4566 -1.8640
   18MOL   H105 6259   5.749   5.379   4.784 -1.2695 -0.3838 -1.4903
   18MOL   H106 6260   5.690   5.229   4.858  0.1071  0.1046  0.0234
   18MOL   H107 6261   5.496   5.357   4.746  1.9395  0.2908 -0.6928
   18MOL   H108 6262   5.526   5.488   4.865  0.6308  0.1494  1.2966
   18MOL   H109 6263   5.470   5.331   4.913  1.3977  0.1281  0.9401
   18MOL   C110 6264   6.147   5.312   5.119  0.3945 -0.3973 -0.5155
   18MOL   C111 6265   6.292   5.269   5.137  0.2682  0.0260  0.7838
   18MOL   C112 6266   6.391   5.380   5.107  0.2468 -0.2775 -0.4542
   18MOL   O113 6267   6.378   5.491   5.163 -0.0067 -0.4477  0.4044
   18MOL   O114 6268   6.474   5.339   5.008  0.6852  0.6475 -0.6578
   18MOL   C115 6269   6.580   5.421   4.969 -0.4141  0.4851  0.0593
   18MOL   C116 6270   6.674   5.339   4.877 -0.5450 -0.4587 -0.0945
   18MOL   C117 6271   6.785   5.420   4.803 -0.1139 -0.2593  0.0882
   18MOL   H118 6272   6.092   5.219   5.133  1.3441 -1.0761 -1.2368
   18MOL   H119 6273   6.115   5.371   5.205  0.5092 -0.5433 -0.3703
   18MOL   H120 6274   6.321   5.195   5.062 -1.7007 -0.6348  0.6454
   18MOL   H121 6275   6.534   5.492   4.901 -0.2896 -1.8698 -2.5838
   18MOL   H122 6276   6.633   5.470   5.051  0.1673 -2.5769  1.6003
   18MOL   H123 6277   6.732   5.273   4.941 -0.2355  0.2354  0.3486
   18MOL   H124 6278   6.607   5.277   4.817  0.2362 -0.9919 -0.4182
   18MOL   H125 6279   6.879   5.368   4.792  0.0413 -0.1246  0.7250
   18MOL   H126 6280   6.795   5.522   4.841 -3.1583 -0.1987  0.8824
   18MOL   H127 6281   6.744   5.433   4.703 -2.5491 -2.2163  0.7964
   18MOL   C128 6282   6.306   5.210   5.277  0.0259  0.2792 -0.3207
   18MOL   C129 6283   6.455   5.181   5.326 -0.1236  0.7382  1.0160
   18MOL   C130 6284   6.451   5.158   5.480 -0.8734  0.0230  1.1660
   18MOL   O131 6285   6.504   5.234   5.557 -0.1233  0.0188  0.0656
   18MOL   O132 6286   6.391   5.038   5.511 -0.2393 -0.1367 -0.0574
   18MOL   C133 6287   6.396   4.993   5.645  0.4869 -0.2301  0.4410
   18MOL   C134 6288   6.299   5.066   5.743 -0.1379  1.0038 -0.0636
   18MOL   C135 6289   6.306   5.001   5.887  0.0599  0.4813  0.9944
   18MOL   H136 6290   6.256   5.113   5.280 -0.7427  0.7002  0.8350
   18MOL   H137 6291   6.257   5.266   5.357  0.9650  1.0201 -0.2590
   18MOL   H138 6292   6.530   5.260   5.316 -0.2955  0.7631 -0.2532
   18MOL   H139 6293   6.372   4.887   5.646  0.1594 -0.1472  1.7959
   18MOL   H140 6294   6.498   5.003   5.683 -0.0036  0.2419  1.6466
   18MOL   H141 6295   6.310   5.174   5.750 -2.1787  1.2889 -0.9975
   18MOL   H142 6296   6.197   5.065   5.704 -0.9540 -0.9918  2.0139
   18MOL   H143 6297   6.408   4.997   5.924 -0.0546  2.2044  1.5424
   18MOL   H144 6298   6.259   4.903   5.895  0.9610 -0.0426 -0.1005
   18MOL   H145 6299   6.261   5.066   5.963 -0.3457  2.0305 -0.5147
   18MOL   C146 6300   6.511   5.053   5.256 -0.0979 -0.4890 -0.1010
   18MOL   C147 6301   6.647   4.983   5.298  0.1923  0.4510  0.1195
   18MOL   C148 6302   6.686   4.878   5.196  0.0373 -0.4787  0.3656
   18MOL   O149 6303   6.673   4.758   5.224 -0.0570  0.4591  0.0551
   18MOL   O150 6304   6.725   4.921   5.079 -0.0594 -0.2179 -0.3955
   18MOL   C151 6305   6.789   4.826   4.989  0.3677 -0.3397 -0.2970
   18MOL   C152 6306   6.815   4.881   4.850 -0.2803  0.6710 -0.8599
   18MOL   C153 6307   6.691   4.916   4.767 -0.0663  0.2124  0.4444
   18MOL   H154 6308   6.509   5.077   5.150  1.3555  0.6320  0.1104
   18MOL   H155 6309   6.439   4.971   5.261 -0.9703  0.3985  2.8027
   18MOL   H156 6310   6.640   4.939   5.397 -2.0491 -0.8017 -0.5516
   18MOL   H157 6311   6.877   4.790   5.042 -0.8037 -1.7854  0.6862
   18MOL   H158 6312   6.730   4.736   4.979 -0.6574  0.3509 -0.5314
   18MOL   H159 6313   6.877   4.970   4.858  0.7423 -0.1352  0.5850
   18MOL   H160 6314   6.867   4.797   4.803 -0.2826 -0.5657  1.2410
   18MOL   H161 6315   6.625   4.830   4.759 -0.5077  0.4769  1.1129
   18MOL   H162 6316   6.711   4.949   4.665  0.4516 -3.2246 -0.6090
   18MOL   H163 6317   6.629   4.997   4.805 -0.8960  0.1133 -0.6701
   18MOL   C164 6318   6.762   5.086   5.325 -0.5209  0.4075  0.5020
   18MOL   C165 6319   6.873   5.046   5.420  0.5750 -0.8437 -0.2213
   18MOL   C166 6320   6.951   4.915   5.385 -0.6862 -0.5749  0.1383
   18MOL   O167 6321   7.028   4.912   5.288 -0.0563  0.2559 -0.2763
   18MOL   O168 6322   6.919   4.810   5.473 -0.5858 -0.0184  0.2942
   18MOL   C169 6323   6.948   4.671   5.450 -0.3138  0.2219 -0.3300
   18MOL   C170 6324   7.096   4.640   5.472  0.5608  0.2160 -0.0587
   18MOL   C171 6325   7.148   4.500   5.452  0.2943  0.0889  0.0384
   18MOL   H172 6326   6.717   5.183   5.345  0.5884  1.1978 -0.7622
   18MOL   H173 6327   6.814   5.102   5.231  0.4702 -2.0692  0.5898
   18MOL   H174 6328   6.825   5.030   5.517  0.8545  1.3518  0.3082
   18MOL   H175 6329   6.890   4.603   5.513 -3.3507  2.0447 -1.0465
   18MOL   H176 6330   6.918   4.642   5.349  1.8174 -0.4073 -0.8129
   18MOL   H177 6331   7.168   4.711   5.431  0.4443 -0.3080 -1.2078
   18MOL   H178 6332   7.112   4.652   5.579 -1.7355 -1.3951  0.5019
   18MOL   H179 6333   7.231   4.473   5.518  0.6711 -1.9311 -1.1992
   18MOL   H180 6334   7.167   4.481   5.347 -2.7149  1.6796 -0.8464
   18MOL   H181 6335   7.068   4.428   5.470  2.2809 -2.0817  0.4618
   18MOL   C182 6336   6.973   5.173   5.427 -0.3120  0.7874  0.5240
   18MOL   C183 6337   6.918   5.293   5.512  0.4826 -0.6857  0.8131
   18MOL   C184 6338   6.886   5.258   5.656 -0.0544 -0.0717  0.5115
   18MOL   O185 6339   6.781   5.264   5.711  0.3321 -0.2003 -0.2851
   18MOL   O186 6340   6.998   5.219   5.725 -0.0799 -0.0764 -0.1458
   18MOL   C187 6341   6.996   5.167   5.855 -0.0896  0.3398 -0.2447
   18MOL   C188 6342   6.966   5.014   5.845  0.1685 -0.5966  0.6421
   18MOL   C189 6343   7.060   4.923   5.767 -0.0197 -0.1209  0.1737
   18MOL   H190 6344   7.004   5.205   5.327 -0.6942  0.7087  0.3763
   18MOL   H191 6345   7.069   5.143   5.467 -2.0063 -0.3592  3.9136
   18MOL   H192 6346   6.824   5.334   5.477  0.7376 -1.2549 -0.5528
   18MOL   H193 6347   7.092   5.163   5.907 -0.4500  1.6410  0.5476
   18MOL   H194 6348   6.922   5.230   5.906 -1.8861 -0.4391 -1.8278
   18MOL   H195 6349   6.951   4.978   5.947 -1.7249 -2.3980 -0.2132
   18MOL   H196 6350   6.866   5.001   5.801  1.1158 -0.7436 -1.5328
   18MOL   H197 6351   7.093   4.956   5.669 -0.4608 -0.4538 -0.0865
   18MOL   H198 6352   7.008   4.830   5.744 -0.9791  0.0699  1.4726
   18MOL   H199 6353   7.139   4.876   5.826 -0.1821  0.2849  0.7206
   18MOL   C200 6354   7.014   5.416   5.502 -0.0540 -0.9213  0.0415
   18MOL   C201 6355   7.016   5.487   5.365 -0.4006 -0.8274  0.3206
   18MOL   C202 6356   6.883   5.530   5.301 -0.1731  0.3420  0.9159
   18MOL   O203 6357   6.852   5.476   5.192  0.6879  0.0864  0.4036
   18MOL   O204 6358   6.824   5.637   5.356 -0.1062 -0.1938  0.1754
   18MOL   C205 6359   6.693   5.683   5.327  0.0492 -0.3484 -0.5326
   18MOL   C206 6360   6.649   5.737   5.463 -0.0601  0.0747  0.3826
   18MOL   C207 6361   6.653   5.633   5.573  0.3330  0.0508 -0.2562
   18MOL   H208 6362   7.120   5.401   5.523 -0.3918 -1.1259  1.6108
   18MOL   H209 6363   6.973   5.481   5.579 -1.4231  0.0633 -1.4640
   18MOL   H210 6364   7.048   5.405   5.301  2.3073 -0.0552  0.5965
   18MOL   H211 6365   6.703   5.767   5.257 -1.4333 -0.3423 -0.7529
   18MOL   H212 6366   6.632   5.599   5.294 -2.7627  0.7441  1.6402
   18MOL   H213 6367   6.706   5.825   5.493  0.1276 -0.3386  1.2432
   18MOL   H214 6368   6.547   5.777   5.465  1.0332  2.8987  2.9239
   18MOL   H215 6369   6.626   5.675   5.670  1.6075  2.6031 -0.9649
   18MOL   H216 6370   6.753   5.590   5.578  0.3046  0.0714  0.5032
   18MOL   H217 6371   6.583   5.551   5.553  1.2648 -0.3719 -1.9038
   18MOL   C218 6372   7.115   5.612   5.347  0.4486 -0.0542  0.2237
   18MOL   C219 6373   7.256   5.566   5.301  0.6176  0.1146  0.4990
   18MOL   C220 6374   7.270   5.547   5.150  0.1288  0.4122  0.5450
   18MOL   O221 6375   7.333   5.623   5.082  0.4161  0.2601 -0.5650
   18MOL   O222 6376   7.210   5.440   5.105 -0.4282  0.0142  0.4441
   18MOL   C223 6377   7.215   5.388   4.967  0.0773  0.4471  0.1971
   18MOL   C224 6378   7.126   5.269   4.952 -0.2891 -0.3768 -0.1617
   18MOL   C225 6379   7.179   5.142   5.000  0.0416 -0.7457  0.7721
   18MOL   H226 6380   7.114   5.672   5.437  0.8460  0.6306 -0.2280
   18MOL   H227 6381   7.078   5.681   5.272  0.5173 -0.2992 -0.0363
   18MOL   H228 6382   7.265   5.465   5.341  0.5351 -0.3641 -0.6486
   18MOL   H229 6383   7.170   5.460   4.899 -0.6579 -1.2517 -1.1574
   18MOL   H230 6384   7.316   5.363   4.935 -0.5730 -1.6592 -0.3183
   18MOL   H231 6385   7.031   5.296   4.998 -0.0091  1.1934 -0.4940
   18MOL   H232 6386   7.111   5.242   4.847 -0.3765 -0.4729 -0.1242
   18MOL   H233 6387   7.177   5.125   5.108  0.0496  0.8916  1.0443
   18MOL   H234 6388   7.282   5.127   4.967  0.2314 -1.2035  1.5446
   18MOL   H235 6389   7.115   5.061   4.965 -3.3299  2.0851  0.1598
   18MOL   C236 6390   7.365   5.652   5.366  0.2083 -0.1228 -0.2987
   18MOL   C237 6391   7.379   5.665   5.520 -0.5240  1.1579 -0.4540
   18MOL   C238 6392   7.416   5.525   5.574 -0.6665  0.0958 -0.1273
   18MOL   O239 6393   7.498   5.448   5.514  0.0026 -0.0187  0.1058
   18MOL   O240 6394   7.347   5.492   5.684 -0.8938  0.0923 -0.4552
   18MOL   C241 6395   7.351   5.350   5.721 -0.4509 -0.3428  0.6041
   18MOL   C242 6396   7.320   5.339   5.869 -0.0653 -0.2203 -0.4799
   18MOL   C243 6397   7.417   5.419   5.960 -0.0321 -0.0682  0.0418
   18MOL   H244 6398   7.337   5.745   5.318 -1.9810  0.1308  1.4077
   18MOL   H245 6399   7.458   5.624   5.316  0.2494  2.7443 -1.9053
   18MOL   H246 6400   7.279   5.689   5.555 -0.3139 -0.2784  1.2314
   18MOL   H247 6401   7.285   5.287   5.661 -0.3905 -0.7233  0.9343
   18MOL   H248 6402   7.452   5.314   5.700  0.4028  2.4984 -0.3627
   18MOL   H249 6403   7.220   5.377   5.893 -0.0075 -0.3222 -0.0765
   18MOL   H250 6404   7.329   5.233   5.895 -3.0443 -0.6314 -0.9574
   18MOL   H251 6405   7.394   5.433   6.065 -1.4852  2.8390 -0.6100
   18MOL   H252 6406   7.413   5.519   5.916 -0.9986 -0.6812 -1.2857
   18MOL   H253 6407   7.520   5.384   5.947  0.1234  0.0727  0.8848
   18MOL   C254 6408   7.481   5.771   5.569  0.0179 -0.4656  0.3569
   18MOL   C255 6409   7.507   5.793   5.717  0.0773 -0.0347  0.1837
   18MOL   C256 6410   7.622   5.885   5.750  0.1143  0.2775 -0.9708
   18MOL   O257 6411   7.667   5.971   5.681 -0.1470  0.3721 -0.2823
   18MOL   O258 6412   7.665   5.852   5.874 -0.1784  0.0783 -0.1786
   18MOL   C259 6413   7.783   5.907   5.938 -1.5221  0.1444 -0.0863
   18MOL   C260 6414   7.793   5.862   6.083  0.1464 -0.2325  0.3717
   18MOL   C261 6415   7.810   5.710   6.103 -0.2506 -0.2217  0.6140
   18MOL   H262 6416   7.435   5.858   5.521  0.7730  0.2842  0.9799
   18MOL   H263 6417   7.570   5.759   5.508  0.3617  0.8859  0.5712
   18MOL   H264 6418   7.542   5.694   5.745  2.4950  0.5081 -0.8205
   18MOL   H265 6419   0.000   5.883   5.896 -0.5603 -0.8928  2.6313
   18MOL   H266 6420   7.769   6.015   5.943  1.5338  0.5640  0.0410
   18MOL   H267 6421   7.875   5.910   6.135  0.0378 -0.3031  0.6082
   18MOL   H268 6422   7.704   5.901   6.133  0.0118 -2.1024  1.6699
   18MOL   H269 6423   7.727   5.648   6.068  0.9525 -1.1096 -0.7572
   18MOL   H270 6424   7.825   5.694   6.209  0.4269  1.3155  0.7588
   18MOL   H271 6425   0.022   5.673   6.058  1.1494  0.8368  2.5645
   18MOL   C272 6426   7.376   5.827   5.787  0.5434 -0.6954  0.3271
   18MOL   C273 6427   7.307   5.963   5.761 -0.0432  0.2496  0.0562
   18MOL   C274 6428   7.199   5.953   5.650  0.5263  0.0937  0.6795
   18MOL   O275 6429   7.219   6.010   5.544 -0.5375  0.9347  0.1467
   18MOL   O276 6430   7.096   5.870   5.675  0.2914  0.3953  0.2384
   18MOL   C277 6431   6.979   5.883   5.593 -0.0701 -0.1007  0.1152
   18MOL   C278 6432   6.908   6.025   5.603  0.1354  0.2862  0.0661
   18MOL   C279 6433   6.872   6.067   5.745 -0.3227 -0.7252 -0.0182
   18MOL   H280 6434   7.375   5.808   5.894 -0.0111  2.7295  0.9815
   18MOL   H281 6435   7.298   5.757   5.758 -1.6260  1.9076 -0.3329
   18MOL   H282 6436   7.378   6.031   5.713 -0.9049  0.2468 -1.2468
   18MOL   H283 6437   6.996   5.859   5.488 -1.3287  2.3740 -0.6993
   18MOL   H284 6438   6.903   5.812   5.625  1.8113 -1.9012  0.7323
   18MOL   H285 6439   6.971   6.091   5.543 -1.4437  0.6914 -1.1574
   18MOL   H286 6440   6.824   6.019   5.534  1.6148  0.7581 -1.8147
   18MOL   H287 6441   6.970   6.073   5.793 -0.5405 -1.8604  0.5754
   18MOL   H288 6442   6.801   5.995   5.785 -1.5565  1.0742  1.1134
   18MOL   H289 6443   6.821   6.163   5.738 -2.1645 -1.8060 -2.2990
   18MOL   C290 6444   7.258   6.033   5.885 -0.3036  0.8283 -0.0586
   18MOL   C291 6445   7.366   6.060   5.994 -0.3297  0.0448  0.2266
   18MOL   C292 6446   7.456   6.183   5.962  0.8915  0.7494 -0.5025
   18MOL   O293 6447   7.579   6.184   5.973 -0.2769 -0.0078 -0.5063
   18MOL   O294 6448   7.384   6.292   5.923  0.3995 -0.4137 -0.0856
   18MOL   C295 6449   7.448   6.409   5.871  0.5124  0.0556 -0.7197
   18MOL   C296 6450   7.507   6.408   5.733  0.1497  0.4475 -0.2067
   18MOL   C297 6451   7.401   6.418   5.627  0.2578 -0.0392  0.2655
   18MOL   H298 6452   7.173   5.978   5.925 -0.2474  0.7320 -0.0739
   18MOL   H299 6453   7.215   6.126   5.848  0.1557  1.3197  0.6200
   18MOL   H300 6454   7.428   5.971   6.006 -0.2799  0.1304  0.6098
   18MOL   H301 6455   7.358   6.471   5.870 -1.5394 -2.7612  0.1502
   18MOL   H302 6456   7.520   6.443   5.945 -1.6914 -0.9104  1.9647
   18MOL   H303 6457   7.574   6.491   5.712  1.2738 -0.6355 -1.0024
   18MOL   H304 6458   7.565   6.317   5.718 -0.6016  0.0432 -0.7132
   18MOL   H305 6459   7.335   6.331   5.621 -0.2829  0.2988  1.1658
   18MOL   H306 6460   7.450   6.421   5.530 -0.2426  0.3731  0.0191
   18MOL   H307 6461   7.348   6.512   5.642 -1.3906 -1.1492  1.7308
   18MOL   C308 6462   7.299   6.078   6.128 -0.3656  0.2052 -0.2416
   18MOL   C309 6463   7.287   5.951   6.211  0.1525  0.3216  0.5635
   18MOL   C310 6464   7.425   5.900   6.268  0.0860  0.1332  0.2962
   18MOL   O311 6465   7.464   5.786   6.242  0.6687  0.0553  0.6117
   18MOL   O312 6466   7.484   5.991   6.343 -0.3706 -0.4752  1.0452
   18MOL   C313 6467   7.597   5.955   6.425  0.4945 -0.6547 -0.3792
   18MOL   C314 6468   7.671   6.076   6.483 -0.3062  0.4492 -0.3303
   18MOL   C315 6469   7.732   6.166   6.373  0.1102 -0.4292  0.3798
   18MOL   H316 6470   7.200   6.120   6.111 -1.7346 -2.6362  0.4458
   18MOL   H317 6471   7.363   6.150   6.179 -1.7625  1.2792  0.0238
   18MOL   H318 6472   7.258   5.878   6.135  1.6504  1.2490 -0.9393
   18MOL   H319 6473   7.557   5.902   6.512 -0.7629 -0.8429 -1.0536
   18MOL   H320 6474   7.659   5.887   6.368  0.5702 -0.9813  0.0899
   18MOL   H321 6475   7.596   6.135   6.536  0.0729  0.0180  0.7062
   18MOL   H322 6476   7.742   6.040   6.558  1.0490  2.6154 -0.5171
   18MOL   H323 6477   7.818   6.214   6.420  0.5704 -1.5908  0.7503
   18MOL   H324 6478   7.771   6.102   6.294  0.3544  0.7830 -0.4847
   18MOL   H325 6479   7.658   6.240   6.344 -1.6479 -2.5062 -0.5839
   18MOL   C326 6480   7.177   5.960   6.320 -0.7208 -0.4333  0.5222
   18MOL   C327 6481   7.158   5.830   6.395 -0.5689 -0.2230 -0.3948
   18MOL   C328 6482   7.136   5.706   6.301 -0.0249 -0.4712  0.0714
   18MOL   O329 6483   7.177   5.594   6.322  0.2110 -0.0026  0.4623
   18MOL   O330 6484   7.047   5.730   6.201  0.5378 -0.5694  0.2318
   18MOL   C331 6485   7.028   5.647   6.090  0.0738  0.3223 -0.2683
   18MOL   C332 6486   6.961   5.709   5.966  0.0213 -0.1909 -0.4730
   18MOL   C333 6487   6.914   5.596   5.875  0.5100  0.0032 -0.0740
   18MOL   H334 6488   7.078   5.982   6.279 -0.3721 -0.4188 -0.3038
   18MOL   H335 6489   7.184   6.043   6.391  2.2245  0.6272 -0.9552
   18MOL   H336 6490   7.056   5.840   6.432  0.0454 -0.8739  1.5350
   18MOL   H337 6491   7.127   5.611   6.062 -0.4904 -1.1552 -0.4187
   18MOL   H338 6492   6.976   5.555   6.119  2.0914 -1.1887 -1.2890
   18MOL   H339 6493   6.876   5.771   5.996  1.2151  1.7365 -1.0181
   18MOL   H340 6494   7.026   5.772   5.907  1.7169 -1.3699  0.1071
   18MOL   H341 6495   6.901   5.646   5.779  0.2150 -0.3998 -0.2471
   18MOL   H342 6496   6.986   5.515   5.869  1.2023  0.5778  0.4007
   18MOL   H343 6497   6.817   5.562   5.910  1.9019  0.1191  4.1224
   18MOL   C344 6498   7.249   5.790   6.517  0.5603 -0.0437 -0.1028
   18MOL   C345 6499   7.276   5.903   6.620  0.5152  0.7964  0.3218
   18MOL   C346 6500   7.382   5.868   6.724 -0.6806 -0.8618  1.2992
   18MOL   O347 6501   7.380   5.753   6.772 -0.7266  0.3845  0.0045
   18MOL   O348 6502   7.459   5.971   6.749 -0.9451  0.1790 -0.2625
   18MOL   C349 6503   7.581   5.952   6.827  0.3186 -1.1285  0.1645
   18MOL   C350 6504   7.571   6.033   6.960  0.3702  0.1797 -0.3647
   18MOL   C351 6505   7.689   6.008   7.061  0.5707 -0.5663 -0.5880
   18MOL   H352 6506   7.340   5.734   6.494  0.7714 -0.0356  0.6916
   18MOL   H353 6507   7.195   5.711   6.569  2.4428 -0.4422  1.3108
   18MOL   H354 6508   7.183   5.927   6.672 -0.1497  2.0565 -1.3963
   18MOL   H355 6509   7.604   5.845   6.828  1.2870 -0.9195  0.6784
   18MOL   H356 6510   7.662   5.999   6.771 -1.0629  0.5965 -0.4187
   18MOL   H357 6511   7.567   6.140   6.938  0.8187  0.4837  0.9822
   18MOL   H358 6512   7.482   5.999   7.014  0.0290 -0.0189 -1.0514
   18MOL   H359 6513   7.722   5.907   7.083  1.6596 -0.4634 -1.6935
   18MOL   H360 6514   7.781   6.056   7.028  1.1119  1.0259  3.0092
   18MOL   H361 6515   7.670   6.060   7.155  1.1371 -0.4572 -0.5303
   18MOL   H362 6516   7.316   5.993   6.572 -0.6843  1.1976  0.0587
   19MOL     C1 6517   6.742   2.785   5.026  0.0301  0.4225  0.3309
   19MOL     C2 6518   6.656   2.862   4.919 -0.5459 -0.5502 -0.2779
   19MOL     C3 6519   6.716   3.001   4.892 -0.3356  0.0361 -0.1233
   19MOL     O4 6520   6.750   3.029   4.778  0.1329  0.4719  0.3449
   19MOL     O5 6521   6.721   3.082   5.001 -0.2548 -0.2302  0.0704
   19MOL     C6 6522   6.764   3.217   4.994  0.6694  0.8953  0.2381
   19MOL     C7 6523   6.842   3.257   5.122  0.3241  0.1484  0.1916
   19MOL     C8 6524   6.967   3.166   5.155 -1.2311 -0.7161  0.4953
   19MOL     H9 6525   6.819   2.731   4.972  0.7363  0.0271  1.7200
   19MOL    H10 6526   6.788   2.840   5.108  1.4817 -0.3898  0.0839
   19MOL    H11 6527   6.567   2.891   4.974  1.8959 -1.1631  4.2655
   19MOL    H12 6528   6.833   3.228   4.911 -0.2295  0.5609 -0.5610
   19MOL    H13 6529   6.673   3.275   4.977  1.0913  2.0422  1.7783
   19MOL    H14 6530   6.870   3.362   5.117  1.3135 -0.1522 -0.6989
   19MOL    H15 6531   6.778   3.246   5.209 -0.5102 -2.2885 -0.6839
   19MOL    H16 6532   6.932   3.063   5.149  1.3451 -1.5499 -0.9522
   19MOL    H17 6533   7.046   3.187   5.082 -0.5371  2.8718  2.1847
   19MOL    H18 6534   7.004   3.189   5.255 -3.3934  0.2473  1.0935
   19MOL    H19 6535   6.680   2.707   5.071  1.3372 -2.4759 -2.6863
   19MOL    C20 6536   6.625   2.779   4.793  0.3862  0.5697 -0.1381
   19MOL    C21 6537   6.546   2.646   4.810 -0.3649 -0.2154  0.6920
   19MOL    C22 6538   6.409   2.650   4.880  0.5833  0.3478  0.1073
   19MOL    O23 6539   6.398   2.640   5.002 -0.0742  0.4554 -0.1301
   19MOL    O24 6540   6.305   2.667   4.792  0.6858 -0.1115 -0.0224
   19MOL    C25 6541   6.173   2.671   4.841  0.0746  0.4964 -0.6320
   19MOL    C26 6542   6.108   2.530   4.840 -0.1784 -0.0616 -0.0792
   19MOL    C27 6543   6.145   2.435   4.953  0.6901  0.4062 -0.2408
   19MOL    H28 6544   6.720   2.772   4.738  1.1290  1.4337  1.0119
   19MOL    H29 6545   6.555   2.834   4.730  0.8486  1.0985 -0.2001
   19MOL    H30 6546   6.613   2.594   4.879  0.8100 -0.5730 -0.6868
   19MOL    H31 6547   6.155   2.721   4.936  1.0489 -0.3457  0.0133
   19MOL    H32 6548   6.112   2.733   4.776 -0.6431  2.1655  1.5572
   19MOL    H33 6549   6.004   2.551   4.864  0.0694 -0.2216  1.1179
   19MOL    H34 6550   6.130   2.483   4.744  0.4588  0.2369 -0.0768
   19MOL    H35 6551   6.080   2.354   4.988  0.8162  0.3429 -0.1509
   19MOL    H36 6552   6.144   2.499   5.041  0.1910 -0.9085  0.7263
   19MOL    H37 6553   6.247   2.397   4.952  0.0169 -1.4202 -0.3789
   19MOL    C38 6554   6.546   2.563   4.676 -0.2403 -0.6503  0.2919
   19MOL    C39 6555   6.684   2.502   4.633  0.8184  0.3128  0.0022
   19MOL    C40 6556   6.714   2.361   4.708  1.2513 -0.1717  0.3184
   19MOL    O41 6557   6.719   2.255   4.647 -0.4231 -0.1996  0.3051
   19MOL    O42 6558   6.729   2.388   4.838  0.7467 -0.0208 -0.1177
   19MOL    C43 6559   6.741   2.284   4.935 -0.0337 -0.3865  0.3407
   19MOL    C44 6560   6.628   2.309   5.037 -0.5267  0.0255 -0.5551
   19MOL    C45 6561   6.652   2.422   5.138 -0.5370 -0.0287  1.2123
   19MOL    H46 6562   6.504   2.626   4.596 -0.4522 -1.8809 -0.5771
   19MOL    H47 6563   6.476   2.481   4.689  1.2916 -2.3906 -1.9985
   19MOL    H48 6564   6.762   2.574   4.657  0.1911  0.1766  2.5570
   19MOL    H49 6565   6.717   2.183   4.903 -2.3536  0.2990 -0.1611
   19MOL    H50 6566   6.839   2.277   4.982 -0.1153  0.4483  0.6543
   19MOL    H51 6567   6.536   2.330   4.983 -1.3023 -1.9561 -0.0538
   19MOL    H52 6568   6.613   2.229   5.110  3.0071  1.1875  1.5596
   19MOL    H53 6569   6.654   2.396   5.244 -1.3138  0.9470  1.4780
   19MOL    H54 6570   6.578   2.501   5.125  1.5467  1.4597 -2.4425
   19MOL    H55 6571   6.747   2.466   5.109 -0.3347 -1.1554  0.0997
   19MOL    C56 6572   6.699   2.479   4.479 -0.5752 -0.0303 -0.0117
   19MOL    C57 6573   6.663   2.594   4.381  0.2881 -0.0174 -0.6774
   19MOL    C58 6574   6.717   2.740   4.416 -0.1258  0.6613  0.5980
   19MOL    O59 6575   6.817   2.756   4.486 -0.1435 -0.0222  0.1128
   19MOL    O60 6576   6.637   2.837   4.369  0.1672 -0.3786  0.0456
   19MOL    C61 6577   6.671   2.971   4.377  0.0079 -1.4435  0.1831
   19MOL    C62 6578   6.611   3.056   4.266  0.0252 -0.0845  0.6434
   19MOL    C63 6579   6.721   3.115   4.173 -0.6543  0.1806  0.5007
   19MOL    H64 6580   6.652   2.387   4.444 -0.4407 -0.6387  1.4060
   19MOL    H65 6581   6.805   2.464   4.457 -0.6058  0.4415 -0.4916
   19MOL    H66 6582   6.557   2.622   4.388  0.1163 -0.3623 -1.7872
   19MOL    H67 6583   6.637   3.002   4.476  0.3961  1.6056 -0.6152
   19MOL    H68 6584   6.780   2.981   4.376  0.1039 -2.5003 -0.5443
   19MOL    H69 6585   6.537   2.992   4.218 -0.6074  1.6972 -0.8366
   19MOL    H70 6586   6.545   3.140   4.287  4.2562  3.4450  0.5812
   19MOL    H71 6587   6.788   3.185   4.224 -1.6944  1.0367  0.7082
   19MOL    H72 6588   6.688   3.167   4.083 -0.2019  1.3088  0.9701
   19MOL    H73 6589   6.788   3.041   4.128 -0.3983  0.2096  0.8298
   19MOL    C74 6590   6.654   2.557   4.231  1.4566 -0.5011 -0.1213
   19MOL    C75 6591   6.791   2.511   4.167  0.0341  0.7028  0.6783
   19MOL    C76 6592   6.835   2.366   4.199 -0.5277  0.2554  0.3772
   19MOL    O77 6593   6.939   2.334   4.250  0.4470 -0.2144 -0.1992
   19MOL    O78 6594   6.742   2.281   4.151  0.1963 -0.1398  0.0386
   19MOL    C79 6595   6.751   2.143   4.175 -0.4440 -0.2243 -0.3712
   19MOL    C80 6596   6.677   2.111   4.311  0.4755 -0.2009  0.2296
   19MOL    C81 6597   6.653   1.961   4.326 -0.3270 -0.4149 -0.0171
   19MOL    H82 6598   6.607   2.636   4.174  0.7071 -2.3199 -2.0967
   19MOL    H83 6599   6.587   2.472   4.217  0.2313  0.6266 -1.1423
   19MOL    H84 6600   6.873   2.570   4.208  0.0311 -0.1563  1.9615
   19MOL    H85 6601   6.711   2.081   4.095  0.4056 -0.8337 -0.3282
   19MOL    H86 6602   6.855   2.109   4.170 -1.2253 -2.4803 -1.8697
   19MOL    H87 6603   6.729   2.168   4.388  1.8508 -1.1664  0.0263
   19MOL    H88 6604   6.578   2.157   4.304 -0.9994 -3.2658  0.3531
   19MOL    H89 6605   6.571   1.930   4.391 -0.5840 -0.0935 -0.1841
   19MOL    H90 6606   6.748   1.913   4.347  0.7624  1.4889 -0.4419
   19MOL    H91 6607   6.640   1.915   4.228 -0.2591  1.2465 -0.8296
   19MOL    C92 6608   6.788   2.530   4.007  0.5476 -0.3482 -0.1150
   19MOL    C93 6609   6.805   2.680   3.971  1.2179 -0.2354  0.7316
   19MOL    C94 6610   6.949   2.733   3.993 -0.0639  0.4460  0.1909
   19MOL    O95 6611   7.037   2.700   3.914 -0.0924  0.5108 -0.4374
   19MOL    O96 6612   6.971   2.804   4.106  0.2394 -0.5850  0.1033
   19MOL    C97 6613   7.107   2.819   4.165  0.3737  0.6520  0.2959
   19MOL    C98 6614   7.113   2.719   4.278 -0.4265  0.5915  0.1540
   19MOL    C99 6615   7.258   2.695   4.326 -0.0175 -0.2082  0.5868
   19MOL   H100 6616   6.689   2.500   3.972  0.2873 -1.0763  1.2130
   19MOL   H101 6617   6.857   2.463   3.955 -0.2964 -1.3190 -0.0001
   19MOL   H102 6618   6.737   2.737   4.035  2.6566  1.2336  0.9803
   19MOL   H103 6619   7.180   2.793   4.087  1.5041  3.2409  0.4197
   19MOL   H104 6620   7.126   2.922   4.193  3.8498  0.3324 -0.6215
   19MOL   H105 6621   7.056   2.764   4.359  0.5834 -0.2201  1.3459
   19MOL   H106 6622   7.083   2.622   4.238  0.8763  0.4340 -0.4546
   19MOL   H107 6623   7.258   2.638   4.419 -1.3406  0.2306  0.8596
   19MOL   H108 6624   7.304   2.794   4.323 -0.3801 -0.0630 -3.3288
   19MOL   H109 6625   7.309   2.623   4.261  0.1279  0.5925 -0.1885
   19MOL   C110 6626   6.761   2.708   3.822  0.1609  0.1328  0.0512
   19MOL   C111 6627   6.701   2.843   3.772 -0.0910  0.2176 -0.9323
   19MOL   C112 6628   6.816   2.937   3.737  0.1739 -0.0332  0.2776
   19MOL   O113 6629   6.832   3.040   3.802 -0.7709 -0.1411  0.0162
   19MOL   O114 6630   6.886   2.904   3.629  0.4875  0.4251  0.2068
   19MOL   C115 6631   6.996   2.977   3.584 -0.1739 -0.6180  0.1033
   19MOL   C116 6632   7.130   2.921   3.641 -0.2066  0.1487  0.2751
   19MOL   C117 6633   7.205   2.819   3.556  0.2896 -0.0074  0.1142
   19MOL   H118 6634   6.682   2.634   3.808 -0.0700  0.9293 -3.2654
   19MOL   H119 6635   6.845   2.678   3.760  1.1895  3.1440 -0.1148
   19MOL   H120 6636   6.642   2.897   3.846 -0.9815 -1.1451 -0.6322
   19MOL   H121 6637   6.996   2.990   3.476  2.2957 -0.5910  0.0781
   19MOL   H122 6638   6.978   3.079   3.619  0.8858  0.5164 -2.5470
   19MOL   H123 6639   7.187   3.012   3.662  0.2459 -0.4536  1.6870
   19MOL   H124 6640   7.118   2.874   3.739 -0.1020  2.7044  1.5576
   19MOL   H125 6641   7.145   2.728   3.559  0.7097 -0.2171  2.3734
   19MOL   H126 6642   7.306   2.790   3.584 -0.4331 -0.2119  2.5930
   19MOL   H127 6643   7.205   2.879   3.464 -0.5666 -0.8670 -0.4556
   19MOL   C128 6644   6.606   2.813   3.661  0.1930  0.1474  0.4339
   19MOL   C129 6645   6.546   2.938   3.591  0.2831  0.1263 -0.5716
   19MOL   C130 6646   6.519   2.921   3.439 -0.6392 -0.1858  0.4245
   19MOL   O131 6647   6.612   2.922   3.354  0.5511 -0.2662 -0.3322
   19MOL   O132 6648   6.400   2.872   3.405 -0.6555 -0.5532  0.2018
   19MOL   C133 6649   6.356   2.873   3.272 -0.3393 -0.1208  0.3417
   19MOL   C134 6650   6.323   3.007   3.206 -0.0469 -0.1834  0.0605
   19MOL   C135 6651   6.225   3.096   3.297  0.8918 -0.1913  0.6304
   19MOL   H136 6652   6.531   2.744   3.700  2.3318 -1.0321  2.6269
   19MOL   H137 6653   6.653   2.751   3.584 -1.0889 -0.4908  0.1525
   19MOL   H138 6654   6.631   3.006   3.603  0.8254 -0.8048  0.9249
   19MOL   H139 6655   6.425   2.819   3.207  1.1728  1.0614  0.9198
   19MOL   H140 6656   6.260   2.822   3.270 -0.7117  0.6060 -1.5988
   19MOL   H141 6657   6.412   3.059   3.172  0.5913  0.1342  2.1262
   19MOL   H142 6658   6.270   2.980   3.114  0.6621 -1.8427  0.1075
   19MOL   H143 6659   6.135   3.046   3.333  0.2295  0.3981 -0.1702
   19MOL   H144 6660   6.187   3.173   3.230  1.0908 -1.5228 -1.0734
   19MOL   H145 6661   6.293   3.145   3.366 -1.2032 -0.6205  3.0670
   19MOL   C146 6662   6.423   2.994   3.665  0.0230  0.0270 -0.1892
   19MOL   C147 6663   6.387   3.147   3.653  0.6146  0.0801 -0.9023
   19MOL   C148 6664   6.242   3.179   3.669 -0.1419  0.0638 -0.6333
   19MOL   O149 6665   6.164   3.112   3.738  0.0408  0.1901 -0.5111
   19MOL   O150 6666   6.223   3.294   3.607  0.1875 -0.0587 -0.0830
   19MOL   C151 6667   6.097   3.358   3.605 -0.8431  0.3959 -0.1900
   19MOL   C152 6668   6.027   3.344   3.470  0.6280 -0.1753 -0.7341
   19MOL   C153 6669   6.114   3.414   3.358 -0.0728  0.3260 -0.0328
   19MOL   H154 6670   6.440   2.964   3.768 -1.4794 -0.9386 -0.2061
   19MOL   H155 6671   6.329   2.949   3.634 -0.8492  0.1309  2.2019
   19MOL   H156 6672   6.394   3.160   3.545 -3.6466  2.3500 -1.0010
   19MOL   H157 6673   6.036   3.305   3.678  1.1112 -1.9565 -0.2012
   19MOL   H158 6674   6.115   3.460   3.638  1.8894  0.0150 -0.3851
   19MOL   H159 6675   6.004   3.239   3.452 -1.2349 -0.1352  1.0937
   19MOL   H160 6676   5.932   3.395   3.491  0.2618 -0.2586 -2.1699
   19MOL   H161 6677   6.147   3.514   3.387  0.3431 -0.2230  1.4451
   19MOL   H162 6678   6.057   3.425   3.266 -0.5921 -1.4104  0.0745
   19MOL   H163 6679   6.200   3.352   3.332 -0.8669 -1.0320  0.5309
   19MOL   C164 6680   6.487   3.229   3.738 -0.1553  0.2665  0.0831
   19MOL   C165 6681   6.575   3.332   3.661  0.1008 -0.5010 -0.2623
   19MOL   C166 6682   6.622   3.444   3.754 -0.3936 -0.1177  0.4673
   19MOL   O167 6683   6.627   3.562   3.730  0.6222  0.3993 -0.2950
   19MOL   O168 6684   6.657   3.395   3.873  0.3081 -0.1972  0.1501
   19MOL   C169 6685   6.709   3.472   3.983 -0.0375 -0.2788 -0.1332
   19MOL   C170 6686   6.862   3.490   3.967  0.1164  0.4802 -0.7168
   19MOL   C171 6687   6.937   3.354   3.984  0.7248  0.5573 -0.2659
   19MOL   H172 6688   6.545   3.162   3.801 -1.2386  1.0755  1.9925
   19MOL   H173 6689   6.427   3.283   3.812  0.2302  1.0873 -0.2028
   19MOL   H174 6690   6.518   3.377   3.580  0.0993  0.3873  0.2321
   19MOL   H175 6691   6.657   3.568   3.983  2.4129  1.0865 -0.8981
   19MOL   H176 6692   6.672   3.410   4.065 -2.8235  3.4681  1.5888
   19MOL   H177 6693   6.883   3.528   3.867 -1.0618 -0.0965 -1.1829
   19MOL   H178 6694   6.897   3.560   4.043 -1.7500 -0.8467  1.4138
   19MOL   H179 6695   6.928   3.302   4.079  2.5170 -2.9942 -1.9431
   19MOL   H180 6696   7.046   3.359   3.995  0.5601 -0.3435  1.9982
   19MOL   H181 6697   6.910   3.280   3.909 -2.4113 -0.0924  1.4388
   19MOL   C182 6698   6.689   3.275   3.575  0.1262  0.3462  0.3000
   19MOL   C183 6699   6.779   3.390   3.503  0.2996 -0.2305 -0.4349
   19MOL   C184 6700   6.900   3.437   3.593  0.4398  0.5919 -0.0134
   19MOL   O185 6701   6.916   3.549   3.630 -0.3439  0.0302 -0.5786
   19MOL   O186 6702   6.981   3.333   3.606 -0.2766 -0.0256  0.1664
   19MOL   C187 6703   7.099   3.356   3.678  0.5835  1.1359 -0.8791
   19MOL   C188 6704   7.221   3.368   3.600  0.0184  0.0840 -0.3865
   19MOL   C189 6705   7.243   3.242   3.508 -0.6143 -0.1346 -0.5408
   19MOL   H190 6706   6.640   3.204   3.509  1.8908 -2.2604  1.7009
   19MOL   H191 6707   6.748   3.210   3.640 -0.0786 -1.9160 -1.6847
   19MOL   H192 6708   6.708   3.470   3.481  0.0651 -0.0776  0.8414
   19MOL   H193 6709   7.085   3.440   3.747 -0.2825 -0.2180  0.6358
   19MOL   H194 6710   7.104   3.269   3.744 -2.9943  1.1686 -0.4692
   19MOL   H195 6711   7.205   3.446   3.526  3.4489  1.3069  0.0649
   19MOL   H196 6712   7.308   3.393   3.662 -0.6822 -0.8502  0.9965
   19MOL   H197 6713   7.144   3.198   3.496 -1.0890  0.6058  0.5445
   19MOL   H198 6714   7.287   3.157   3.560 -0.5132  0.2023 -0.0811
   19MOL   H199 6715   7.281   3.274   3.411 -0.4887 -0.4957 -0.6136
   19MOL   C200 6716   6.822   3.350   3.360 -0.2237  0.4552 -0.2148
   19MOL   C201 6717   6.801   3.449   3.248 -0.6748 -0.8216 -0.0144
   19MOL   C202 6718   6.649   3.483   3.235 -0.4721  0.1628 -0.0146
   19MOL   O203 6719   6.606   3.592   3.271  0.4274  0.0754  0.4505
   19MOL   O204 6720   6.575   3.381   3.174  0.6751 -0.3623 -0.2483
   19MOL   C205 6721   6.443   3.400   3.123  0.1480  0.2829  0.0882
   19MOL   C206 6722   6.448   3.390   2.971  0.5186 -0.2371 -0.0549
   19MOL   C207 6723   6.312   3.378   2.893  0.1205 -0.1480 -0.0914
   19MOL   H208 6724   6.766   3.259   3.337 -0.2776  0.1087  1.2795
   19MOL   H209 6725   6.927   3.326   3.374 -0.5805 -0.1156  1.6071
   19MOL   H210 6726   6.824   3.389   3.160  1.5246  1.5220 -1.0813
   19MOL   H211 6727   6.372   3.324   3.156  2.0087 -1.6871 -0.3776
   19MOL   H212 6728   6.398   3.498   3.142  1.3841  1.2471 -1.7761
   19MOL   H213 6729   6.512   3.471   2.936  0.5622 -0.5764 -0.7736
   19MOL   H214 6730   6.496   3.292   2.959  1.2450  0.1597 -0.4558
   19MOL   H215 6731   6.262   3.470   2.861  0.6200 -0.1180 -0.7773
   19MOL   H216 6732   6.226   3.336   2.945 -1.6160  3.3300  0.0083
   19MOL   H217 6733   6.330   3.327   2.799 -1.9757  0.1773 -0.6921
   19MOL   C218 6734   6.889   3.579   3.243 -0.2741  0.2736 -0.3926
   19MOL   C219 6735   7.040   3.557   3.221 -0.2894  0.2754  0.8049
   19MOL   C220 6736   7.075   3.457   3.112 -0.5072  0.3532  0.2799
   19MOL   O221 6737   7.164   3.375   3.126  0.0738 -0.0545 -0.0986
   19MOL   O222 6738   6.999   3.473   3.000 -0.0938  0.3864 -0.1810
   19MOL   C223 6739   7.017   3.390   2.889  0.4338  0.8099 -0.0232
   19MOL   C224 6740   6.893   3.305   2.876  0.1799  1.1768 -0.5460
   19MOL   C225 6741   6.890   3.181   2.966  0.5405 -0.1074 -0.1834
   19MOL   H226 6742   6.867   3.631   3.336 -0.3089 -0.8168  0.2227
   19MOL   H227 6743   6.856   3.649   3.166 -0.1777  0.0521 -0.6353
   19MOL   H228 6744   7.082   3.521   3.314 -1.0692  1.7527  1.7483
   19MOL   H229 6745   7.016   3.447   2.796  0.7812  0.3477 -0.3122
   19MOL   H230 6746   7.108   3.329   2.890  0.5662  1.0061 -0.0808
   19MOL   H231 6747   6.802   3.363   2.893  0.1518  0.7839  0.6606
   19MOL   H232 6748   6.890   3.269   2.773 -1.8441 -0.7688  0.1593
   19MOL   H233 6749   6.902   3.201   3.072  1.3924 -1.6335  0.0255
   19MOL   H234 6750   6.957   3.100   2.938  1.3545  1.0587 -1.6590
   19MOL   H235 6751   6.790   3.139   2.958  0.8093 -1.1070  1.4341
   19MOL   C236 6752   7.111   3.693   3.197  0.0025 -0.0757  0.6691
   19MOL   C237 6753   7.263   3.675   3.188 -0.6207 -0.4934 -0.0232
   19MOL   C238 6754   7.334   3.772   3.092  0.6879  0.1448 -0.0479
   19MOL   O239 6755   7.356   3.743   2.974  0.9292  0.4815 -0.4782
   19MOL   O240 6756   7.375   3.883   3.151 -0.9369  0.1154 -0.2885
   19MOL   C241 6757   7.440   3.981   3.074 -0.7864  0.3093 -0.1500
   19MOL   C242 6758   7.590   3.955   3.059  0.3829  0.3976  0.0626
   19MOL   C243 6759   7.673   3.945   3.191  0.0298  0.2297  0.3896
   19MOL   H244 6760   7.081   3.758   3.279  0.2681  2.5694 -1.2470
   19MOL   H245 6761   7.062   3.739   3.111  0.6816  0.2238  0.4442
   19MOL   H246 6762   7.286   3.582   3.134 -0.7071  0.6096 -2.0126
   19MOL   H247 6763   7.389   4.004   2.980 -0.6333  3.4357  0.4524
   19MOL   H248 6764   7.424   4.068   3.138 -1.6989 -1.0699  1.5231
   19MOL   H249 6765   7.594   3.863   3.001 -2.1833 -0.4627  1.2110
   19MOL   H250 6766   7.638   4.032   2.997  0.0910  0.5198 -0.0095
   19MOL   H251 6767   7.611   3.908   3.273  0.4578  1.4509  1.2789
   19MOL   H252 6768   7.703   4.044   3.226 -0.5113  0.6828 -0.4260
   19MOL   H253 6769   7.764   3.891   3.164 -1.0999 -1.1641 -0.7007
   19MOL   C254 6770   7.330   3.686   3.335 -0.2398  0.1338 -0.0280
   19MOL   C255 6771   7.471   3.632   3.344 -0.1965 -0.0891 -0.2719
   19MOL   C256 6772   7.524   3.656   3.487  0.4825 -0.2166  0.5517
   19MOL   O257 6773   7.462   3.708   3.578 -0.2867 -0.3342  0.0821
   19MOL   O258 6774   7.657   3.614   3.493 -0.4269 -0.1068  0.3305
   19MOL   C259 6775   7.723   3.632   3.619 -0.5497 -0.3735 -0.5629
   19MOL   C260 6776   7.871   3.617   3.595  0.1776  0.5017  0.1405
   19MOL   C261 6777   0.069   3.624   3.727  0.5227  0.3596 -0.1008
   19MOL   H262 6778   7.268   3.631   3.405  0.0492  0.0286  0.1454
   19MOL   H263 6779   7.340   3.791   3.361 -1.2147  0.8063 -2.2353
   19MOL   H264 6780   7.542   3.693   3.287  0.0062 -0.1794 -0.1157
   19MOL   H265 6781   7.706   3.732   3.658 -0.0664 -0.1321 -0.9711
   19MOL   H266 6782   7.691   3.557   3.692  1.2818 -1.3815 -0.7636
   19MOL   H267 6783   0.020   3.522   3.549 -2.3829 -0.3427  0.1698
   19MOL   H268 6784   0.020   3.701   3.532 -2.4966  0.8515 -0.6979
   19MOL   H269 6785   0.033   3.717   3.770 -2.0254 -0.1377 -1.1011
   19MOL   H270 6786   0.176   3.642   3.711  0.0776  3.3331  0.0435
   19MOL   H271 6787   0.067   3.532   3.786  1.5841  1.2056  1.2962
   19MOL   C272 6788   7.488   3.483   3.304 -0.2573  0.2723 -0.8505
   19MOL   C273 6789   7.549   3.464   3.160  0.2383  0.0291 -1.1086
   19MOL   C274 6790   7.692   3.518   3.155  0.6228  0.2065  0.3493
   19MOL   O275 6791   7.723   3.634   3.118 -0.1522 -0.4692 -0.2529
   19MOL   O276 6792   7.773   3.435   3.207  0.6906 -0.2052  0.0648
   19MOL   C277 6793   0.024   3.464   3.238  0.0475 -0.6641 -0.1283
   19MOL   C278 6794   0.097   3.338   3.265 -1.2508 -0.1334  0.4381
   19MOL   C279 6795   0.026   3.232   3.355  0.7037 -0.0508 -0.0700
   19MOL   H280 6796   7.392   3.433   3.307 -0.2457  0.2639 -0.6205
   19MOL   H281 6797   7.565   3.430   3.361 -1.7776 -2.2229 -1.0636
   19MOL   H282 6798   7.496   3.541   3.104  1.3807  2.3744  0.9423
   19MOL   H283 6799   0.074   3.517   3.156  0.9737 -0.2818  0.6813
   19MOL   H284 6800   0.031   3.530   3.324 -0.2283  0.0704 -0.6543
   19MOL   H285 6801   0.109   3.286   3.170 -3.6235 -0.6500  0.3898
   19MOL   H286 6802   0.191   3.365   3.314 -1.1088 -0.1036  0.1484
   19MOL   H287 6803   7.815   3.204   3.302  0.7619 -0.4402  0.0394
   19MOL   H288 6804   0.010   3.284   3.449 -1.2942 -1.4529  0.3800
   19MOL   H289 6805   0.091   3.146   3.367  0.7030 -0.0479 -0.0475
   19MOL   C290 6806   7.536   3.329   3.097 -0.3082  0.6693 -0.8582
   19MOL   C291 6807   7.562   3.331   2.945 -0.6593 -0.0200 -0.4104
   19MOL   C292 6808   7.562   3.190   2.888 -0.2600  0.3856 -0.6486
   19MOL   O293 6809   7.656   3.144   2.826  0.6318 -0.6454 -0.1153
   19MOL   O294 6810   7.453   3.119   2.923  0.8713 -0.6518 -0.1572
   19MOL   C295 6811   7.425   2.991   2.865  0.4274  0.0374  0.5013
   19MOL   C296 6812   7.276   2.958   2.900  0.7572 -0.5894  0.3020
   19MOL   C297 6813   7.220   2.990   3.031 -0.1837  0.9267 -0.3584
   19MOL   H298 6814   7.433   3.297   3.108 -0.5354  1.2365 -1.3194
   19MOL   H299 6815   7.598   3.264   3.160  0.7378  2.1588 -0.3288
   19MOL   H300 6816   7.665   3.364   2.933 -0.0870 -0.4185  2.9487
   19MOL   H301 6817   7.444   2.992   2.758  1.6821 -1.4769  0.6836
   19MOL   H302 6818   7.499   2.919   2.901  0.0520 -0.3644  0.4717
   19MOL   H303 6819   7.219   3.008   2.822 -0.3376  1.4344  2.3515
   19MOL   H304 6820   7.265   2.852   2.876 -2.5482  0.0683 -1.4779
   19MOL   H305 6821   7.208   3.093   3.066  0.1325  0.3530  1.4585
   19MOL   H306 6822   7.288   2.937   3.097 -0.3494 -0.8578 -1.5833
   19MOL   H307 6823   7.118   2.954   3.044  0.3896 -0.8193 -0.6296
   19MOL   C308 6824   7.459   3.417   2.863  0.1941  0.1604  0.1184
   19MOL   C309 6825   7.507   3.454   2.717 -0.0776  0.2092  0.5776
   19MOL   C310 6826   7.392   3.513   2.630 -0.8320 -0.1587 -0.9883
   19MOL   O311 6827   7.369   3.461   2.519 -0.2086  0.4278 -0.5030
   19MOL   O312 6828   7.321   3.611   2.685 -0.4036 -0.7245  0.5438
   19MOL   C313 6829   7.198   3.646   2.619  0.2803  0.2022  0.3904
   19MOL   C314 6830   7.127   3.750   2.708  0.6486 -0.0840  0.0352
   19MOL   C315 6831   6.994   3.813   2.652  0.2076  0.1364  0.4072
   19MOL   H316 6832   7.438   3.514   2.907 -1.9866  0.6190 -1.8696
   19MOL   H317 6833   7.363   3.366   2.864 -0.0214  0.5421  2.8888
   19MOL   H318 6834   7.536   3.363   2.665  3.1972  1.8397 -0.5592
   19MOL   H319 6835   7.211   3.686   2.519 -1.1059  1.1074  0.5493
   19MOL   H320 6836   7.142   3.553   2.609  0.2478  0.0902  1.4959
   19MOL   H321 6837   7.104   3.706   2.805  0.7649  0.6843  0.4105
   19MOL   H322 6838   7.189   3.838   2.727 -0.2047  0.5849 -0.2573
   19MOL   H323 6839   6.968   3.883   2.731 -0.7038 -1.2820  1.3859
   19MOL   H324 6840   7.006   3.873   2.561  0.3998 -1.1717 -0.4399
   19MOL   H325 6841   6.921   3.733   2.639 -0.1214  0.5385 -0.2537
   19MOL   C326 6842   7.622   3.552   2.720 -0.3261 -0.3820  0.3108
   19MOL   C327 6843   7.701   3.576   2.582 -0.0078 -0.3027  0.4160
   19MOL   C328 6844   7.641   3.694   2.495  0.2456 -0.2246  0.1376
   19MOL   O329 6845   7.597   3.678   2.377  0.2415 -0.0879 -0.3032
   19MOL   O330 6846   7.627   3.824   2.565  0.2962  0.2899 -0.0786
   19MOL   C331 6847   7.573   3.940   2.504  0.5262  0.0565  0.2128
   19MOL   C332 6848   7.579   4.069   2.587 -0.0563 -1.1201  0.8158
   19MOL   C333 6849   7.534   4.045   2.737  0.1797 -0.1725 -0.1219
   19MOL   H334 6850   7.694   3.517   2.795 -1.4069 -1.9951  0.6069
   19MOL   H335 6851   7.588   3.644   2.768  0.5414 -0.4566  1.1015
   19MOL   H336 6852   7.690   3.489   2.518 -0.1333 -0.7181  0.9930
   19MOL   H337 6853   7.612   3.939   2.402 -1.0194  1.0908 -0.4149
   19MOL   H338 6854   7.468   3.914   2.490  0.7260 -0.5806 -0.1223
   19MOL   H339 6855   7.681   4.106   2.589 -0.4776  0.1919 -0.3994
   19MOL   H340 6856   7.520   4.153   2.550 -0.6201 -0.9054  2.1637
   19MOL   H341 6857   7.430   4.018   2.754 -1.0068  4.1474  0.1075
   19MOL   H342 6858   7.591   3.960   2.774  1.1255  0.3765 -0.2955
   19MOL   H343 6859   7.547   4.131   2.802 -0.2758 -0.7635  0.7485
   19MOL   C344 6860   7.850   3.604   2.611 -0.8448  0.6094  0.4086
   19MOL   C345 6861   0.060   3.615   2.488 -0.0309  0.4128  0.3499
   19MOL   C346 6862   0.078   3.486   2.410 -0.9997 -0.3235 -0.3754
   19MOL   O347 6863   0.038   3.469   2.297 -0.0273  0.5101  0.2595
   19MOL   O348 6864   0.137   3.391   2.486 -0.3524  0.4889  0.0390
   19MOL   C349 6865   0.156   3.256   2.441  0.2115  0.2698 -0.0263
   19MOL   C350 6866   0.024   3.176   2.435 -0.0382 -0.1232 -0.6181
   19MOL   C351 6867   7.829   3.164   2.569  0.1248 -0.1380  0.5934
   19MOL   H352 6868   0.005   3.516   2.665 -0.2924  1.4702  1.4568
   19MOL   H353 6869   7.860   3.686   2.682  0.7537  1.5238 -0.8502
   19MOL   H354 6870   0.158   3.637   2.529  0.3625 -1.2280  0.3163
   19MOL   H355 6871   0.198   3.262   2.340 -0.2822  1.0827 -0.1940
   19MOL   H356 6872   0.238   3.216   2.500  0.4081 -1.6436 -1.5362
   19MOL   H357 6873   7.839   3.227   2.363 -2.3412 -0.9863  0.8307
   19MOL   H358 6874   0.059   3.080   2.398 -0.1097 -0.7185  0.8500
   19MOL   H359 6875   7.848   3.068   2.616  0.7615 -1.5754 -2.4649
   19MOL   H360 6876   7.847   3.252   2.632  2.8937 -0.2794  0.0838
   19MOL   H361 6877   7.721   3.161   2.565 -0.0741  1.7147  3.0365
   19MOL   H362 6878   0.032   3.699   2.424  1.0440  1.2334  0.9441
   20MOL     C1 6879   6.983   4.819   3.177  0.2119 -0.4000  0.0805
   20MOL     C2 6880   6.917   4.947   3.132  0.5470 -0.1070 -0.0377
   20MOL     C3 6881   6.982   5.072   3.199  0.9301 -0.4534 -0.3655
   20MOL     O4 6882   7.053   5.152   3.137 -0.3247  0.1494 -0.4343
   20MOL     O5 6883   6.955   5.076   3.328  0.3938 -0.3942  0.2082
   20MOL     C6 6884   7.023   5.165   3.411  0.2995 -0.4265  0.0952
   20MOL     C7 6885   7.144   5.088   3.482  0.2747 -0.1181 -0.6224
   20MOL     C8 6886   7.272   5.063   3.406 -0.1794  0.4793  0.1970
   20MOL     H9 6887   7.082   4.831   3.220  0.4399  0.6815 -0.7299
   20MOL    H10 6888   6.925   4.784   3.262  1.0723 -0.6625  0.5626
   20MOL    H11 6889   6.812   4.942   3.159  0.1564 -0.3147 -1.5477
   20MOL    H12 6890   7.055   5.257   3.363  1.5445  0.7327  3.0210
   20MOL    H13 6891   6.953   5.205   3.485  2.2272 -0.4459  1.9800
   20MOL    H14 6892   7.174   5.160   3.557 -1.9974  0.0302  0.1979
   20MOL    H15 6893   7.105   4.997   3.529  1.6005 -0.1167  0.4918
   20MOL    H16 6894   7.347   5.059   3.486  0.0072  2.4347  0.1426
   20MOL    H17 6895   7.276   4.964   3.362  1.0984  1.4535 -1.9576
   20MOL    H18 6896   7.296   5.142   3.335  0.0833 -1.1779 -1.5855
   20MOL    H19 6897   6.987   4.734   3.108  0.8280 -0.6095  0.3711
   20MOL    C20 6898   6.915   4.953   2.976 -0.3739 -0.5161 -0.0625
   20MOL    C21 6899   6.830   5.061   2.916 -0.3013 -0.1361  0.3523
   20MOL    C22 6900   6.862   5.070   2.768 -0.5980 -0.2215 -0.5579
   20MOL    O23 6901   6.790   5.023   2.679 -0.2769 -0.0977 -0.5203
   20MOL    O24 6902   6.963   5.144   2.747 -0.0521 -0.0530 -0.2984
   20MOL    C25 6903   7.045   5.126   2.633 -0.2382 -1.0327 -0.0151
   20MOL    C26 6904   7.181   5.189   2.636  0.1259  0.3490  0.8912
   20MOL    C27 6905   7.260   5.163   2.766  0.8267 -0.4131 -0.2545
   20MOL    H28 6906   6.882   4.859   2.932 -0.9455 -0.8930  1.1460
   20MOL    H29 6907   7.018   4.951   2.941 -0.8390 -0.8345 -1.4490
   20MOL    H30 6908   6.856   5.154   2.968  3.4716 -0.5552 -0.6668
   20MOL    H31 6909   7.061   5.022   2.604  0.9213 -0.5717 -1.1044
   20MOL    H32 6910   6.990   5.160   2.545  2.9688  1.0356 -1.3068
   20MOL    H33 6911   7.232   5.159   2.545  1.2290  3.6297  0.3362
   20MOL    H34 6912   7.174   5.294   2.607  1.0390  0.3670  0.7121
   20MOL    H35 6913   7.369   5.167   2.761  0.6835  1.2646 -3.6025
   20MOL    H36 6914   7.237   5.066   2.809 -0.1074 -0.9310 -1.9174
   20MOL    H37 6915   7.235   5.235   2.844 -3.5844  0.4117 -2.2789
   20MOL    C38 6916   6.678   5.035   2.936 -0.9957 -0.0125  0.1031
   20MOL    C39 6917   6.585   5.159   2.980 -0.1421 -0.8727  0.0599
   20MOL    C40 6918   6.616   5.202   3.129  0.3979 -0.1170 -0.2925
   20MOL    O41 6919   6.567   5.141   3.224 -0.1548 -0.0346 -0.4040
   20MOL    O42 6920   6.704   5.304   3.140  0.2431 -0.5017  0.6033
   20MOL    C43 6921   6.736   5.353   3.268  0.3649  0.4223 -0.3504
   20MOL    C44 6922   6.802   5.486   3.256  0.1450  0.2538 -0.4453
   20MOL    C45 6923   6.717   5.611   3.197  0.4332  0.0717  0.8474
   20MOL    H46 6924   6.666   4.965   3.020  1.5539 -1.0905 -0.3608
   20MOL    H47 6925   6.636   4.986   2.848 -0.9998 -2.3004  1.3291
   20MOL    H48 6926   6.484   5.117   2.975  0.2545 -2.2430  2.7454
   20MOL    H49 6927   6.643   5.349   3.324 -0.1439 -0.8330 -1.2638
   20MOL    H50 6928   6.811   5.286   3.310 -0.5288 -1.8498 -2.3029
   20MOL    H51 6929   6.823   5.529   3.355 -2.7688  1.5501 -0.3242
   20MOL    H52 6930   6.896   5.475   3.204  0.8685  3.4043  0.0660
   20MOL    H53 6931   6.692   5.588   3.093  4.0550 -0.0149 -0.0840
   20MOL    H54 6932   6.780   5.700   3.190 -0.1254  0.3992 -0.0846
   20MOL    H55 6933   6.633   5.632   3.262  0.2433 -0.7229  0.8611
   20MOL    C56 6934   6.596   5.279   2.884 -0.3069 -0.1376 -0.4678
   20MOL    C57 6935   6.465   5.360   2.841 -0.1134 -0.0625 -0.1195
   20MOL    C58 6936   6.386   5.407   2.968  0.0898 -0.3340 -0.2432
   20MOL    O59 6937   6.294   5.339   3.016 -0.2341 -0.3610 -0.1289
   20MOL    O60 6938   6.429   5.526   3.016  0.2355  0.0594  0.0280
   20MOL    C61 6939   6.347   5.609   3.096 -0.4241 -0.9445 -0.7585
   20MOL    C62 6940   6.380   5.756   3.076 -0.2671  0.7862 -0.2587
   20MOL    C63 6941   6.358   5.821   2.939  0.7384 -0.0967 -0.1463
   20MOL    H64 6942   6.632   5.240   2.789 -0.6257  1.8916 -1.4456
   20MOL    H65 6943   6.672   5.352   2.915 -0.4052 -0.6804  1.0920
   20MOL    H66 6944   6.392   5.297   2.790  1.5332 -0.1227 -2.4673
   20MOL    H67 6945   6.244   5.598   3.061 -0.5762  0.4968 -0.8070
   20MOL    H68 6946   6.348   5.577   3.200  0.2457  0.5636 -0.2902
   20MOL    H69 6947   6.327   5.805   3.158 -1.2252  1.4034 -1.2473
   20MOL    H70 6948   6.486   5.772   3.094  0.2127 -1.8422 -0.5086
   20MOL    H71 6949   6.411   5.760   2.866  1.3885 -0.2190  0.4242
   20MOL    H72 6950   6.387   5.926   2.933 -0.0429  0.0989 -0.5912
   20MOL    H73 6951   6.254   5.819   2.909  0.3307  0.4167  1.1940
   20MOL    C74 6952   6.512   5.481   2.757 -0.5484  0.0851  0.6701
   20MOL    C75 6953   6.576   5.453   2.616  0.4085 -0.1454 -0.2559
   20MOL    C76 6954   6.476   5.373   2.533 -0.3311 -0.3328 -0.4127
   20MOL    O77 6955   6.375   5.431   2.493  0.3366 -0.4679 -0.0664
   20MOL    O78 6956   6.509   5.244   2.517 -0.4100 -0.0379  0.1076
   20MOL    C79 6957   6.444   5.157   2.424 -0.3247 -0.3018  0.2495
   20MOL    C80 6958   6.361   5.054   2.493  1.1738  0.4753 -0.1899
   20MOL    C81 6959   6.230   5.105   2.557 -0.1935 -0.2806  0.2252
   20MOL    H82 6960   6.586   5.539   2.812 -0.5819 -2.0333  3.0260
   20MOL    H83 6961   6.433   5.553   2.734  0.1990  0.1698 -1.8136
   20MOL    H84 6962   6.662   5.386   2.621  0.5554 -0.3150 -3.6317
   20MOL    H85 6963   6.375   5.219   2.366  1.7662  1.2213 -0.6867
   20MOL    H86 6964   6.530   5.128   2.364  0.4275  1.2398  0.5736
   20MOL    H87 6965   6.334   4.978   2.419  1.6597  3.3043 -3.4412
   20MOL    H88 6966   6.424   5.019   2.574 -0.3643  1.8471  1.6526
   20MOL    H89 6967   6.244   5.180   2.635  1.2534 -0.6632  0.3538
   20MOL    H90 6968   6.171   5.019   2.588 -2.7260  0.6135 -1.9634
   20MOL    H91 6969   6.169   5.153   2.480 -1.1474  0.9557  1.7339
   20MOL    C92 6970   6.612   5.586   2.541  0.1600 -0.2945 -0.0208
   20MOL    C93 6971   6.729   5.601   2.436  0.2906  0.6250 -0.2776
   20MOL    C94 6972   6.859   5.527   2.476  0.2960 -0.3902 -0.5637
   20MOL    O95 6973   6.902   5.431   2.412 -0.0112 -0.2787 -0.6311
   20MOL    O96 6974   6.912   5.576   2.592 -0.2591  0.3254 -0.1179
   20MOL    C97 6975   7.015   5.513   2.660  0.3029  0.4083  0.2508
   20MOL    C98 6976   7.005   5.563   2.803  0.1978 -0.4125 -0.0749
   20MOL    C99 6977   6.883   5.502   2.881 -0.3187 -0.3686  0.0026
   20MOL   H100 6978   6.645   5.654   2.620 -0.3240  1.2438 -1.1085
   20MOL   H101 6979   6.520   5.632   2.503  0.5823  0.0068 -0.6936
   20MOL   H102 6980   6.744   5.709   2.439 -1.1480  0.8276  0.0604
   20MOL   H103 6981   7.013   5.404   2.654  0.2895  0.4997 -2.0001
   20MOL   H104 6982   7.108   5.547   2.614 -0.5557  1.0970 -0.9966
   20MOL   H105 6983   7.107   5.548   2.840  0.7480  0.9677 -0.9884
   20MOL   H106 6984   6.988   5.670   2.797 -0.4529 -0.3506  2.4635
   20MOL   H107 6985   6.786   5.541   2.851  0.3131  1.7074  0.6117
   20MOL   H108 6986   6.900   5.519   2.987  2.0920 -0.2856 -0.3597
   20MOL   H109 6987   6.885   5.395   2.859 -0.9313 -0.3689 -0.0490
   20MOL   C110 6988   6.682   5.547   2.291  0.3026  0.4955 -0.4843
   20MOL   C111 6989   6.570   5.627   2.231 -0.1398  0.0113 -0.0814
   20MOL   C112 6990   6.583   5.781   2.246 -1.1031 -0.2925 -0.2906
   20MOL   O113 6991   6.680   5.843   2.190 -0.1835  0.6998 -0.2610
   20MOL   O114 6992   6.479   5.845   2.312  0.2409 -0.0479  0.0182
   20MOL   C115 6993   6.492   5.977   2.360 -0.1162 -0.0233  0.4060
   20MOL   C116 6994   6.521   5.984   2.510 -0.1478 -0.6606 -0.1476
   20MOL   C117 6995   6.401   5.944   2.597 -0.3718 -0.0371  0.3635
   20MOL   H118 6996   6.664   5.441   2.309  0.4818  0.2857 -1.5206
   20MOL   H119 6997   6.758   5.559   2.214  0.5690 -0.5035 -0.3848
   20MOL   H120 6998   6.479   5.600   2.284 -0.0576  1.3887  0.7968
   20MOL   H121 6999   6.568   6.036   2.310 -1.7759 -0.4969 -2.7985
   20MOL   H122 7000   6.398   6.025   2.337  1.0753  2.3390  0.3516
   20MOL   H123 7001   6.607   5.920   2.534  0.4895  0.4393  0.5455
   20MOL   H124 7002   6.542   6.089   2.531 -3.0519  0.1632 -1.2192
   20MOL   H125 7003   6.426   5.959   2.702 -0.8356  0.4542  0.4074
   20MOL   H126 7004   6.387   5.837   2.581  0.6220 -0.4598  2.1338
   20MOL   H127 7005   6.313   6.001   2.568  1.7809  2.4496 -1.5449
   20MOL   C128 7006   6.540   5.595   2.083 -0.7379 -0.4045  0.0300
   20MOL   C129 7007   6.532   5.445   2.042 -0.2073  0.3568 -0.2345
   20MOL   C130 7008   6.398   5.379   2.077  0.1812 -0.0102 -0.4020
   20MOL   O131 7009   6.398   5.261   2.112  0.4146  0.5850 -0.4103
   20MOL   O132 7010   6.285   5.446   2.060 -0.3846  0.6971 -0.2257
   20MOL   C133 7011   6.160   5.388   2.092 -0.1045 -0.9563  0.1382
   20MOL   C134 7012   6.111   5.418   2.230 -0.1283 -0.2934 -0.1126
   20MOL   C135 7013   6.105   5.570   2.267  0.9362 -0.1154 -0.2356
   20MOL   H136 7014   6.609   5.653   2.022 -3.5404  1.1294 -1.7590
   20MOL   H137 7015   6.446   5.643   2.059 -0.2926 -0.0604 -1.0297
   20MOL   H138 7016   6.614   5.384   2.081  0.0422  0.1105 -1.1309
   20MOL   H139 7017   6.089   5.440   2.029 -1.0716 -1.5310  0.7382
   20MOL   H140 7018   6.162   5.282   2.064  2.6371 -0.7094 -0.7427
   20MOL   H141 7019   6.008   5.381   2.237 -0.8708  1.5061 -1.3145
   20MOL   H142 7020   6.164   5.361   2.306 -0.0559 -1.1317 -0.7798
   20MOL   H143 7021   6.045   5.625   2.195 -0.7625 -1.8528 -0.2003
   20MOL   H144 7022   6.199   5.621   2.286  1.6027 -0.2305 -3.0661
   20MOL   H145 7023   6.050   5.588   2.360  1.4242  0.1104  0.0105
   20MOL   C146 7024   6.546   5.431   1.892 -0.3901 -0.5684 -0.1443
   20MOL   C147 7025   6.676   5.475   1.831 -0.0189  0.2620 -0.3874
   20MOL   C148 7026   6.778   5.368   1.871 -0.3966  0.1253 -0.3671
   20MOL   O149 7027   6.811   5.280   1.796 -0.0797 -0.0571  0.3421
   20MOL   O150 7028   6.821   5.392   1.993  0.4002  0.3714 -0.4997
   20MOL   C151 7029   6.914   5.301   2.053 -0.2769  0.0658  0.2968
   20MOL   C152 7030   6.846   5.178   2.115 -0.4386 -0.3468 -0.1286
   20MOL   C153 7031   6.944   5.104   2.220  0.0549  0.1861 -0.2219
   20MOL   H154 7032   6.461   5.485   1.851 -0.7509 -2.4386 -1.9413
   20MOL   H155 7033   6.522   5.330   1.858 -0.6406 -1.2773  2.0513
   20MOL   H156 7034   6.718   5.565   1.876  0.3561  0.1497 -0.5056
   20MOL   H157 7035   6.987   5.267   1.979  1.0973  2.0672  0.7042
   20MOL   H158 7036   6.989   5.343   2.119 -0.2123  0.4434 -0.0151
   20MOL   H159 7037   6.760   5.210   2.173 -0.8774 -1.4599 -0.1638
   20MOL   H160 7038   6.813   5.112   2.034 -1.7570 -1.8972  1.6335
   20MOL   H161 7039   6.889   5.021   2.265 -0.8141  1.6789  1.4947
   20MOL   H162 7040   6.963   5.174   2.301 -0.7380  0.8946 -0.6324
   20MOL   H163 7041   7.040   5.065   2.186  1.2692  2.7866  0.0881
   20MOL   C164 7042   6.664   5.493   1.681 -0.1716  0.3407 -0.4149
   20MOL   C165 7043   6.610   5.628   1.632 -0.5092 -0.0174 -0.5448
   20MOL   C166 7044   6.666   5.747   1.707  0.3740  0.0785  0.1236
   20MOL   O167 7045   6.600   5.845   1.734  0.1751 -0.0745  0.4060
   20MOL   O168 7046   6.800   5.735   1.735  0.3397 -0.7243  0.0491
   20MOL   C169 7047   6.858   5.845   1.800  0.0255  0.2336  0.2818
   20MOL   C170 7048   6.998   5.813   1.860  0.1768  0.0639  0.6608
   20MOL   C171 7049   6.993   5.708   1.966  0.1112  0.0887  0.7448
   20MOL   H172 7050   6.589   5.423   1.643 -0.6180  0.5660  0.0382
   20MOL   H173 7051   6.758   5.464   1.635 -0.7467  0.7603 -1.9124
   20MOL   H174 7052   6.504   5.626   1.655  0.1760  0.6184  3.0962
   20MOL   H175 7053   6.870   5.931   1.734 -2.8144 -0.5930 -1.3868
   20MOL   H176 7054   6.793   5.889   1.875  0.5074  0.4239  0.5953
   20MOL   H177 7055   7.075   5.783   1.789 -0.3775 -2.1437  0.9327
   20MOL   H178 7056   7.039   5.907   1.895 -1.5665  1.0875 -0.0207
   20MOL   H179 7057   7.087   5.691   2.020  1.9734  3.0983 -1.3737
   20MOL   H180 7058   6.974   5.613   1.917 -1.3117  0.5899  0.3157
   20MOL   H181 7059   6.907   5.733   2.027  0.0502  0.9832  0.3015
   20MOL   C182 7060   6.646   5.644   1.484 -0.1039 -0.0215  0.1010
   20MOL   C183 7061   6.590   5.765   1.410 -0.3349 -0.0821 -0.0623
   20MOL   C184 7062   6.645   5.776   1.273  0.1697 -0.4361  0.5621
   20MOL   O185 7063   6.649   5.676   1.200  0.2363 -0.3188 -0.6062
   20MOL   O186 7064   6.694   5.901   1.245  0.1057 -0.2691 -0.4413
   20MOL   C187 7065   6.769   5.919   1.132  0.5472 -0.3212  0.2317
   20MOL   C188 7066   6.771   6.066   1.091  0.4216 -0.6354  0.2535
   20MOL   C189 7067   6.634   6.128   1.077  0.6891 -0.2009 -0.0378
   20MOL   H190 7068   6.624   5.554   1.427 -0.6290  0.2910 -0.1977
   20MOL   H191 7069   6.754   5.654   1.486  0.1250 -1.4361 -2.3827
   20MOL   H192 7070   6.613   5.852   1.471 -1.1214 -0.3564  0.6290
   20MOL   H193 7071   6.869   5.877   1.138  1.0517  0.9816  1.1901
   20MOL   H194 7072   6.727   5.856   1.054  2.2901  1.1742 -1.9341
   20MOL   H195 7073   6.836   6.125   1.155 -3.1119  2.7900  0.8265
   20MOL   H196 7074   6.811   6.077   0.990 -0.9928  1.6599 -0.0815
   20MOL   H197 7075   6.599   6.175   1.168  2.0514 -0.4350  0.6129
   20MOL   H198 7076   6.560   6.052   1.050  2.7920 -2.8839  1.4542
   20MOL   H199 7077   6.637   6.205   1.000 -1.8505 -0.0834 -0.0503
   20MOL   C200 7078   6.434   5.754   1.393  0.6200  0.1262 -0.3520
   20MOL   C201 7079   6.361   5.877   1.349  1.0236  0.6642  0.6597
   20MOL   C202 7080   6.291   5.852   1.217  0.3681  1.1520  0.2254
   20MOL   O203 7081   6.176   5.816   1.205  0.4678 -0.5715 -1.1066
   20MOL   O204 7082   6.371   5.882   1.113  0.0820  0.4261 -0.4444
   20MOL   C205 7083   6.312   5.884   0.982  0.1168  0.0031  0.3759
   20MOL   C206 7084   6.412   5.872   0.867 -1.0666  0.7020 -0.4472
   20MOL   C207 7085   6.348   5.880   0.728  0.3820 -0.0534 -0.6412
   20MOL   H208 7086   6.398   5.703   1.482 -1.5435  0.3357 -1.0879
   20MOL   H209 7087   6.410   5.672   1.325 -0.9952  0.7334 -0.5215
   20MOL   H210 7088   6.435   5.955   1.326  1.2286  0.3697  0.3190
   20MOL   H211 7089   6.259   5.790   0.970 -0.2604  0.3400 -0.7344
   20MOL   H212 7090   6.243   5.968   0.973 -1.0338 -0.9341  0.4188
   20MOL   H213 7091   6.480   5.957   0.876  1.0896 -1.0699  0.7125
   20MOL   H214 7092   6.473   5.782   0.870 -0.0154  1.2676 -3.3602
   20MOL   H215 7093   6.256   5.822   0.716 -0.6030  1.0170  1.4084
   20MOL   H216 7094   6.417   5.862   0.646  1.3678 -1.3372  0.4574
   20MOL   H217 7095   6.327   5.983   0.700  0.2586 -0.0070 -0.3750
   20MOL   C218 7096   6.278   5.933   1.465 -0.5552  0.5375 -0.3585
   20MOL   C219 7097   6.224   6.081   1.454  0.3312 -0.2714 -0.0112
   20MOL   C220 7098   6.338   6.179   1.434  0.0765  0.3502  0.4165
   20MOL   O221 7099   6.350   6.231   1.326  0.0554 -1.2015 -0.0902
   20MOL   O222 7100   6.425   6.189   1.536 -1.1040  0.5763  0.1007
   20MOL   C223 7101   6.554   6.252   1.519  0.3527  0.6341 -0.3908
   20MOL   C224 7102   6.639   6.191   1.630 -0.0685 -0.1788 -0.4054
   20MOL   C225 7103   6.791   6.228   1.614  0.3404  0.1511  0.0230
   20MOL   H226 7104   6.327   5.913   1.560  0.3560  2.7721 -0.3304
   20MOL   H227 7105   6.189   5.870   1.462 -0.3867  0.1295  2.2436
   20MOL   H228 7106   6.191   6.096   1.557 -0.1929 -0.6266 -0.1252
   20MOL   H229 7107   6.585   6.247   1.415 -0.8419  1.3983 -0.7896
   20MOL   H230 7108   6.547   6.356   1.552  0.0649  0.2925  0.6558
   20MOL   H231 7109   6.593   6.225   1.722 -0.4954  0.0025 -0.6823
   20MOL   H232 7110   6.632   6.083   1.613  3.9395 -0.5955  0.1478
   20MOL   H233 7111   6.840   6.182   1.528  0.6784  1.7938 -0.6851
   20MOL   H234 7112   6.837   6.203   1.709  1.0585  0.3619 -0.2641
   20MOL   H235 7113   6.811   6.333   1.593  1.2234  0.2400  1.3154
   20MOL   C236 7114   6.100   6.089   1.366 -0.0752 -0.8562  0.0875
   20MOL   C237 7115   6.008   6.222   1.384 -0.6485  0.5571 -0.4126
   20MOL   C238 7116   5.904   6.235   1.269  0.1947  0.4071  0.1807
   20MOL   O239 7117   5.783   6.225   1.283  0.3421  0.5318  0.3590
   20MOL   O240 7118   5.954   6.264   1.145 -0.0578 -0.3612  0.0770
   20MOL   C241 7119   5.874   6.258   1.027  0.5234 -0.6946 -0.3695
   20MOL   C242 7120   5.952   6.186   0.927 -0.4259 -0.0193 -0.0299
   20MOL   C243 7121   5.967   6.036   0.955  0.0707 -0.0859  0.2169
   20MOL   H244 7122   6.037   6.006   1.399 -1.9857 -0.0327 -1.4214
   20MOL   H245 7123   6.119   6.070   1.261 -1.2820  0.3567 -0.3658
   20MOL   H246 7124   6.067   6.314   1.375  0.0079  0.1322 -0.4647
   20MOL   H247 7125   5.781   6.207   1.052  0.9520 -1.1243  0.3710
   20MOL   H248 7126   5.852   6.360   0.996 -0.3825 -0.4976  0.8576
   20MOL   H249 7127   5.896   6.194   0.834 -0.5148 -1.1276 -0.0830
   20MOL   H250 7128   6.051   6.230   0.913  0.0037 -0.9858 -0.1048
   20MOL   H251 7129   5.873   5.983   0.941 -0.9343  1.7488 -0.1262
   20MOL   H252 7130   6.003   6.021   1.057 -2.3081  1.0332  1.2373
   20MOL   H253 7131   6.043   5.992   0.889  1.3311  3.9890 -1.2032
   20MOL   C254 7132   5.950   6.239   1.523 -0.5961 -1.1717 -0.1834
   20MOL   C255 7133   6.040   6.316   1.624 -0.0463  0.3324 -0.2125
   20MOL   C256 7134   6.061   6.467   1.589  0.3035  0.3936  0.4711
   20MOL   O257 7135   5.980   6.542   1.536 -0.8017  0.3922  0.0111
   20MOL   O258 7136   6.185   6.507   1.618  0.1026 -0.1357  0.4032
   20MOL   C259 7137   6.226   6.638   1.595 -0.3905 -0.1230  0.1394
   20MOL   C260 7138   6.381   6.635   1.576 -1.1160 -0.0949  0.7137
   20MOL   C261 7139   6.447   6.599   1.709 -0.8437 -0.5676  0.3261
   20MOL   H262 7140   5.928   6.135   1.550 -1.8994 -1.1171 -1.0048
   20MOL   H263 7141   5.851   6.285   1.521  0.7864  1.9322 -0.2569
   20MOL   H264 7142   6.141   6.279   1.633 -0.2079  0.3857  1.9783
   20MOL   H265 7143   6.186   6.654   1.494 -0.1317 -2.1446 -0.2993
   20MOL   H266 7144   6.188   6.714   1.663  1.2637  2.1672 -1.4365
   20MOL   H267 7145   6.402   6.569   1.492  1.4176 -0.2070  1.4174
   20MOL   H268 7146   6.420   6.732   1.544 -0.0530 -1.2185 -1.4737
   20MOL   H269 7147   6.388   6.520   1.756 -2.2308 -0.3621 -1.0217
   20MOL   H270 7148   6.436   6.679   1.783  0.4878  0.5167 -0.6299
   20MOL   H271 7149   6.555   6.586   1.703 -0.9511 -1.2677 -0.0872
   20MOL   C272 7150   5.985   6.295   1.775  0.1800  0.6024  0.0983
   20MOL   C273 7151   6.023   6.158   1.835  0.6460 -0.3694 -0.2714
   20MOL   C274 7152   6.171   6.139   1.863 -0.1714  0.0040  0.4115
   20MOL   O275 7153   6.253   6.235   1.877 -0.3365  0.0968  0.4716
   20MOL   O276 7154   6.201   6.008   1.862  0.1467 -0.4024  0.1040
   20MOL   C277 7155   6.334   5.969   1.897  0.1926  0.4124 -0.2507
   20MOL   C278 7156   6.334   5.956   2.053 -0.4482 -0.2429  0.2442
   20MOL   C279 7157   6.234   5.855   2.105  0.2557 -0.1482 -0.0256
   20MOL   H280 7158   5.879   6.322   1.774  0.3728  1.3892  0.1379
   20MOL   H281 7159   6.034   6.372   1.835  2.3922 -0.9791  0.3783
   20MOL   H282 7160   5.998   6.097   1.748 -1.7208 -0.1390  0.2206
   20MOL   H283 7161   6.339   5.871   1.851 -1.4386 -0.6020  1.6631
   20MOL   H284 7162   6.416   6.028   1.856  1.9568 -1.7136  0.1038
   20MOL   H285 7163   6.435   5.922   2.076  0.1309  2.7010  2.1729
   20MOL   H286 7164   6.327   6.055   2.097 -0.1695 -0.0414 -0.1505
   20MOL   H287 7165   6.235   5.840   2.213 -2.0455  1.7996  0.3099
   20MOL   H288 7166   6.266   5.758   2.066  2.0061 -0.1645  1.3870
   20MOL   H289 7167   6.132   5.875   2.073  0.2743 -1.7055 -1.1549
   20MOL   C290 7168   5.938   6.110   1.957  0.0607 -0.3076 -0.0207
   20MOL   C291 7169   5.806   6.046   1.911 -0.3870 -0.2921 -0.3096
   20MOL   C292 7170   5.824   5.910   1.841 -0.0131  0.2434 -0.3711
   20MOL   O293 7171   5.757   5.889   1.747 -0.1651 -0.5238 -0.1351
   20MOL   O294 7172   5.917   5.831   1.900 -0.1766  0.1639  0.0237
   20MOL   C295 7173   5.940   5.702   1.845 -0.2171 -0.4176  0.4343
   20MOL   C296 7174   6.053   5.708   1.744 -0.3319  0.0243  0.2641
   20MOL   C297 7175   6.117   5.572   1.718  0.7391 -0.0674 -0.8027
   20MOL   H298 7176   5.921   6.195   2.022 -0.0895 -2.3030  2.6416
   20MOL   H299 7177   6.000   6.041   2.013  0.6098  0.2674  0.0782
   20MOL   H300 7178   5.770   6.115   1.836  2.3824  0.1292 -1.3100
   20MOL   H301 7179   5.987   5.644   1.923 -0.8067  1.1602  1.9861
   20MOL   H302 7180   5.854   5.656   1.796 -0.5024  1.9345 -1.4220
   20MOL   H303 7181   6.005   5.758   1.660  2.4848  1.3961 -0.5718
   20MOL   H304 7182   6.134   5.776   1.770 -0.8455 -0.0248  2.0965
   20MOL   H305 7183   6.168   5.559   1.623  2.2529 -0.2981  0.0173
   20MOL   H306 7184   6.038   5.496   1.720 -0.7578  1.4914  0.1569
   20MOL   H307 7185   6.180   5.544   1.803 -1.9274 -1.4208  0.8359
   20MOL   C308 7186   5.708   6.034   2.026  0.7094 -0.0065 -0.8453
   20MOL   C309 7187   5.729   5.930   2.142 -0.2202 -0.1855  0.4413
   20MOL   C310 7188   5.819   5.993   2.246 -0.0916  0.1563  0.1102
   20MOL   O311 7189   5.846   6.117   2.252 -0.0892 -0.1731  0.2933
   20MOL   O312 7190   5.864   5.904   2.339  0.1143  0.3948  0.1918
   20MOL   C313 7191   5.979   5.945   2.416 -0.6128 -0.0001  0.2400
   20MOL   C314 7192   5.919   5.949   2.552 -0.0660  0.3279  0.6701
   20MOL   C315 7193   6.036   5.954   2.647  0.2001  0.1498 -0.1921
   20MOL   H316 7194   5.605   6.014   1.995  1.4084 -0.0303 -3.2321
   20MOL   H317 7195   5.697   6.132   2.074  1.9297 -0.6309  0.7350
   20MOL   H318 7196   5.786   5.850   2.096  0.3826  0.7922 -0.5486
   20MOL   H319 7197   6.050   5.867   2.390  0.1580  1.0901 -1.0209
   20MOL   H320 7198   6.029   6.039   2.393  0.4181  0.2436  3.2133
   20MOL   H321 7199   5.858   6.037   2.573  0.7778  0.5806  2.0654
   20MOL   H322 7200   5.858   5.860   2.567 -2.5135  1.6411 -1.0780
   20MOL   H323 7201   6.102   6.041   2.648  1.3999 -0.7310 -1.2689
   20MOL   H324 7202   5.994   5.944   2.748  1.4045 -0.8510  0.2279
   20MOL   H325 7203   6.099   5.866   2.630 -1.9335 -1.3783 -0.3790
   20MOL   C326 7204   5.598   5.874   2.202  0.1102 -0.5305 -0.2660
   20MOL   C327 7205   5.552   5.757   2.123 -0.2541  0.4418  0.0216
   20MOL   C328 7206   5.648   5.638   2.153 -0.0567 -0.1497 -1.0645
   20MOL   O329 7207   5.726   5.599   2.071 -0.4822 -0.2893 -0.7018
   20MOL   O330 7208   5.633   5.590   2.280  0.1429 -0.2465  0.7923
   20MOL   C331 7209   5.729   5.486   2.317  0.1166 -0.6523 -0.5509
   20MOL   C332 7210   5.712   5.468   2.469 -0.6894  1.0303 -0.0583
   20MOL   C333 7211   5.567   5.418   2.504  0.0858 -0.4310  0.0294
   20MOL   H334 7212   5.532   5.960   2.215 -0.2983 -0.8842  0.0591
   20MOL   H335 7213   5.608   5.846   2.307 -1.8588  0.8142  0.3186
   20MOL   H336 7214   5.552   5.798   2.021  0.1840 -1.9913 -0.9802
   20MOL   H337 7215   5.698   5.394   2.268  1.6152 -1.1144 -0.6360
   20MOL   H338 7216   5.832   5.493   2.283  0.4967 -0.0959  0.6905
   20MOL   H339 7217   5.786   5.402   2.515 -2.6138  0.1127  1.8115
   20MOL   H340 7218   5.728   5.569   2.506 -0.3518  0.6579  0.8196
   20MOL   H341 7219   5.489   5.472   2.450  0.1776 -1.7594 -1.4664
   20MOL   H342 7220   5.535   5.314   2.502 -0.6558 -0.2333  1.1850
   20MOL   H343 7221   5.554   5.442   2.610 -0.7072 -2.1033  0.3192
   20MOL   C344 7222   5.399   5.729   2.132 -0.0648  0.8233 -0.3473
   20MOL   C345 7223   5.340   5.665   2.007  0.4019  0.5715  0.3434
   20MOL   C346 7224   5.302   5.765   1.898  0.4761  0.1226 -0.1960
   20MOL   O347 7225   5.343   5.742   1.784  0.2566 -0.1814  0.5741
   20MOL   O348 7226   5.231   5.873   1.945  0.1500  0.0890 -0.0581
   20MOL   C349 7227   5.206   5.984   1.863  0.2564  0.0253  0.8776
   20MOL   C350 7228   5.089   5.966   1.764  0.7364  0.4313  0.2904
   20MOL   C351 7229   5.059   6.089   1.670  0.3690 -0.4249 -0.2483
   20MOL   H352 7230   5.343   5.818   2.159 -0.8285  0.1863  0.1912
   20MOL   H353 7231   5.385   5.656   2.212 -0.5590  1.2316 -0.0646
   20MOL   H354 7232   5.244   5.620   2.034  1.1108 -2.6122 -2.0845
   20MOL   H355 7233   5.171   6.062   1.930 -2.4185  0.7656 -1.2642
   20MOL   H356 7234   5.295   6.014   1.807 -0.0070  2.5906  1.7927
   20MOL   H357 7235   5.098   5.875   1.704 -1.7953  0.6805 -0.5374
   20MOL   H358 7236   4.997   5.952   1.821  1.0561  0.7596  0.8913
   20MOL   H359 7237   4.961   6.086   1.621  0.1819  0.3375  0.0754
   20MOL   H360 7238   5.055   6.177   1.734 -0.5115 -0.9522  0.4363
   20MOL   H361 7239   5.141   6.105   1.600  0.9438 -0.0784  0.4968
   20MOL   H362 7240   5.405   5.583   1.974 -1.3767 -0.2193 -1.2917
   21MOL     C1 7241   6.655   2.026   7.590 -0.2510 -0.3062  0.8240
   21MOL     C2 7242   6.591   2.162   7.547 -0.2400  0.0377  0.1461
   21MOL     C3 7243   6.685   2.282   7.588  0.4298 -0.5768 -0.3448
   21MOL     O4 7244   6.640   2.368   7.667 -0.2723  0.0421  0.3892
   21MOL     O5 7245   6.808   2.266   7.547  0.1186  0.0301 -0.5992
   21MOL     C6 7246   6.907   2.366   7.573  0.7157  0.3899 -0.5801
   21MOL     C7 7247   7.033   2.326   7.487  0.3287 -0.1385 -0.0147
   21MOL     C8 7248   7.087   2.186   7.531  0.4745 -0.5206 -0.0202
   21MOL     H9 7249   6.725   1.998   7.511  0.1153  1.0193  0.6634
   21MOL    H10 7250   6.701   2.029   7.689  0.1369 -2.1565  0.7169
   21MOL    H11 7251   6.508   2.175   7.616  0.6518  1.9531  0.8974
   21MOL    H12 7252   6.877   2.466   7.540  0.4275  0.7074  0.6310
   21MOL    H13 7253   6.936   2.374   7.678 -0.3979  0.8656 -0.3011
   21MOL    H14 7254   7.007   2.336   7.382  0.5514  0.1191 -0.0459
   21MOL    H15 7255   7.100   2.411   7.494  0.3185  0.0574 -1.9991
   21MOL    H16 7256   7.164   2.160   7.458  1.9655 -0.8318  1.6262
   21MOL    H17 7257   7.131   2.177   7.630  0.0929 -0.2781  0.1753
   21MOL    H18 7258   7.014   2.104   7.535 -1.0853  0.6291 -3.4438
   21MOL    H19 7259   6.583   1.945   7.577  1.5954 -1.9036  0.2240
   21MOL    C20 7260   6.553   2.169   7.402  0.0425  0.4092  0.7382
   21MOL    C21 7261   6.455   2.064   7.346 -0.2719 -0.1303  0.5101
   21MOL    C22 7262   6.331   2.052   7.434  0.6043  0.2391 -0.2899
   21MOL    O23 7263   6.307   1.955   7.507  0.1255 -0.1733  0.4373
   21MOL    O24 7264   6.260   2.159   7.424  0.3734  0.3063  0.7217
   21MOL    C25 7265   6.144   2.182   7.500 -0.2825  0.3638  0.2584
   21MOL    C26 7266   6.147   2.323   7.554  0.5651  0.2560 -0.3787
   21MOL    C27 7267   6.268   2.357   7.644  0.5393 -0.6006  0.2171
   21MOL    H28 7268   6.645   2.167   7.343 -0.7041 -0.4413 -0.4201
   21MOL    H29 7269   6.507   2.268   7.393 -0.0641  0.6404  3.4399
   21MOL    H30 7270   6.501   1.966   7.360 -0.3638 -0.3485 -0.6575
   21MOL    H31 7271   6.051   2.176   7.443 -0.6422  1.2260  0.7390
   21MOL    H32 7272   6.131   2.110   7.582 -1.3109  0.8788  0.5528
   21MOL    H33 7273   6.140   2.397   7.474 -3.7578 -0.1679 -0.4978
   21MOL    H34 7274   6.059   2.343   7.615 -0.2042 -2.9416 -0.3918
   21MOL    H35 7275   6.358   2.371   7.583  0.9569 -2.6774  0.3127
   21MOL    H36 7276   6.287   2.273   7.711  0.4330 -2.3408 -1.8660
   21MOL    H37 7277   6.242   2.441   7.709 -1.3782 -1.4951  0.6514
   21MOL    C38 7278   6.424   2.088   7.199 -0.1866 -0.0995 -0.1624
   21MOL    C39 7279   6.391   1.962   7.114 -0.7959  0.9619  0.1894
   21MOL    C40 7280   6.252   1.964   7.036 -0.3254  0.9096 -0.4529
   21MOL    O41 7281   6.174   2.052   7.059 -0.6562  0.1672  0.2631
   21MOL    O42 7282   6.237   1.863   6.948 -0.2712  0.2499 -0.6534
   21MOL    C43 7283   6.114   1.833   6.882  0.2011  0.6262  0.9734
   21MOL    C44 7284   6.123   1.699   6.805 -0.7774  0.0454  0.0532
   21MOL    C45 7285   5.996   1.650   6.741 -0.2874  0.6755 -0.0455
   21MOL    H46 7286   6.512   2.135   7.156 -1.4867  0.9846 -1.6892
   21MOL    H47 7287   6.344   2.161   7.186 -0.8215 -1.0112 -1.5071
   21MOL    H48 7288   6.360   1.884   7.183 -0.2342  1.4695  1.0153
   21MOL    H49 7289   6.038   1.830   6.960 -0.8108 -1.4145 -0.0590
   21MOL    H50 7290   6.101   1.919   6.816  0.4233  0.1209  0.2736
   21MOL    H51 7291   6.203   1.711   6.731  0.0463 -1.7730  0.6090
   21MOL    H52 7292   6.161   1.618   6.867  2.8825  1.2396 -0.4897
   21MOL    H53 7293   6.012   1.546   6.713  2.0231  0.8154  0.7052
   21MOL    H54 7294   5.962   1.712   6.657 -0.0617  1.2797  0.3052
   21MOL    H55 7295   5.921   1.653   6.820 -1.7899 -0.1412 -1.3926
   21MOL    C56 7296   6.516   1.913   7.032  0.3049 -0.1921  0.6502
   21MOL    C57 7297   6.540   1.956   6.886  0.3944 -0.1287  0.1785
   21MOL    C58 7298   6.535   2.115   6.872 -0.5692  0.1846 -0.3199
   21MOL    O59 7299   6.630   2.182   6.897  0.1060 -0.4517  0.3923
   21MOL    O60 7300   6.414   2.155   6.828 -0.1007  0.6598  0.7174
   21MOL    C61 7301   6.389   2.294   6.831  0.9641 -0.2084  0.2880
   21MOL    C62 7302   6.248   2.325   6.876 -0.0097  0.4778  0.0267
   21MOL    C63 7303   6.136   2.257   6.795 -0.4219 -1.0037  0.1654
   21MOL    H64 7304   6.507   1.805   7.045  0.1760 -0.2319  0.2435
   21MOL    H65 7305   6.610   1.936   7.081  1.2454 -2.9067  0.2381
   21MOL    H66 7306   6.463   1.910   6.824  1.3090 -4.0173  1.7169
   21MOL    H67 7307   6.438   2.346   6.914  1.6429  0.7380 -0.6859
   21MOL    H68 7308   6.411   2.351   6.741 -0.0803 -0.0682  0.1162
   21MOL    H69 7309   6.242   2.297   6.981 -0.3382  1.2899  0.2296
   21MOL    H70 7310   6.238   2.434   6.881 -1.4797  0.2861  1.6320
   21MOL    H71 7311   6.173   2.175   6.733  2.1231 -1.4080  2.1019
   21MOL    H72 7312   6.093   2.336   6.735  2.7270  0.2852 -0.4657
   21MOL    H73 7313   6.069   2.224   6.875 -0.8264  2.7436  1.4469
   21MOL    C74 7314   6.678   1.903   6.831  0.1953  0.9345  0.2207
   21MOL    C75 7315   6.688   1.749   6.820  0.0350 -0.1706 -0.1896
   21MOL    C76 7316   6.594   1.695   6.720  0.3367  0.1916  0.5128
   21MOL    O77 7317   6.543   1.766   6.634  0.1920  0.0111  0.2091
   21MOL    O78 7318   6.561   1.563   6.739 -0.4430 -0.0426 -0.7156
   21MOL    C79 7319   6.433   1.520   6.684 -0.1846  0.1414  0.4363
   21MOL    C80 7320   6.385   1.382   6.718 -0.3209  1.0202 -0.1084
   21MOL    C81 7321   6.238   1.358   6.667 -0.3529  0.2466 -0.4455
   21MOL    H82 7322   6.762   1.952   6.881 -0.3149  1.5512  0.4779
   21MOL    H83 7323   6.686   1.943   6.730 -2.6246  1.2801  0.0952
   21MOL    H84 7324   6.653   1.717   6.918 -1.0432  0.8436 -0.2298
   21MOL    H85 7325   6.359   1.583   6.732 -3.2018 -1.2210 -2.1966
   21MOL    H86 7326   6.432   1.529   6.575  1.1811 -0.3985  0.3628
   21MOL    H87 7327   6.450   1.308   6.673 -0.6981  0.1377  0.7622
   21MOL    H88 7328   6.403   1.369   6.825  0.2575 -1.2484 -0.4699
   21MOL    H89 7329   6.207   1.254   6.677  3.1270 -1.0022 -1.7416
   21MOL    H90 7330   6.225   1.379   6.561 -1.0841  2.4369  0.0539
   21MOL    H91 7331   6.180   1.433   6.720  0.7530 -0.0319  1.1964
   21MOL    C92 7332   6.830   1.698   6.794 -0.3292 -0.1014  0.0401
   21MOL    C93 7333   6.847   1.556   6.857  0.3319  0.2869 -0.5182
   21MOL    C94 7334   6.881   1.441   6.753  0.5931  0.7302 -0.3514
   21MOL    O95 7335   6.922   1.470   6.639  0.6397  0.3892 -0.2435
   21MOL    O96 7336   6.862   1.309   6.794  0.6488  0.1118 -0.1277
   21MOL    C97 7337   6.866   1.208   6.699 -0.6516  0.4854 -0.1428
   21MOL    C98 7338   6.862   1.062   6.765 -0.0904  0.2218 -0.0304
   21MOL    C99 7339   7.004   1.017   6.809 -0.2537 -0.2378  0.2669
   21MOL   H100 7340   6.897   1.760   6.853  1.2918 -1.9107  0.1528
   21MOL   H101 7341   6.868   1.700   6.692 -0.9470  1.4792 -0.1624
   21MOL   H102 7342   6.749   1.526   6.896 -0.0335 -0.2710 -1.8127
   21MOL   H103 7343   6.775   1.221   6.640  1.1515 -0.4677 -3.2216
   21MOL   H104 7344   6.945   1.233   6.628 -0.6490 -0.1149 -0.3496
   21MOL   H105 7345   6.796   1.053   6.852  1.3562  0.0855  1.0637
   21MOL   H106 7346   6.827   1.001   6.682 -0.3457  1.2488 -0.6800
   21MOL   H107 7347   7.021   0.910   6.819  3.6101  0.0265 -2.3511
   21MOL   H108 7348   7.045   1.065   6.898  2.8917  1.7413 -2.1223
   21MOL   H109 7349   7.080   1.042   6.735 -1.5822 -1.1441 -1.4273
   21MOL   C110 7350   6.950   1.543   6.967 -0.5606 -0.5135 -0.6333
   21MOL   C111 7351   6.914   1.631   7.091  0.3716  0.3241 -0.0875
   21MOL   C112 7352   6.778   1.589   7.148 -0.1818 -0.1135 -0.8562
   21MOL   O113 7353   6.691   1.673   7.176  0.1356  0.3488 -0.4714
   21MOL   O114 7354   6.770   1.451   7.169 -0.1119 -0.0931 -0.0637
   21MOL   C115 7355   6.660   1.394   7.246 -0.9054 -0.6140 -0.0730
   21MOL   C116 7356   6.545   1.335   7.156 -0.5286 -0.4446 -0.8912
   21MOL   C117 7357   6.467   1.448   7.089 -0.1152 -0.3804 -0.0147
   21MOL   H118 7358   7.038   1.578   6.914 -0.1477 -0.2448  0.2265
   21MOL   H119 7359   6.968   1.439   6.997 -0.1352 -0.6117 -1.2412
   21MOL   H120 7360   6.891   1.730   7.051 -0.5302  0.1748  0.0599
   21MOL   H121 7361   6.707   1.318   7.308  2.8268  2.5784  1.1763
   21MOL   H122 7362   6.623   1.470   7.315 -0.8774 -0.8117  0.1612
   21MOL   H123 7363   6.576   1.258   7.085  1.1492 -0.3553 -0.2835
   21MOL   H124 7364   6.475   1.283   7.222 -0.3231  1.9034  1.2529
   21MOL   H125 7365   6.363   1.416   7.090  1.2554 -5.2100  1.3049
   21MOL   H126 7366   6.498   1.466   6.986  0.2763  2.1048  0.5079
   21MOL   H127 7367   6.467   1.538   7.151  1.1058 -1.0493  1.0046
   21MOL   C128 7368   7.032   1.631   7.195 -0.8251 -0.2869 -0.5877
   21MOL   C129 7369   7.175   1.662   7.144 -0.0721 -0.0264  0.0322
   21MOL   C130 7370   7.191   1.801   7.087 -0.7756 -0.3890 -0.2509
   21MOL   O131 7371   7.221   1.817   6.968  0.0016 -0.2410 -0.3022
   21MOL   O132 7372   7.178   1.901   7.179 -0.2158 -0.0246 -0.0933
   21MOL   C133 7373   7.158   2.030   7.137 -0.4473  0.0978 -0.9408
   21MOL   C134 7374   7.015   2.040   7.083  0.7589  0.3619  0.0650
   21MOL   C135 7375   6.904   2.020   7.192 -0.4562  0.5708 -0.1668
   21MOL   H136 7376   7.036   1.531   7.239 -2.6149  0.0065  0.3139
   21MOL   H137 7377   7.008   1.682   7.288  1.0586 -2.8692  1.3995
   21MOL   H138 7378   7.192   1.589   7.065  1.8154 -0.2798  0.6444
   21MOL   H139 7379   7.176   2.085   7.229  1.6539 -0.7090 -0.8341
   21MOL   H140 7380   7.232   2.052   7.060 -1.4148 -0.6299 -2.0964
   21MOL   H141 7381   7.005   2.134   7.027  1.3461 -1.0840 -2.5802
   21MOL   H142 7382   6.994   1.959   7.013 -0.9692  2.1893 -1.5870
   21MOL   H143 7383   6.902   1.924   7.243  1.9982  2.0390  2.8446
   21MOL   H144 7384   6.805   2.038   7.150 -0.2064  0.5727 -0.7553
   21MOL   H145 7385   6.912   2.088   7.277 -1.8965  0.8403 -0.2370
   21MOL   C146 7386   7.282   1.640   7.255 -0.0859  0.0977  0.3438
   21MOL   C147 7387   7.306   1.495   7.299  0.0365  0.4924 -0.5011
   21MOL   C148 7388   7.336   1.412   7.176 -0.1482  0.0583  0.2683
   21MOL   O149 7389   7.439   1.422   7.109  0.0218 -0.1542 -0.0997
   21MOL   O150 7390   7.236   1.324   7.146 -0.0096  0.0060  0.5395
   21MOL   C151 7391   7.237   1.271   7.012 -0.2440  0.0762  0.0047
   21MOL   C152 7392   7.277   1.122   7.020  0.3840  0.0329  0.3415
   21MOL   C153 7393   7.196   1.043   7.124  0.2003  0.4612 -0.9709
   21MOL   H154 7394   7.248   1.698   7.340 -0.3684 -0.7682  0.8316
   21MOL   H155 7395   7.378   1.676   7.219  0.0598  0.2926  0.9427
   21MOL   H156 7396   7.210   1.465   7.341  0.3993 -0.9123 -0.6486
   21MOL   H157 7397   7.133   1.275   6.980 -0.4309  0.6026  0.6594
   21MOL   H158 7398   7.290   1.331   6.938  0.5057  0.1260  0.5730
   21MOL   H159 7399   7.259   1.086   6.918  2.7299  2.3510 -0.9383
   21MOL   H160 7400   7.380   1.103   7.050 -0.0220  1.3458  2.6103
   21MOL   H161 7401   7.237   1.048   7.224 -0.9130  1.8689 -0.5668
   21MOL   H162 7402   7.177   0.937   7.104 -1.3690  0.7783 -1.2652
   21MOL   H163 7403   7.095   1.084   7.131 -0.6913 -1.9537  1.2486
   21MOL   C164 7404   7.410   1.485   7.411  0.0235 -0.1321  0.6567
   21MOL   C165 7405   7.403   1.364   7.517  0.0154 -0.4664  0.4934
   21MOL   C166 7406   7.271   1.360   7.586  0.0561  0.1148  0.2763
   21MOL   O167 7407   7.252   1.423   7.691 -0.0198  0.7353 -0.0528
   21MOL   O168 7408   7.167   1.315   7.520  0.1125  0.4467 -0.0737
   21MOL   C169 7409   7.043   1.301   7.595  0.4192 -0.8584 -0.1991
   21MOL   C170 7410   6.934   1.239   7.494  0.5648  0.0531 -0.1261
   21MOL   C171 7411   6.983   1.099   7.448  0.0718 -0.0813  0.9467
   21MOL   H172 7412   7.404   1.576   7.470  0.3715  0.0651  0.3906
   21MOL   H173 7413   7.509   1.483   7.364  0.0245  1.8425  0.5335
   21MOL   H174 7414   7.474   1.385   7.597 -1.1439  1.3669  1.0771
   21MOL   H175 7415   7.062   1.245   7.687 -0.0567  1.8135  1.5563
   21MOL   H176 7416   6.992   1.389   7.633  0.3203 -0.6570 -0.8031
   21MOL   H177 7417   6.836   1.212   7.533 -0.1773 -0.5426 -2.3172
   21MOL   H178 7418   6.910   1.309   7.414 -1.6258 -1.1687 -0.5840
   21MOL   H179 7419   7.021   1.053   7.540  0.8266 -1.6493 -0.1223
   21MOL   H180 7420   7.067   1.106   7.379  0.4031 -3.0512  0.9688
   21MOL   H181 7421   6.902   1.040   7.406 -0.1829 -0.4289  1.9022
   21MOL   C182 7422   7.440   1.224   7.464 -0.2826 -0.7819 -0.2088
   21MOL   C183 7423   7.598   1.200   7.438  0.5883  0.1999 -0.1515
   21MOL   C184 7424   7.679   1.215   7.567  0.3038  0.0997 -0.0813
   21MOL   O185 7425   7.782   1.272   7.573  0.0924 -0.4599  0.0796
   21MOL   O186 7426   7.620   1.142   7.662 -0.0092  0.1257  0.1762
   21MOL   C187 7427   7.664   1.157   7.797  0.9531 -0.4125  0.3815
   21MOL   C188 7428   7.788   1.072   7.812 -0.2240  0.9429 -0.0897
   21MOL   C189 7429   7.740   0.929   7.806 -0.3929  0.2652  0.0349
   21MOL   H190 7430   7.379   1.189   7.381 -2.3562 -0.9056  1.3380
   21MOL   H191 7431   7.407   1.147   7.534  0.2748 -1.0794 -0.2694
   21MOL   H192 7432   7.633   1.272   7.364 -0.8320 -0.0832 -1.1105
   21MOL   H193 7433   7.683   1.261   7.826  0.7859 -0.1321 -0.4859
   21MOL   H194 7434   7.585   1.123   7.864  0.0442  0.5540 -0.1719
   21MOL   H195 7435   7.880   1.098   7.760  0.5018 -1.3640 -0.0194
   21MOL   H196 7436   7.815   1.095   0.035  0.3763  0.0163 -0.0375
   21MOL   H197 7437   7.659   0.899   7.872  0.3417  2.1386  1.8283
   21MOL   H198 7438   7.827   0.865   7.816  0.2739  0.7980 -2.0391
   21MOL   H199 7439   7.712   0.904   7.704 -2.3030  0.3268  0.5283
   21MOL   C200 7440   7.623   1.055   7.374  0.0674  0.2285  0.2916
   21MOL   C201 7441   7.710   1.061   7.248 -0.6779  0.2542  0.1558
   21MOL   C202 7442   7.757   0.917   7.206 -0.6178 -0.5240 -0.3322
   21MOL   O203 7443   7.873   0.884   7.223 -0.0190  0.1415  0.8370
   21MOL   O204 7444   7.648   0.842   7.179  0.7770  0.3305 -0.2499
   21MOL   C205 7445   7.659   0.713   7.116 -0.8021  0.0077  0.0410
   21MOL   C206 7446   7.528   0.690   7.038 -0.3983 -0.4000  0.0064
   21MOL   C207 7447   7.522   0.552   6.979  0.0682 -0.2378 -0.1892
   21MOL   H208 7448   7.532   1.008   7.336 -1.0468  1.3078  1.5301
   21MOL   H209 7449   7.662   0.987   7.449 -1.9011 -2.1323 -0.7454
   21MOL   H210 7450   7.797   1.119   7.277  0.6232 -0.7829 -1.5649
   21MOL   H211 7451   7.743   0.703   7.047  0.5354  1.8932  1.3421
   21MOL   H212 7452   7.672   0.630   7.185  0.7742 -1.0015 -1.4278
   21MOL   H213 7453   7.434   0.704   7.092 -0.2083  0.4778  0.1174
   21MOL   H214 7454   7.527   0.763   6.957 -0.0255  1.4328  1.6096
   21MOL   H215 7455   7.582   0.534   6.890  1.0437  0.3514  0.3383
   21MOL   H216 7456   7.420   0.528   6.949  0.0467  0.5582 -0.7548
   21MOL   H217 7457   7.548   0.481   7.058  1.0488  1.6722  1.2325
   21MOL   C218 7458   7.650   1.130   7.123  0.6491 -0.2528  0.0096
   21MOL   C219 7459   7.741   1.234   7.040  0.2289 -0.0911  0.1136
   21MOL   C220 7460   0.000   1.183   7.009 -0.5440  0.3546 -0.3034
   21MOL   O221 7461   0.102   1.243   7.048  0.7678 -0.7624  0.5548
   21MOL   O222 7462   7.875   1.064   6.939  0.3559 -0.5763 -0.2979
   21MOL   C223 7463   0.107   0.988   6.920  0.1807  0.5705 -0.5674
   21MOL   C224 7464   0.207   1.046   6.817  0.4499  0.4186 -0.8582
   21MOL   C225 7465   0.166   1.042   6.678  0.1645 -0.4495  0.3745
   21MOL   H226 7466   7.556   1.173   7.158  0.0055 -1.1289 -0.6243
   21MOL   H227 7467   7.619   1.050   7.056  0.7593  0.8593 -1.4184
   21MOL   H228 7468   7.751   1.325   7.098  0.4094 -0.5845  0.8704
   21MOL   H229 7469   0.163   0.963   7.010 -2.7278  0.1023  1.1769
   21MOL   H230 7470   0.085   0.893   6.872  1.2309  0.2935 -0.5244
   21MOL   H231 7471   0.238   1.148   6.840 -2.3231  0.5771  2.5474
   21MOL   H232 7472   0.304   0.997   6.828 -0.1412 -1.1235 -2.2656
   21MOL   H233 7473   0.125   0.943   6.660 -1.7299  0.3743  0.0241
   21MOL   H234 7474   0.244   1.065   6.604  0.2881 -0.4333  0.5103
   21MOL   H235 7475   0.091   1.119   6.658 -0.3452 -1.4610 -1.8574
   21MOL   C236 7476   7.669   1.274   6.910 -0.3748 -0.4687  0.7433
   21MOL   C237 7477   7.679   1.420   6.855  0.3463  0.1358 -0.3127
   21MOL   C238 7478   7.814   1.457   6.806  0.0883  0.4869 -0.4758
   21MOL   O239 7479   7.864   1.391   6.712  0.3236 -0.7251  0.0042
   21MOL   O240 7480   0.003   1.553   6.871  0.5232  0.5125  0.3249
   21MOL   C241 7481   0.132   1.588   6.827 -0.3378 -0.0743 -0.3834
   21MOL   C242 7482   0.130   1.734   6.819 -0.1567  0.6558  0.5979
   21MOL   C243 7483   0.092   1.792   6.954 -0.2245  0.3439  0.5877
   21MOL   H244 7484   7.565   1.251   6.935 -0.8191  2.4518  1.7543
   21MOL   H245 7485   7.699   1.202   6.833 -1.1501  0.7401 -0.7152
   21MOL   H246 7486   7.664   1.489   6.938 -0.5915 -0.7457  0.2642
   21MOL   H247 7487   0.202   1.571   6.909 -0.0609  0.3308 -0.5339
   21MOL   H248 7488   0.172   1.544   6.736  0.7677  0.0553  0.0278
   21MOL   H249 7489   0.230   1.770   6.794 -0.2680  0.3633 -0.2746
   21MOL   H250 7490   0.056   1.744   6.740 -2.7178 -0.6595  2.7310
   21MOL   H251 7491   0.165   1.764   7.030 -1.8543 -0.5631  1.8596
   21MOL   H252 7492   7.878   1.761   6.999  0.2967  0.4291  1.7838
   21MOL   H253 7493   0.081   1.901   6.948  0.8436  0.5761  2.3495
   21MOL   C254 7494   7.563   1.444   6.749  0.3447  0.6259  0.6485
   21MOL   C255 7495   7.528   1.598   6.746 -0.2871  0.5480  0.8177
   21MOL   C256 7496   7.608   1.673   6.638 -0.3981  0.4004 -0.4776
   21MOL   O257 7497   7.655   1.783   6.660  0.4603 -0.0800  0.2856
   21MOL   O258 7498   7.629   1.607   6.523 -0.4192 -0.8378 -0.2998
   21MOL   C259 7499   7.718   1.666   6.425 -0.3051  0.3008  0.4220
   21MOL   C260 7500   7.641   1.758   6.324 -0.2824 -0.5669  0.1430
   21MOL   C261 7501   7.734   1.828   6.218  0.2401 -0.0456  0.4261
   21MOL   H262 7502   7.471   1.394   6.778  0.0277  0.0271 -1.3120
   21MOL   H263 7503   7.588   1.403   6.651  0.1768 -2.6697  1.9508
   21MOL   H264 7504   7.564   1.639   6.841 -0.0483 -0.9926  1.4155
   21MOL   H265 7505   7.797   1.726   6.471  1.0918 -1.0179 -0.2059
   21MOL   H266 7506   7.765   1.583   6.372  0.7601 -0.3047  2.2596
   21MOL   H267 7507   7.562   1.689   6.293 -0.4573 -0.9731  1.4501
   21MOL   H268 7508   7.579   1.830   6.376 -0.3808 -0.7676  0.3071
   21MOL   H269 7509   7.790   1.756   6.159 -0.5540  0.7164 -1.2620
   21MOL   H270 7510   7.810   1.893   6.263 -1.2673 -0.2813  3.4842
   21MOL   H271 7511   7.684   1.881   6.137 -1.4739  1.1776  2.2206
   21MOL   C272 7512   7.376   1.638   6.743  0.0398  0.8124  0.1888
   21MOL   C273 7513   7.299   1.603   6.622 -0.5090  0.2472  0.1195
   21MOL   C274 7514   7.269   1.461   6.607  1.0963 -0.5515  0.1862
   21MOL   O275 7515   7.242   1.393   6.704 -0.4336 -0.4962 -0.0619
   21MOL   O276 7516   7.277   1.416   6.480  0.0323 -0.5099  0.2918
   21MOL   C277 7517   7.257   1.285   6.446  1.0875 -0.3353  0.2545
   21MOL   C278 7518   7.241   1.268   6.296 -0.0997 -0.0453  0.2331
   21MOL   C279 7519   7.373   1.283   6.223  0.8784 -0.6563  0.2120
   21MOL   H280 7520   7.366   1.745   6.757 -1.1501  0.4066  2.6931
   21MOL   H281 7521   7.330   1.599   6.834  2.8270 -0.5906  1.0505
   21MOL   H282 7522   7.363   1.627   6.537 -0.1909  0.7012  0.4822
   21MOL   H283 7523   7.339   1.226   6.488 -0.1235 -1.5526  0.9425
   21MOL   H284 7524   7.167   1.259   6.501 -0.8983  0.8908 -2.3380
   21MOL   H285 7525   7.203   1.170   6.268  1.8868 -0.8473  0.2668
   21MOL   H286 7526   7.172   1.337   6.249  0.3118  0.1352 -0.1124
   21MOL   H287 7527   7.428   1.376   6.237 -0.5868  0.3922 -0.9034
   21MOL   H288 7528   7.370   1.268   6.115 -0.3153  0.4556  0.0793
   21MOL   H289 7529   7.441   1.207   6.262  1.2894 -0.5252 -0.2421
   21MOL   C290 7530   7.172   1.688   6.618 -0.0147 -0.0598 -0.1584
   21MOL   C291 7531   7.197   1.848   6.598  0.0558 -0.2187 -0.0994
   21MOL   C292 7532   7.187   1.871   6.443  0.2723  0.4318  0.4673
   21MOL   O293 7533   7.099   1.940   6.396  0.0396 -0.3274 -0.2536
   21MOL   O294 7534   7.288   1.818   6.368 -0.0805 -0.2851 -0.5764
   21MOL   C295 7535   7.291   1.832   6.227 -0.2292 -0.3150  0.5817
   21MOL   C296 7536   7.273   1.694   6.152  0.0841 -0.5075 -0.2096
   21MOL   C297 7537   7.137   1.629   6.193  0.3872  0.2079  1.0979
   21MOL   H298 7538   7.113   1.667   6.707 -0.3033 -2.9401 -0.9722
   21MOL   H299 7539   7.109   1.660   6.534  1.0802 -0.5469 -0.8288
   21MOL   H300 7540   7.294   1.872   6.643 -0.5727  0.5688  0.8428
   21MOL   H301 7541   7.217   1.901   6.188 -1.2218 -0.3436  2.3789
   21MOL   H302 7542   7.381   1.884   6.194 -0.7402 -0.4559 -1.1171
   21MOL   H303 7543   7.262   1.702   6.044 -0.4934  3.7729  0.0982
   21MOL   H304 7544   7.352   1.624   6.181 -0.9482 -0.3719  3.1036
   21MOL   H305 7545   7.124   1.599   6.297 -0.0540 -0.1844  0.9345
   21MOL   H306 7546   7.115   1.547   6.125  0.0350  0.6147  0.7194
   21MOL   H307 7547   7.053   1.696   6.180 -1.2015 -2.0684 -0.9595
   21MOL   C308 7548   7.096   1.941   6.670 -0.1394  0.0428  0.7554
   21MOL   C309 7549   7.131   2.096   6.669  0.7163  0.6585  0.1775
   21MOL   C310 7550   7.015   2.193   6.673  0.0310  0.4639  0.3989
   21MOL   O311 7551   7.014   2.298   6.747  0.5969 -0.1325  0.3186
   21MOL   O312 7552   6.918   2.158   6.594  0.0036 -0.3549  0.3708
   21MOL   C313 7553   6.800   2.243   6.592  0.7221  0.1449 -0.0243
   21MOL   C314 7554   6.690   2.163   6.516 -0.9132 -0.3417 -0.5487
   21MOL   C315 7555   6.698   2.154   6.363 -0.3182  0.3832 -0.4511
   21MOL   H316 7556   7.094   1.910   6.775 -3.1672 -0.6825  0.5366
   21MOL   H317 7557   7.000   1.913   6.627  0.4232 -1.7351  0.6195
   21MOL   H318 7558   7.173   2.117   6.571  1.3816  2.1302  0.7585
   21MOL   H319 7559   6.772   2.264   6.695  0.9685 -0.1755  0.1091
   21MOL   H320 7560   6.832   2.336   6.547  0.0884  0.6304  0.5264
   21MOL   H321 7561   6.676   2.064   6.560  0.4960 -0.5152 -0.4635
   21MOL   H322 7562   6.591   2.199   6.545 -0.3745 -0.0766  1.0228
   21MOL   H323 7563   6.799   2.126   6.335 -0.0724  0.5169  0.2863
   21MOL   H324 7564   6.618   2.106   6.307 -0.6314 -0.5366  0.7589
   21MOL   H325 7565   6.686   2.258   6.334  0.4302  0.2076 -1.4128
   21MOL   C326 7566   7.245   2.126   6.770 -0.4080  0.3380  0.3542
   21MOL   C327 7567   7.327   2.251   6.738 -0.9405 -0.2847  0.2761
   21MOL   C328 7568   7.414   2.293   6.850 -0.0240  0.4551  0.4664
   21MOL   O329 7569   7.534   2.291   6.838  0.2831 -0.3079 -0.1894
   21MOL   O330 7570   7.342   2.321   6.961 -0.1475 -0.0465 -0.4910
   21MOL   C331 7571   7.409   2.349   7.085 -0.1077  0.6886 -0.0834
   21MOL   C332 7572   7.304   2.356   7.194  0.1442  0.4079  0.2544
   21MOL   C333 7573   7.231   2.483   7.188 -0.2588 -0.9582  0.3669
   21MOL   H334 7574   7.314   2.042   6.786 -1.8926 -0.8367  0.6725
   21MOL   H335 7575   7.192   2.149   6.862 -0.2556  1.0355  0.2684
   21MOL   H336 7576   7.259   2.337   6.733 -0.9234 -0.1179  2.3142
   21MOL   H337 7577   7.492   2.284   7.112 -0.3396  1.1885  1.9447
   21MOL   H338 7578   7.451   2.450   7.082 -1.1382  1.1732  1.1872
   21MOL   H339 7579   7.234   2.273   7.187 -0.5050  1.0200 -0.6585
   21MOL   H340 7580   7.341   2.342   7.296 -0.2234 -1.1241  0.1952
   21MOL   H341 7581   7.180   2.506   7.094  2.0311  0.2363 -0.6464
   21MOL   H342 7582   7.152   2.481   7.262  0.1940 -2.2671  0.8342
   21MOL   H343 7583   7.303   2.562   7.212 -0.1946 -1.5204  2.0676
   21MOL   C344 7584   7.394   2.254   6.598 -0.8239  0.1632 -0.5499
   21MOL   C345 7585   7.489   2.130   6.579  0.2887 -0.4274  0.0005
   21MOL   C346 7586   7.579   2.142   6.458  0.5251 -0.1299 -0.0778
   21MOL   O347 7587   7.535   2.139   6.342  0.3747 -0.6198 -0.3965
   21MOL   O348 7588   7.698   2.156   6.494 -0.3433  1.1082 -0.6728
   21MOL   C349 7589   7.803   2.172   6.404 -0.1964  0.0392  0.4405
   21MOL   C350 7590   0.052   2.159   6.484  0.2381 -0.2744  0.4110
   21MOL   C351 7591   0.066   2.024   6.552  0.0730 -0.0281  0.6302
   21MOL   H352 7592   7.461   2.339   6.592  0.6648 -0.9225  0.2923
   21MOL   H353 7593   7.316   2.261   6.523 -0.3042 -0.9261 -1.2128
   21MOL   H354 7594   7.430   2.041   6.559 -0.9274  0.7465 -1.8284
   21MOL   H355 7595   7.798   2.093   6.328  2.8263 -0.7660  0.9803
   21MOL   H356 7596   7.785   2.262   6.346  0.3468 -0.0171  0.1716
   21MOL   H357 7597   0.137   2.172   6.417  1.7314 -0.1556  2.2794
   21MOL   H358 7598   0.060   2.243   6.552 -0.5080  1.0534 -1.1202
   21MOL   H359 7599   0.071   1.941   6.481 -1.6048  2.0864 -2.0468
   21MOL   H360 7600   0.161   2.016   6.604 -1.0847  1.6225  3.0964
   21MOL   H361 7601   7.866   1.992   6.619 -0.6616  1.2163  0.3409
   21MOL   H362 7602   7.547   2.111   6.669 -0.4925 -0.5631  0.4773
   22MOL     C1 7603   5.628   7.445   2.691 -0.2052 -0.2295 -0.3881
   22MOL     C2 7604   5.506   7.390   2.612 -0.1793 -0.5349 -0.7120
   22MOL     C3 7605   5.420   7.501   2.547 -0.1275  0.6906 -0.4924
   22MOL     O4 7606   5.406   7.612   2.601  0.2077 -0.4025 -0.5589
   22MOL     O5 7607   5.370   7.469   2.425 -0.4462  0.0696 -0.0149
   22MOL     C6 7608   5.269   7.552   2.369 -0.2548  0.4411 -0.7136
   22MOL     C7 7609   5.338   7.667   2.290  0.6338  0.3893  0.0145
   22MOL     C8 7610   5.445   7.620   2.191 -0.5300  0.3817 -0.2276
   22MOL     H9 7611   5.587   7.498   2.777  2.0891  1.0656 -0.0620
   22MOL    H10 7612   5.700   7.368   2.719 -1.8930 -1.6188  0.1999
   22MOL    H11 7613   5.447   7.356   2.697 -0.9113 -3.3830 -2.2919
   22MOL    H12 7614   5.214   7.487   2.301 -0.4451 -2.2404  1.9062
   22MOL    H13 7615   5.201   7.584   2.448  1.0947  0.2904  0.5168
   22MOL    H14 7616   5.263   7.734   2.249  1.5663 -0.1423 -2.6974
   22MOL    H15 7617   5.394   7.728   2.360 -0.5174  1.3721  0.0935
   22MOL    H16 7618   5.486   7.703   2.134 -1.5577 -0.7800 -2.7232
   22MOL    H17 7619   5.527   7.568   2.241 -2.2629 -0.6140  1.6561
   22MOL    H18 7620   5.397   7.548   2.124  0.7011  0.3421 -1.0869
   22MOL    H19 7621   5.672   7.514   2.619  0.7209  0.4025  0.7613
   22MOL    C20 7622   5.549   7.275   2.522 -0.3403 -0.0329  0.5716
   22MOL    C21 7623   5.591   7.145   2.587 -0.1302 -0.6659 -0.4651
   22MOL    C22 7624   5.486   7.067   2.670 -0.8980 -0.3872  0.1794
   22MOL    O23 7625   5.372   7.112   2.672 -0.2144 -0.1023 -0.0574
   22MOL    O24 7626   5.536   6.960   2.736 -1.0638 -0.3941 -0.1341
   22MOL    C25 7627   5.454   6.872   2.818 -0.2820  0.3498 -0.4262
   22MOL    C26 7628   5.489   6.724   2.817  0.1135  0.1508 -0.1253
   22MOL    C27 7629   5.604   6.698   2.915  0.3557  0.0633 -0.3826
   22MOL    H28 7630   5.634   7.312   2.465  0.4515 -1.5589  0.7501
   22MOL    H29 7631   5.489   7.271   2.431 -2.1289  3.1622  1.5235
   22MOL    H30 7632   5.669   7.167   2.660  0.9949 -0.9966 -1.5455
   22MOL    H31 7633   5.449   6.912   2.920 -1.5100 -0.9901  0.0674
   22MOL    H32 7634   5.360   6.864   2.764 -0.8625  0.9186  0.4850
   22MOL    H33 7635   5.395   6.679   2.848 -0.6340 -0.2369 -2.8397
   22MOL    H34 7636   5.503   6.693   2.714 -0.1961 -1.1734  0.2209
   22MOL    H35 7637   5.572   6.719   3.017  0.6069 -0.8012 -0.1279
   22MOL    H36 7638   5.679   6.778   2.907 -0.0836  0.2773 -2.8776
   22MOL    H37 7639   5.644   6.597   2.923 -1.5096 -0.7703 -1.3501
   22MOL    C38 7640   5.651   7.050   2.474 -0.0813 -0.1683  0.7200
   22MOL    C39 7641   5.791   7.092   2.412 -0.9777  0.3258  0.3560
   22MOL    C40 7642   5.910   7.114   2.511 -0.2003  0.7970 -0.3082
   22MOL    O41 7643   5.987   7.027   2.532 -0.1136  0.2999 -0.0682
   22MOL    O42 7644   5.912   7.239   2.565 -0.7230 -0.6685 -0.0422
   22MOL    C43 7645   6.030   7.284   2.634 -0.3135 -0.0282  0.2676
   22MOL    C44 7646   6.073   7.245   2.775 -0.4006 -0.3491  0.6728
   22MOL    C45 7647   5.967   7.260   2.875 -0.0093  1.1117 -0.1450
   22MOL    H46 7648   5.574   7.028   2.400 -1.6461  0.7326  2.0629
   22MOL    H47 7649   5.679   6.959   2.528  1.6876 -1.3252 -2.0215
   22MOL    H48 7650   5.771   7.183   2.357  0.4738  0.3404 -0.1686
   22MOL    H49 7651   6.116   7.257   2.572  0.7031  0.3503  1.5051
   22MOL    H50 7652   6.026   7.392   2.622 -1.0445 -0.1906 -1.1150
   22MOL    H51 7653   6.096   7.138   2.774  0.7876 -0.1603 -3.5724
   22MOL    H52 7654   6.151   7.309   2.815  2.4851 -4.9918  2.9312
   22MOL    H53 7655   5.960   7.364   2.904  0.9488  1.1269  0.0393
   22MOL    H54 7656   6.004   7.195   2.955  0.1009 -0.2296 -1.2591
   22MOL    H55 7657   5.873   7.224   2.834  0.6749  0.7515 -1.4282
   22MOL    C56 7658   5.828   6.984   2.303 -0.0424  0.2554 -0.5611
   22MOL    C57 7659   5.899   7.038   2.176  0.3076 -0.4516 -0.1325
   22MOL    C58 7660   5.809   7.137   2.095 -0.5541  0.4591  0.5782
   22MOL    O59 7661   5.838   7.257   2.083 -0.0665  0.0031  0.1892
   22MOL    O60 7662   5.699   7.079   2.047  0.0372 -0.2510  0.7134
   22MOL    C61 7663   5.609   7.158   1.971  0.0356  0.1328  0.5233
   22MOL    C62 7664   5.495   7.203   2.062 -0.0190 -0.0648  0.5115
   22MOL    C63 7665   5.403   7.303   1.994 -0.1771 -0.1835 -0.2573
   22MOL    H64 7666   5.740   6.937   2.259  0.1904 -2.3838  1.6526
   22MOL    H65 7667   5.880   6.905   2.357  2.4593  1.0512 -1.7491
   22MOL    H66 7668   5.913   6.956   2.105 -0.1929  1.0120 -1.9532
   22MOL    H67 7669   5.653   7.244   1.921 -0.9601  1.4393  1.8382
   22MOL    H68 7670   5.572   7.080   1.905 -1.2462 -1.4288  2.9837
   22MOL    H69 7671   5.435   7.112   2.073 -1.3034  0.7097 -0.0042
   22MOL    H70 7672   5.529   7.245   2.157  1.3843 -0.8547  0.3668
   22MOL    H71 7673   5.453   7.396   1.964  0.9377 -0.0072  2.0083
   22MOL    H72 7674   5.306   7.322   2.040  0.0446 -0.3696  0.2859
   22MOL    H73 7675   5.374   7.257   1.900  1.8304 -2.5001  0.2022
   22MOL    C74 7676   6.041   7.095   2.193 -0.2527 -0.1195  0.1030
   22MOL    C75 7677   6.160   7.010   2.244 -0.1634  0.0172 -0.1075
   22MOL    C76 7678   6.190   6.894   2.157  0.3198  0.1921  1.1807
   22MOL    O77 7679   6.185   6.900   2.034 -0.2928 -0.6697 -0.1657
   22MOL    O78 7680   6.220   6.775   2.225 -0.0411 -0.0243  0.5317
   22MOL    C79 7681   6.251   6.655   2.160 -0.1343  0.1131  0.3046
   22MOL    C80 7682   6.397   6.625   2.157 -0.1070  0.0239  0.4393
   22MOL    C81 7683   6.442   6.481   2.116 -0.3457  0.7683 -0.8448
   22MOL    H82 7684   6.027   7.174   2.267 -0.9485  1.2758 -1.4790
   22MOL    H83 7685   6.069   7.161   2.110 -0.9923  0.9049  0.6511
   22MOL    H84 7686   6.132   6.970   2.341  1.7376 -1.2285 -0.0506
   22MOL    H85 7687   6.196   6.578   2.215 -0.4433 -0.7799 -1.2413
   22MOL    H86 7688   6.214   6.657   2.057  2.5282 -0.8749 -0.6897
   22MOL    H87 7689   6.446   6.699   2.094  0.5364  0.8968  1.9467
   22MOL    H88 7690   6.445   6.637   2.254 -1.8381  0.5186  1.2544
   22MOL    H89 7691   6.550   6.474   2.104  0.0662 -0.6495  3.0290
   22MOL    H90 7692   6.386   6.458   2.025  1.1925 -1.3147 -1.2859
   22MOL    H91 7693   6.398   6.414   2.189 -2.0309  2.2139 -0.4883
   22MOL    C92 7694   6.282   7.093   2.281 -0.3660  0.1606 -0.3555
   22MOL    C93 7695   6.371   7.015   2.369  0.3165  0.3940  0.5908
   22MOL    C94 7696   6.518   7.007   2.320 -0.3168 -0.4248 -0.5896
   22MOL    O95 7697   6.564   6.912   2.264 -0.4832 -0.2439 -0.8106
   22MOL    O96 7698   6.573   7.129   2.330  0.1209 -0.1810  0.1754
   22MOL    C97 7699   6.678   7.174   2.249 -0.0298  0.2955  0.1279
   22MOL    C98 7700   6.631   7.268   2.134  0.4405 -0.1523  0.2389
   22MOL    C99 7701   6.556   7.392   2.186  0.0797  0.0590  0.0556
   22MOL   H100 7702   6.256   7.191   2.322  0.4561  0.0649  0.4136
   22MOL   H101 7703   6.336   7.111   2.189  0.4757  0.9512  0.2824
   22MOL   H102 7704   6.339   6.911   2.376  1.3858  0.0256  0.1471
   22MOL   H103 7705   6.731   7.235   2.321  0.6606  1.8009 -1.6157
   22MOL   H104 7706   6.750   7.097   2.222  0.3070  0.8703 -0.6292
   22MOL   H105 7707   6.717   7.301   2.076 -0.2628 -0.7242 -1.1714
   22MOL   H106 7708   6.573   7.202   2.069 -0.7496  0.3417  0.7785
   22MOL   H107 7709   6.571   7.483   2.127  0.1314  0.0880  0.1154
   22MOL   H108 7710   6.590   7.418   2.286 -1.0073  0.5321  0.3094
   22MOL   H109 7711   6.449   7.369   2.193 -0.1695  0.5659 -1.7679
   22MOL   C110 7712   6.348   7.060   2.522  0.5389  0.1197 -0.6303
   22MOL   C111 7713   6.394   6.951   2.614 -0.7637  0.1085 -0.5716
   22MOL   C112 7714   6.446   7.007   2.747 -0.7976  0.0961 -0.5427
   22MOL   O113 7715   6.374   7.050   2.835  0.7108  0.2115 -0.2637
   22MOL   O114 7716   6.583   7.005   2.752 -0.5562 -0.5694 -0.0503
   22MOL   C115 7717   6.656   7.069   2.849 -0.1280 -0.5763  0.0074
   22MOL   C116 7718   6.800   7.068   2.829 -0.0786 -0.6611  0.2210
   22MOL   C117 7719   6.853   7.131   2.697  1.1470 -0.5038  0.1031
   22MOL   H118 7720   6.244   7.082   2.543  0.3124 -1.5031 -0.0093
   22MOL   H119 7721   6.405   7.152   2.536  0.3680  0.3475 -1.3917
   22MOL   H120 7722   6.476   6.901   2.561  0.2724  0.7647  0.4008
   22MOL   H121 7723   6.623   7.172   2.865 -1.4107 -0.7333 -1.5249
   22MOL   H122 7724   6.640   7.020   2.946 -0.9990  1.0031  0.6818
   22MOL   H123 7725   6.838   7.128   2.912  1.0196 -0.2116 -0.6004
   22MOL   H124 7726   6.850   6.971   2.830 -0.0681 -0.6553  0.4048
   22MOL   H125 7727   6.773   7.197   2.667 -0.1418 -0.2867  3.7819
   22MOL   H126 7728   6.858   7.051   2.622 -2.6011  0.1142 -0.8813
   22MOL   H127 7729   6.944   7.185   2.723  1.8561 -0.7029 -1.8317
   22MOL   C128 7730   6.281   6.846   2.640 -0.1888  0.8578  0.1819
   22MOL   C129 7731   6.333   6.700   2.649 -0.4406  0.1911  0.3445
   22MOL   C130 7732   6.358   6.642   2.788 -0.3898 -0.2422 -0.5126
   22MOL   O131 7733   6.287   6.574   2.853  0.1001 -0.1744 -0.6438
   22MOL   O132 7734   6.483   6.678   2.830 -0.2332  0.0816  0.4360
   22MOL   C133 7735   6.523   6.634   2.954  0.3692 -0.2237  0.2573
   22MOL   C134 7736   6.672   6.662   2.982 -0.4242 -1.3160 -0.1057
   22MOL   C135 7737   6.764   6.561   2.905  0.4708  0.6244  1.0308
   22MOL   H136 7738   6.218   6.854   2.551  0.2029  1.3644 -0.0587
   22MOL   H137 7739   6.229   6.883   2.728 -1.2726  0.4447 -0.2803
   22MOL   H138 7740   6.428   6.709   2.597 -1.4260  0.6692 -1.4495
   22MOL   H139 7741   6.463   6.673   3.036  0.2613 -2.1245  1.1119
   22MOL   H140 7742   6.508   6.526   2.963 -0.8445 -0.1351 -0.7167
   22MOL   H141 7743   6.705   6.763   2.961 -1.2184 -0.7265  1.3829
   22MOL   H142 7744   6.695   6.642   3.087 -0.3579  2.5708  0.6691
   22MOL   H143 7745   6.738   6.467   2.953  0.2042  0.2424  0.1658
   22MOL   H144 7746   6.871   6.576   2.917  0.6644 -0.0685  0.2603
   22MOL   H145 7747   6.745   6.564   2.797  2.5635 -0.6664  0.5767
   22MOL   C146 7748   6.245   6.604   2.567 -0.3036  0.4057  0.1353
   22MOL   C147 7749   6.296   6.456   2.559 -0.5902 -0.1418 -0.0234
   22MOL   C148 7750   6.194   6.368   2.494 -0.3097  0.2786  0.1137
   22MOL   O149 7751   6.161   6.257   2.542  0.4424 -0.4478 -0.3942
   22MOL   O150 7752   6.145   6.414   2.384  0.2741  0.1900  0.4121
   22MOL   C151 7753   6.026   6.369   2.324 -0.9243 -1.0733  0.0633
   22MOL   C152 7754   5.936   6.495   2.289 -0.3373 -0.0624 -0.0809
   22MOL   C153 7755   5.801   6.451   2.224  0.4409  0.3568  0.2420
   22MOL   H154 7756   6.239   6.650   2.469  3.1356  1.0816  0.1695
   22MOL   H155 7757   6.143   6.596   2.605  0.6747  0.3985  2.9383
   22MOL   H156 7758   6.305   6.424   2.663 -1.6230 -0.5428 -0.0568
   22MOL   H157 7759   6.063   6.322   2.233  3.1927 -0.1593  1.1459
   22MOL   H158 7760   5.973   6.294   2.383 -2.2932 -0.0804  0.1242
   22MOL   H159 7761   5.910   6.542   2.384 -1.1070 -1.4242  0.4084
   22MOL   H160 7762   5.998   6.569   2.239  0.1123 -1.0405 -0.9895
   22MOL   H161 7763   5.822   6.400   2.129 -0.9294 -1.1300  0.7099
   22MOL   H162 7764   5.746   6.543   2.201  0.5874  0.7374  1.3978
   22MOL   H163 7765   5.740   6.386   2.287  0.6919 -0.4128 -0.2978
   22MOL   C164 7766   6.431   6.446   2.488 -1.2320  1.0311 -0.4218
   22MOL   C165 7767   6.562   6.456   2.574  0.1792  0.2506 -0.2751
   22MOL   C166 7768   6.588   6.339   2.676 -0.3910 -0.2208  0.7456
   22MOL   O167 7769   6.674   6.250   2.660  0.7890 -0.2550  0.6865
   22MOL   O168 7770   6.513   6.352   2.785 -0.5058  0.0547 -0.2193
   22MOL   C169 7771   6.520   6.247   2.892 -0.3081  0.7790  0.3472
   22MOL   C170 7772   6.391   6.237   2.978 -0.0444  0.5664  0.2871
   22MOL   C171 7773   6.270   6.192   2.898 -0.1982  0.1116 -0.1733
   22MOL   H172 7774   6.430   6.511   2.400  0.3621  0.1527 -1.1042
   22MOL   H173 7775   6.440   6.349   2.440  0.3307  0.8177  0.2732
   22MOL   H174 7776   6.549   6.547   2.633 -1.8140 -0.5064  0.4818
   22MOL   H175 7777   6.537   6.144   2.862  0.3390  1.5626 -2.0731
   22MOL   H176 7778   6.604   6.277   2.955  0.5065 -1.0891  0.1767
   22MOL   H177 7779   6.405   6.162   3.055 -0.2241 -0.1356 -0.3660
   22MOL   H178 7780   6.368   6.325   3.039 -1.2691  2.0532 -2.2013
   22MOL   H179 7781   6.198   6.150   2.968  0.8580  0.6817  1.2921
   22MOL   H180 7782   6.289   6.108   2.830  0.7417 -0.6920  1.0534
   22MOL   H181 7783   6.210   6.271   2.854 -4.1970 -1.1755  2.6673
   22MOL   C182 7784   6.690   6.482   2.487 -0.3385  0.2848  0.3372
   22MOL   C183 7785   6.713   6.628   2.439 -0.0939 -0.2576  0.3496
   22MOL   C184 7786   6.781   6.713   2.545 -0.4135 -0.2918  0.5123
   22MOL   O185 7787   6.739   6.823   2.585  0.1986 -0.1318  0.2669
   22MOL   O186 7788   6.905   6.659   2.580  0.1290 -0.2490 -0.2715
   22MOL   C187 7789   6.979   6.738   2.671 -0.3265 -0.2949 -0.1733
   22MOL   C188 7790   7.118   6.761   2.617  0.7678  0.6910 -0.4999
   22MOL   C189 7791   7.199   6.870   2.692 -0.0299 -0.0373  0.7368
   22MOL   H190 7792   6.665   6.424   2.398 -1.0110  1.0236  0.0367
   22MOL   H191 7793   6.778   6.434   2.530  0.9632  1.8870 -0.4939
   22MOL   H192 7794   6.614   6.672   2.424  0.1329  0.2534  0.3406
   22MOL   H193 7795   6.932   6.835   2.686  0.4504 -0.3897  3.3188
   22MOL   H194 7796   6.977   6.690   2.769 -0.7091 -0.2624 -0.1643
   22MOL   H195 7797   7.169   6.665   2.606  1.7183  0.9611  1.3228
   22MOL   H196 7798   7.105   6.796   2.515  0.4512 -1.6383 -1.2966
   22MOL   H197 7799   7.286   6.897   2.633 -0.9976  1.3163 -0.0970
   22MOL   H198 7800   7.229   6.826   2.787  1.1780  0.1267  0.4380
   22MOL   H199 7801   7.130   6.954   2.703  3.0096  3.0378 -2.3828
   22MOL   C200 7802   6.783   6.642   2.306  0.6290  0.2109 -0.0319
   22MOL   C201 7803   6.938   6.614   2.293 -0.0795  0.0645 -0.0697
   22MOL   C202 7804   6.981   6.473   2.309  0.2879  0.8547  0.3232
   22MOL   O203 7805   7.085   6.435   2.363 -0.5828  0.2751 -0.5191
   22MOL   O204 7806   6.896   6.389   2.248  0.0445  0.2779 -1.0815
   22MOL   C205 7807   6.938   6.253   2.242  0.0533  0.5499  0.3413
   22MOL   C206 7808   6.813   6.168   2.205 -0.1629  0.2070  0.3956
   22MOL   C207 7809   6.762   6.189   2.064  1.3156 -0.6350  0.0372
   22MOL   H208 7810   6.774   6.743   2.268  3.8140  0.5878  0.0295
   22MOL   H209 7811   6.728   6.582   2.233  2.3748  0.6965 -1.7828
   22MOL   H210 7812   6.995   6.673   2.366 -1.0680 -1.9556  2.4056
   22MOL   H211 7813   7.015   6.249   2.164 -0.1540  0.2179  0.1522
   22MOL   H212 7814   6.984   6.228   2.338  1.4717  1.7933  0.0110
   22MOL   H213 7815   6.859   6.069   2.201 -0.6960  0.0251 -2.2006
   22MOL   H214 7816   6.735   6.179   2.280 -1.6922 -0.0887 -1.0928
   22MOL   H215 7817   6.846   6.189   1.994  1.2101 -0.1290 -0.0905
   22MOL   H216 7818   6.705   6.282   2.059  0.5509 -0.9346  2.5362
   22MOL   H217 7819   6.697   6.106   2.036  1.6294 -1.3755  1.5090
   22MOL   C218 7820   7.007   6.659   2.163  0.2755  0.1950 -0.1100
   22MOL   C219 7821   6.972   6.599   2.024 -0.5482 -0.1001  0.4976
   22MOL   C220 7822   6.833   6.650   1.978  0.0600  0.6820  0.5706
   22MOL   O221 7823   6.740   6.573   1.956 -0.1313 -0.4967  0.0209
   22MOL   O222 7824   6.830   6.787   1.948  0.2729 -0.6043  0.0800
   22MOL   C223 7825   6.720   6.833   1.872  0.5024  0.0316  0.1345
   22MOL   C224 7826   6.621   6.905   1.968 -0.2017  0.5304 -0.2704
   22MOL   C225 7827   6.519   6.980   1.883 -0.4999  0.3876 -0.3527
   22MOL   H226 7828   7.113   6.642   2.176  0.1278 -0.3800  0.3157
   22MOL   H227 7829   6.996   6.767   2.147  1.3722  0.4470  0.8120
   22MOL   H228 7830   6.972   6.490   2.031 -0.8057 -0.2060 -0.9602
   22MOL   H229 7831   6.769   6.901   1.803  0.4319  1.0794  1.0945
   22MOL   H230 7832   6.671   6.755   1.814  0.9756  0.8660 -1.4131
   22MOL   H231 7833   6.569   6.841   2.038 -0.2996  1.8955  0.9360
   22MOL   H232 7834   6.679   6.972   2.031  2.3441 -3.2295  1.5298
   22MOL   H233 7835   6.438   7.019   1.945 -2.0169 -1.0505 -1.4041
   22MOL   H234 7836   6.484   6.919   1.801  0.2517  1.6198 -1.6081
   22MOL   H235 7837   6.568   7.071   1.848  2.6630 -0.9635  0.3521
   22MOL   C236 7838   7.095   6.633   1.924  0.1019 -0.1427 -0.5966
   22MOL   C237 7839   7.109   6.560   1.783 -0.6367 -0.0732  0.2191
   22MOL   C238 7840   7.155   6.408   1.808  0.2751  0.1169  0.6250
   22MOL   O239 7841   7.186   6.371   1.922 -0.1844  0.2294 -0.4618
   22MOL   O240 7842   7.144   6.328   1.703 -0.8013  0.0834  0.3150
   22MOL   C241 7843   7.194   6.196   1.715  0.0449  0.4238 -0.3321
   22MOL   C242 7844   7.235   6.136   1.581  0.5651  0.0889 -0.4221
   22MOL   C243 7845   7.285   5.991   1.606 -0.2696 -0.4015 -0.4781
   22MOL   H244 7846   7.189   6.621   1.978  1.2816  1.3724 -2.2626
   22MOL   H245 7847   7.080   6.740   1.912 -1.9923 -0.2844  0.6357
   22MOL   H246 7848   7.198   6.600   1.734  0.3022 -2.6309 -0.2691
   22MOL   H247 7849   7.276   6.183   1.786 -0.3257  1.9011  0.3874
   22MOL   H248 7850   7.105   6.144   1.750 -0.8849  1.0074 -1.7752
   22MOL   H249 7851   7.153   6.143   1.509  1.2421  3.0475 -0.9790
   22MOL   H250 7852   7.324   6.177   1.533  0.7644 -1.7925 -1.7257
   22MOL   H251 7853   7.336   5.951   1.519  0.2944  0.1069 -0.3791
   22MOL   H252 7854   7.200   5.924   1.623 -0.4444  0.4765  2.5174
   22MOL   H253 7855   7.364   5.973   1.679 -0.2034 -0.4384 -0.5598
   22MOL   C254 7856   7.002   6.587   1.672 -0.4776  0.2080  0.0430
   22MOL   C255 7857   6.970   6.735   1.634 -0.2851 -0.3265 -0.2575
   22MOL   C256 7858   7.073   6.791   1.538  0.8469 -0.7224  0.3179
   22MOL   O257 7859   7.161   6.729   1.480  0.8715  0.7023  0.4784
   22MOL   O258 7860   7.065   6.928   1.535  0.5970  0.3916  0.9891
   22MOL   C259 7861   7.138   6.991   1.430 -0.0456  0.5383 -0.4083
   22MOL   C260 7862   7.156   7.147   1.470  1.7032  0.3709 -0.0083
   22MOL   C261 7863   7.234   7.236   1.382  0.1073  0.5496 -0.1980
   22MOL   H262 7864   6.907   6.547   1.709 -0.5736  1.1203  0.8184
   22MOL   H263 7865   7.022   6.532   1.580  1.0458  1.2511 -0.2647
   22MOL   H264 7866   6.976   6.779   1.733  0.7744  0.4502 -0.6637
   22MOL   H265 7867   7.242   6.963   1.413  0.1105  0.6558  0.3632
   22MOL   H266 7868   7.092   6.987   1.331  1.7455 -1.7353 -1.2087
   22MOL   H267 7869   7.057   7.190   1.489  1.8743  0.5236  0.5527
   22MOL   H268 7870   7.198   7.165   1.569 -0.4055 -1.1443  1.2037
   22MOL   H269 7871   7.335   7.197   1.377 -0.5977 -1.2364 -0.6966
   22MOL   H270 7872   7.241   7.340   1.415  1.7406 -0.1924  1.8726
   22MOL   H271 7873   7.191   7.235   1.282 -1.0818  1.8319  0.2696
   22MOL   C272 7874   6.824   6.751   1.578  0.2356 -0.3210  0.3942
   22MOL   C273 7875   6.799   6.741   1.423 -0.0947  0.7414  0.6757
   22MOL   C274 7876   6.786   6.588   1.382  0.7268  0.7450 -0.5772
   22MOL   O275 7877   6.678   6.534   1.414 -0.1129  0.5274  0.1775
   22MOL   O276 7878   6.891   6.535   1.319  0.0160 -0.6989 -0.0356
   22MOL   C277 7879   6.888   6.393   1.280 -0.1114 -0.6460 -0.2932
   22MOL   C278 7880   7.023   6.345   1.225 -0.0618  0.4363 -0.2612
   22MOL   C279 7881   7.140   6.404   1.307  0.2345  0.0364  0.0919
   22MOL   H280 7882   6.802   6.856   1.598 -1.6265 -0.6320  0.0486
   22MOL   H281 7883   6.750   6.687   1.625  1.9867 -0.8510  2.5310
   22MOL   H282 7884   6.887   6.783   1.376  0.8824 -3.0896 -1.1177
   22MOL   H283 7885   6.859   6.337   1.369  0.1266 -0.6918 -0.2448
   22MOL   H284 7886   6.801   6.374   1.216  1.1542  1.4337 -2.7336
   22MOL   H285 7887   7.016   6.236   1.227 -0.6368  0.4610 -0.9610
   22MOL   H286 7888   7.035   6.371   1.120  2.3579  0.5740  0.0273
   22MOL   H287 7889   7.111   6.391   1.411  1.9821 -0.2108  0.5512
   22MOL   H288 7890   7.160   6.508   1.281  0.3822 -0.3585 -1.4516
   22MOL   H289 7891   7.219   6.331   1.292 -0.7235 -0.8118 -1.0243
   22MOL   C290 7892   6.671   6.814   1.376  0.1199 -0.0130 -0.0831
   22MOL   C291 7893   6.698   6.945   1.295 -0.3682  0.0457 -0.4567
   22MOL   C292 7894   6.771   6.912   1.159 -0.0519  0.4768 -0.1865
   22MOL   O293 7895   6.890   6.926   1.134  0.3851 -0.0330 -0.2159
   22MOL   O294 7896   6.681   6.864   1.069  0.3557  0.3440 -0.4585
   22MOL   C295 7897   6.716   6.846   0.932  0.7196  0.6605 -0.2204
   22MOL   C296 7898   6.685   6.697   0.901  1.1917 -0.5446 -0.6203
   22MOL   C297 7899   6.764   6.610   0.996 -0.3943  0.7813 -0.3881
   22MOL   H298 7900   6.618   6.843   1.467  1.0274 -1.9812  1.1060
   22MOL   H299 7901   6.596   6.756   1.324  0.7657  1.6187 -2.9070
   22MOL   H300 7902   6.777   6.998   1.349  0.5960  0.1452 -1.9337
   22MOL   H301 7903   6.660   6.914   0.867 -1.3695 -1.6954 -0.9419
   22MOL   H302 7904   6.824   6.855   0.918  0.7919 -1.9243 -1.4901
   22MOL   H303 7905   6.577   6.686   0.908  1.0616  1.1327  0.3902
   22MOL   H304 7906   6.709   6.675   0.797  0.1529 -1.2021 -0.7291
   22MOL   H305 7907   6.708   6.589   1.088 -1.3687 -0.8401 -1.3381
   22MOL   H306 7908   6.863   6.650   1.019 -0.2587 -1.3789  3.2754
   22MOL   H307 7909   6.772   6.509   0.956  1.2273  0.8033 -0.1513
   22MOL   C308 7910   6.578   7.044   1.286 -0.4782  0.3072  0.2506
   22MOL   C309 7911   6.544   7.122   1.411  0.4059 -0.5321  0.2685
   22MOL   C310 7912   6.661   7.210   1.463 -0.0450 -0.4831 -0.1158
   22MOL   O311 7913   6.688   7.204   1.582 -0.3092  0.2975  0.0662
   22MOL   O312 7914   6.724   7.287   1.368 -0.7014  0.2414  0.1522
   22MOL   C313 7915   6.813   7.381   1.398 -0.0058  0.7557 -0.5460
   22MOL   C314 7916   6.909   7.416   1.276  1.2084  0.1326 -0.0489
   22MOL   C315 7917   6.998   7.532   1.309 -0.9568 -0.0065  0.0208
   22MOL   H316 7918   6.490   6.981   1.269 -1.7679  2.1867 -0.1379
   22MOL   H317 7919   6.589   7.110   1.201  0.3708 -0.0799  0.0548
   22MOL   H318 7920   6.505   7.064   1.495  0.7085 -2.1191 -0.6642
   22MOL   H319 7921   6.765   7.465   1.449 -1.0792 -1.1644  1.7133
   22MOL   H320 7922   6.875   7.339   1.477  1.2318  1.7724 -0.9655
   22MOL   H321 7923   6.967   7.324   1.267 -0.9721 -1.2721 -0.0515
   22MOL   H322 7924   6.864   7.438   1.180  2.1008  2.0207 -0.0693
   22MOL   H323 7925   7.072   7.561   1.235  1.3477 -2.7026  1.1716
   22MOL   H324 7926   6.936   7.617   1.338  0.2977  0.4499  1.4315
   22MOL   H325 7927   7.062   7.513   1.395  0.8707 -0.5616 -1.4367
   22MOL   C326 7928   6.430   7.219   1.375 -0.2852 -0.3749  0.0090
   22MOL   C327 7929   6.292   7.153   1.344  1.1105  0.7322  0.0377
   22MOL   C328 7930   6.253   7.051   1.450 -0.0807  0.0547 -0.4622
   22MOL   O329 7931   6.271   6.931   1.430  0.3096 -0.1769 -0.3363
   22MOL   O330 7932   6.223   7.108   1.572  0.5059 -0.0017  0.9646
   22MOL   C331 7933   6.196   7.034   1.684 -0.5397  0.1346 -0.2583
   22MOL   C332 7934   6.043   7.003   1.698 -0.6756 -0.0142 -0.4560
   22MOL   C333 7935   5.972   7.127   1.740  0.0722 -0.3284  0.6746
   22MOL   H334 7936   6.456   7.287   1.294 -0.8027  0.4947  0.5620
   22MOL   H335 7937   6.419   7.273   1.470  2.4030 -2.6416  1.6962
   22MOL   H336 7938   6.283   7.091   1.255  1.5431 -3.6956  2.9383
   22MOL   H337 7939   6.242   6.935   1.676  1.0687  0.6231  2.2867
   22MOL   H338 7940   6.224   7.072   1.782 -0.8190 -2.0934  0.7360
   22MOL   H339 7941   6.004   6.982   1.599  0.5184  2.1804 -1.4251
   22MOL   H340 7942   6.030   6.928   1.776  0.5229 -1.4244 -1.5781
   22MOL   H341 7943   5.994   7.160   1.842  0.0324  0.4538  0.4308
   22MOL   H342 7944   5.990   7.209   1.670 -2.2226  0.3686  0.8746
   22MOL   H343 7945   5.866   7.105   1.737 -0.3002  1.5721 -0.7675
   22MOL   C344 7946   6.176   7.254   1.331 -0.1932  0.6672  0.6320
   22MOL   C345 7947   6.194   7.365   1.226 -0.4830 -0.0320  0.3310
   22MOL   C346 7948   6.177   7.317   1.080  0.1553 -0.2718  0.4573
   22MOL   O347 7949   6.077   7.354   1.014  0.2952 -0.0530 -0.1098
   22MOL   O348 7950   6.279   7.238   1.042  0.0939  0.1392 -0.2036
   22MOL   C349 7951   6.279   7.188   0.914  0.2321 -0.3704  0.1043
   22MOL   C350 7952   6.392   7.081   0.896  0.4509 -0.0439  0.7245
   22MOL   C351 7953   6.379   6.950   0.980  0.3379  0.5607  0.5392
   22MOL   H352 7954   6.167   7.313   1.423  2.0248  2.1729 -0.0764
   22MOL   H353 7955   6.083   7.205   1.305 -0.2749  1.2734 -0.2245
   22MOL   H354 7956   6.283   7.426   1.243  0.0910 -0.9623  0.7124
   22MOL   H355 7957   6.183   7.141   0.895  0.1591  0.2148 -1.0411
   22MOL   H356 7958   6.293   7.269   0.842 -2.3684  0.0802  0.0816
   22MOL   H357 7959   6.379   7.041   0.796  1.2251 -0.2955  0.7160
   22MOL   H358 7960   6.489   7.131   0.901  0.3254  0.1613  1.1278
   22MOL   H359 7961   6.387   6.965   1.088  1.3136  1.5711  0.3298
   22MOL   H360 7962   6.278   6.911   0.969  0.7879  0.1038 -2.3209
   22MOL   H361 7963   6.448   6.873   0.947 -1.6097 -1.4106  0.9759
   22MOL   H362 7964   6.106   7.427   1.243 -0.1725  0.8112 -1.0556
   23MOL     C1 7965   6.227   2.993   5.910  0.5569 -0.2468 -0.0441
   23MOL     C2 7966   6.249   2.865   5.998 -0.2481  0.3342  0.4269
   23MOL     C3 7967   6.113   2.813   6.051  1.0140  0.1548  0.4475
   23MOL     O4 7968   6.047   2.724   5.998 -0.3794 -0.2443  0.0162
   23MOL     O5 7969   6.067   2.903   6.141 -0.1757  0.0107  0.0770
   23MOL     C6 7970   5.945   2.889   6.199 -0.5845 -0.3257  0.2432
   23MOL     C7 7971   5.948   2.777   6.304 -0.5414 -0.2959  1.1280
   23MOL     C8 7972   5.817   2.775   6.382  0.3570 -0.4630 -0.2514
   23MOL     H9 7973   6.185   3.066   5.979  1.0820 -1.4563  1.5977
   23MOL    H10 7974   6.327   3.032   5.890 -0.4459  1.5181 -1.6462
   23MOL    H11 7975   6.310   2.879   6.088 -1.3995 -0.8387  1.4056
   23MOL    H12 7976   5.920   2.984   6.247  1.4254 -0.4850  1.6874
   23MOL    H13 7977   5.868   2.873   6.125 -2.3623  1.8239  1.5689
   23MOL    H14 7978   5.965   2.676   6.266 -2.6477  0.6930 -2.7556
   23MOL    H15 7979   6.031   2.799   6.371 -0.3839  2.2423  0.1577
   23MOL    H16 7980   5.744   2.712   6.331  0.3300 -0.5781 -0.0719
   23MOL    H17 7981   5.825   2.729   6.480 -0.0052 -0.7552 -0.3566
   23MOL    H18 7982   5.781   2.877   6.393 -2.3513 -1.4120  0.0638
   23MOL    H19 7983   6.175   2.976   5.816 -1.4131 -1.9886  1.3315
   23MOL    C20 7984   6.323   2.767   5.909  0.8510  0.6529  0.4397
   23MOL    C21 7985   6.404   2.657   5.998 -0.1845  0.4725  0.7306
   23MOL    C22 7986   6.428   2.539   5.904  0.3483 -0.1730 -0.8508
   23MOL    O23 7987   6.408   2.421   5.944 -0.6221  0.1332  0.1788
   23MOL    O24 7988   6.483   2.579   5.786 -0.2776 -0.0593 -0.0341
   23MOL    C25 7989   6.522   2.478   5.699  0.8598 -0.6510  0.2637
   23MOL    C26 7990   6.651   2.522   5.640 -0.6183  0.1657  0.2668
   23MOL    C27 7991   6.645   2.648   5.552 -0.1570  0.1715 -0.8820
   23MOL    H28 7992   6.397   2.821   5.850  0.4930 -0.4197 -1.0134
   23MOL    H29 7993   6.256   2.716   5.839  2.6696  1.3782 -1.8616
   23MOL    H30 7994   6.332   2.616   6.069 -0.2219  0.6794  0.8133
   23MOL    H31 7995   6.539   2.384   5.751  0.9268 -0.7265  0.1042
   23MOL    H32 7996   6.445   2.460   5.624  0.5402  0.2722  0.3631
   23MOL    H33 7997   6.722   2.528   5.722  1.3765 -0.1746 -1.3939
   23MOL    H34 7998   6.685   2.450   5.566 -1.4737  1.8415 -1.8021
   23MOL    H35 7999   6.568   2.639   5.476 -0.2740 -1.8118 -0.5418
   23MOL    H36 8000   6.740   2.679   5.507 -0.2036  1.9974  0.1993
   23MOL    H37 8001   6.626   2.745   5.600 -0.7031 -0.0362 -0.6770
   23MOL    C38 8002   6.534   2.700   6.067  0.5723 -0.1895  0.5547
   23MOL    C39 8003   6.592   2.604   6.171 -0.1806  0.6803 -0.5762
   23MOL    C40 8004   6.723   2.532   6.119 -0.0410 -0.3632  0.7432
   23MOL    O41 8005   6.727   2.415   6.086 -0.4303 -0.0540 -0.2598
   23MOL    O42 8006   6.832   2.612   6.109  0.0544 -0.4165  1.1404
   23MOL    C43 8007   6.962   2.548   6.122  0.1860 -0.4434 -0.3685
   23MOL    C44 8008   6.997   2.522   6.273 -0.7021 -0.0222  0.7636
   23MOL    C45 8009   7.005   2.651   6.357  0.0962 -0.3505 -0.0883
   23MOL    H46 8010   6.515   2.791   6.124  1.0534 -0.7663  1.6492
   23MOL    H47 8011   6.616   2.720   5.999  0.1138  0.7090  0.2555
   23MOL    H48 8012   6.524   2.520   6.186  1.2647 -0.3697  0.2453
   23MOL    H49 8013   6.966   2.449   6.078 -1.0947 -1.2666  1.3234
   23MOL    H50 8014   7.039   2.615   6.084 -0.6655  0.8263  0.1182
   23MOL    H51 8015   6.919   2.460   6.318  1.4130 -1.2656  2.7917
   23MOL    H52 8016   7.077   2.449   6.279 -0.2668  0.2279 -1.4158
   23MOL    H53 8017   7.013   2.625   6.463 -1.2007 -2.0301 -0.3908
   23MOL    H54 8018   6.918   2.711   6.331  0.5110  0.2719 -0.0662
   23MOL    H55 8019   7.095   2.711   6.340  0.5582 -0.2697  2.3801
   23MOL    C56 8020   6.614   2.665   6.317 -0.3284  0.0067  0.1077
   23MOL    C57 8021   6.485   2.668   6.401 -0.4246 -0.0427 -0.1675
   23MOL    C58 8022   6.430   2.530   6.436  0.3715 -0.5361 -0.6117
   23MOL    O59 8023   6.505   2.446   6.482  0.9402  0.8373  0.0432
   23MOL    O60 8024   6.305   2.519   6.392 -0.1303  0.2016 -0.3616
   23MOL    C61 8025   6.253   2.389   6.384 -0.3354 -0.3612  0.0237
   23MOL    C62 8026   6.109   2.390   6.345 -0.6678 -0.2472 -0.2912
   23MOL    C63 8027   6.092   2.396   6.191  0.3486  0.1546 -0.4789
   23MOL    H64 8028   6.679   2.752   6.326  1.3747 -1.0641 -1.4227
   23MOL    H65 8029   6.688   2.601   6.366  0.1159  0.7524  0.4222
   23MOL    H66 8030   6.409   2.716   6.339  1.6853  1.2149 -1.8323
   23MOL    H67 8031   6.317   2.326   6.322 -2.5945 -1.3132 -1.4194
   23MOL    H68 8032   6.246   2.330   6.475 -2.0774  0.2589  0.3075
   23MOL    H69 8033   6.062   2.303   6.392  0.8099 -1.1866 -0.5381
   23MOL    H70 8034   6.068   2.480   6.392  1.0546  0.0441  0.6778
   23MOL    H71 8035   6.127   2.489   6.147 -0.9520  1.3310  0.9274
   23MOL    H72 8036   5.990   2.392   6.154  0.4906 -4.7635 -0.6760
   23MOL    H73 8037   6.147   2.325   6.129  0.4185  0.3363 -0.6246
   23MOL    C74 8038   6.504   2.738   6.542  0.2983 -0.4259 -0.2180
   23MOL    C75 8039   6.551   2.884   6.536 -0.1138 -0.3400 -0.1837
   23MOL    C76 8040   6.474   2.977   6.431  0.2140  0.1561 -0.1047
   23MOL    O77 8041   6.526   2.998   6.316  0.2141 -0.2486 -0.2637
   23MOL    O78 8042   6.354   2.994   6.472  0.0920 -0.1738 -0.1145
   23MOL    C79 8043   6.258   3.042   6.380 -0.3590 -0.1920  0.2020
   23MOL    C80 8044   6.207   3.184   6.417  0.4515  0.2005 -0.2215
   23MOL    C81 8045   6.099   3.224   6.317  0.6630 -0.6608 -0.1434
   23MOL    H82 8046   6.575   2.677   6.598 -0.7123 -0.9312  0.5371
   23MOL    H83 8047   6.414   2.732   6.603  0.6708 -0.0553  0.3698
   23MOL    H84 8048   6.657   2.886   6.509  0.4618  0.8616  2.0460
   23MOL    H85 8049   6.290   3.052   6.276 -1.5951  2.0410  0.0258
   23MOL    H86 8050   6.174   2.972   6.384 -0.7167  0.0988 -1.7257
   23MOL    H87 8051   6.174   3.176   6.520  0.9909  2.7826  0.1936
   23MOL    H88 8052   6.285   3.260   6.426 -0.5962  1.1857  0.5511
   23MOL    H89 8053   6.063   3.321   6.351  0.3457 -0.6564 -0.4862
   23MOL    H90 8054   6.014   3.156   6.320 -0.6134  0.7479 -2.9523
   23MOL    H91 8055   6.123   3.242   6.212  0.9515 -1.5461 -0.2338
   23MOL    C92 8056   6.561   2.956   6.680  0.0511 -0.2478  1.2510
   23MOL    C93 8057   6.681   2.910   6.758 -0.3172  0.4882 -0.8661
   23MOL    C94 8058   6.814   2.976   6.717 -0.6815 -0.2873  0.3102
   23MOL    O95 8059   6.849   3.085   6.763  0.3633  0.1534  0.3993
   23MOL    O96 8060   6.883   2.903   6.629 -0.0396 -0.2088 -0.0237
   23MOL    C97 8061   7.004   2.964   6.578 -0.1273 -0.0427 -0.3916
   23MOL    C98 8062   6.984   3.021   6.440  0.4589 -0.1728  0.9979
   23MOL    C99 8063   6.868   3.112   6.424  0.2844  0.3514  0.4467
   23MOL   H100 8064   6.469   2.944   6.738 -0.1611 -1.1873  0.7284
   23MOL   H101 8065   6.566   3.063   6.661 -1.3334 -0.4506 -0.2838
   23MOL   H102 8066   6.695   2.802   6.748  1.2046  0.6553 -0.5917
   23MOL   H103 8067   7.056   3.037   6.639 -0.7864 -0.9957  1.3441
   23MOL   H104 8068   7.080   2.886   6.582 -0.4577 -0.4730 -2.1401
   23MOL   H105 8069   7.081   3.064   6.416  0.4129 -0.6720 -0.1111
   23MOL   H106 8070   6.981   2.942   6.365  2.6720 -1.4987  2.2495
   23MOL   H107 8071   6.853   3.158   6.326 -3.1143 -1.2404  0.1372
   23MOL   H108 8072   6.865   3.202   6.485  0.9052 -0.6724  2.0071
   23MOL   H109 8073   6.770   3.071   6.450  0.1419  2.4738  3.4492
   23MOL   C110 8074   6.667   2.927   6.911 -0.1856 -0.7488 -0.8375
   23MOL   C111 8075   6.571   2.829   6.982  0.1829  0.1418  0.2720
   23MOL   C112 8076   6.597   2.680   6.947 -0.5525 -0.6313  0.0818
   23MOL   O113 8077   6.524   2.613   6.877  0.3469  0.0664 -0.1617
   23MOL   O114 8078   6.715   2.637   7.006  0.8635  0.3529  0.6061
   23MOL   C115 8079   6.764   2.503   7.009  0.4053 -0.9424 -0.6018
   23MOL   C116 8080   6.701   2.438   7.136 -0.2032 -0.6612 -0.3663
   23MOL   C117 8081   6.771   2.486   7.261 -0.0450 -0.0383 -0.7864
   23MOL   H118 8082   6.639   3.030   6.937  0.2635 -0.7682 -0.2532
   23MOL   H119 8083   6.767   2.909   6.952 -0.1560 -2.7512 -1.7553
   23MOL   H120 8084   6.469   2.856   6.955 -0.4720 -1.9473  0.6112
   23MOL   H121 8085   6.729   2.444   6.924 -0.3994 -1.3711  0.0322
   23MOL   H122 8086   6.872   2.502   7.022  0.2820 -0.9377  0.4008
   23MOL   H123 8087   6.593   2.452   7.146  0.3345  3.1151  0.7256
   23MOL   H124 8088   6.716   2.330   7.137 -0.6390 -0.7219  2.2049
   23MOL   H125 8089   6.718   2.446   7.347 -2.6215  0.6811 -1.9902
   23MOL   H126 8090   6.764   2.595   7.263  1.1472  0.0699 -1.9966
   23MOL   H127 8091   6.879   2.475   7.249  0.2596  0.7212  1.0667
   23MOL   C128 8092   6.581   2.847   7.139 -0.4389  0.5548  0.9869
   23MOL   C129 8093   6.497   2.956   7.211 -0.2381 -0.1845 -0.7252
   23MOL   C130 8094   6.348   2.931   7.209  0.1347 -0.0665  0.3529
   23MOL   O131 8095   6.271   3.021   7.172  0.2734  0.0718  0.3707
   23MOL   O132 8096   6.319   2.807   7.256 -0.7016  0.0093  0.1428
   23MOL   C133 8097   6.189   2.759   7.253 -0.0152 -0.1570 -0.5824
   23MOL   C134 8098   6.189   2.611   7.292 -0.3147 -0.1503 -0.3933
   23MOL   C135 8099   6.237   2.523   7.182  0.2389  1.1156  0.1614
   23MOL   H136 8100   6.686   2.856   7.167  0.1156 -0.9205 -0.5566
   23MOL   H137 8101   6.551   2.753   7.185 -0.1062  0.6278  1.3614
   23MOL   H138 8102   6.511   3.050   7.158 -0.1119  0.6531  0.7576
   23MOL   H139 8103   6.128   2.828   7.311 -2.1845 -2.3723 -0.1697
   23MOL   H140 8104   6.149   2.777   7.153  1.0778  0.6120 -0.8958
   23MOL   H141 8105   6.258   2.595   7.375  1.1731 -0.5903 -1.6988
   23MOL   H142 8106   6.094   2.587   7.341 -0.0391  0.7532  0.5889
   23MOL   H143 8107   6.344   2.514   7.162  0.2460 -0.4110  0.8453
   23MOL   H144 8108   6.188   2.542   7.086 -1.5683 -1.1771  0.5905
   23MOL   H145 8109   6.204   2.423   7.211  1.9264  0.1385 -1.2081
   23MOL   C146 8110   6.555   2.994   7.352  0.3681 -0.3706  0.2684
   23MOL   C147 8111   6.564   3.142   7.399  0.7908 -0.2866  0.4520
   23MOL   C148 8112   6.665   3.217   7.311 -0.3765 -0.1497 -0.5869
   23MOL   O149 8113   6.626   3.300   7.225 -0.3230  0.3062 -0.2166
   23MOL   O150 8114   6.787   3.179   7.334  0.0671 -0.2421  0.2075
   23MOL   C151 8115   6.896   3.203   7.246  0.1939  0.9091  0.6133
   23MOL   C152 8116   6.901   3.093   7.136  0.4139  0.1027 -0.8013
   23MOL   C153 8117   6.966   2.953   7.180 -0.3474  0.6296  0.1880
   23MOL   H154 8118   6.654   2.952   7.362  1.0104  1.5151  2.2027
   23MOL   H155 8119   6.492   2.944   7.426 -0.4233 -1.1616 -0.9138
   23MOL   H156 8120   6.606   3.149   7.499  2.0162 -0.2082 -0.0668
   23MOL   H157 8121   6.885   3.300   7.197  0.2239  1.0227  0.8265
   23MOL   H158 8122   6.984   3.210   7.311  1.6296  0.5756 -1.2373
   23MOL   H159 8123   6.802   3.075   7.093 -1.3406  2.4960  2.0753
   23MOL   H160 8124   6.962   3.130   7.055 -0.2037  1.2964 -0.7272
   23MOL   H161 8125   6.921   2.874   7.121  0.2111  0.6607 -0.2786
   23MOL   H162 8126   6.936   2.938   7.284 -1.8819  0.3428 -0.2740
   23MOL   H163 8127   7.074   2.959   7.186 -0.2912  0.8489 -0.9280
   23MOL   C164 8128   6.430   3.223   7.406  0.2432 -0.0307 -0.3413
   23MOL   C165 8129   6.434   3.332   7.514  0.0957  0.4783 -0.0196
   23MOL   C166 8130   6.306   3.415   7.508  0.8661  1.1209 -0.1432
   23MOL   O167 8131   6.205   3.374   7.564  0.4598 -0.1180 -1.1096
   23MOL   O168 8132   6.320   3.535   7.452  0.4976  0.1087  0.3334
   23MOL   C169 8133   6.216   3.632   7.447 -0.1050  0.3219 -0.0755
   23MOL   C170 8134   6.239   3.729   7.330  0.4694  0.2919 -0.2358
   23MOL   C171 8135   6.227   3.649   7.196 -0.0267  0.0276 -0.4107
   23MOL   H172 8136   6.355   3.150   7.438 -0.1250 -0.2240 -1.6226
   23MOL   H173 8137   6.402   3.260   7.308  1.8642  0.3145 -0.6920
   23MOL   H174 8138   6.512   3.399   7.477 -1.4517  1.1094 -2.2198
   23MOL   H175 8139   6.119   3.582   7.436 -0.4250  0.6165  1.2837
   23MOL   H176 8140   6.217   3.696   7.535 -2.3421  3.6289 -2.3578
   23MOL   H177 8141   6.174   3.816   7.325 -1.6019 -1.2163 -0.0525
   23MOL   H178 8142   6.332   3.786   7.327  0.4938  0.1947 -1.7936
   23MOL   H179 8143   6.127   3.610   7.183  0.2936 -0.4219 -1.6169
   23MOL   H180 8144   6.307   3.575   7.191  1.5674  1.8068 -2.9152
   23MOL   H181 8145   6.233   3.728   7.121 -1.7289  2.4800  1.9257
   23MOL   C182 8146   6.464   3.277   7.653  0.4236  0.8219 -0.3035
   23MOL   C183 8147   6.556   3.360   7.742 -0.6718 -0.2888  0.0612
   23MOL   C184 8148   6.523   3.515   7.742  0.1006  0.7301  0.6369
   23MOL   O185 8149   6.602   3.602   7.699 -0.2620 -0.2372 -0.1087
   23MOL   O186 8150   6.412   3.544   7.804 -0.5670 -0.9225  0.4342
   23MOL   C187 8151   6.368   3.681   7.823 -0.5679  0.0714 -0.8071
   23MOL   C188 8152   6.429   3.723   0.080  0.3298  0.3296  0.1958
   23MOL   C189 8153   6.404   3.870   0.119 -0.5697 -0.2784  0.1216
   23MOL   H190 8154   6.489   3.171   7.650 -2.0434  0.2148 -0.5987
   23MOL   H191 8155   6.377   3.270   7.718 -0.9809 -0.1111 -2.2488
   23MOL   H192 8156   6.658   3.347   7.706 -1.2358 -1.3630 -1.1890
   23MOL   H193 8157   6.405   3.750   7.747  1.2649  2.1369  1.9095
   23MOL   H194 8158   6.259   3.689   7.814 -0.3747  1.9234 -1.7076
   23MOL   H195 8159   6.386   3.664   0.161 -0.9386  1.1799  0.1631
   23MOL   H196 8160   6.535   3.699   0.073  0.4710  0.7006  1.0847
   23MOL   H197 8161   6.424   3.929   0.030 -2.1434 -1.3929 -1.0028
   23MOL   H198 8162   6.478   3.902   0.192 -0.0262 -2.4003  0.5475
   23MOL   H199 8163   6.303   3.897   0.148 -0.3302  1.8909 -0.9907
   23MOL   C200 8164   6.567   3.306   0.012 -0.1585 -0.2174  0.4626
   23MOL   C201 8165   6.626   3.159   0.026  0.6114 -0.1450  0.3070
   23MOL   C202 8166   6.776   3.146   0.024  0.3768  0.8700  0.0973
   23MOL   O203 8167   6.851   3.156   0.125 -0.0432 -1.2748 -0.3405
   23MOL   O204 8168   6.813   3.119   7.783 -0.0301  0.2938  0.1794
   23MOL   C205 8169   6.947   3.123   7.756  0.0662  0.0968 -0.7429
   23MOL   C206 8170   6.956   3.072   7.613 -0.2478 -0.3533  0.1549
   23MOL   C207 8171   7.089   3.100   7.545 -0.1082 -0.2169 -0.1016
   23MOL   H208 8172   6.467   3.292   0.052 -1.3978 -0.2212 -2.4934
   23MOL   H209 8173   6.615   3.378   0.078 -3.5068  1.2798  1.3778
   23MOL   H210 8174   6.594   3.114   7.812  5.5473 -0.0961 -1.5442
   23MOL   H211 8175   6.981   3.226   7.755 -0.1003  0.1474 -1.5017
   23MOL   H212 8176   7.012   3.065   7.822  0.1219  0.9041 -0.0835
   23MOL   H213 8177   6.921   2.969   7.600  0.9701 -0.6020 -1.2445
   23MOL   H214 8178   6.885   3.127   7.551 -0.5982 -3.0205 -1.9514
   23MOL   H215 8179   7.114   3.206   7.541 -0.2761 -0.2333 -2.5004
   23MOL   H216 8180   7.094   3.057   7.445  0.5056 -1.3044  0.3946
   23MOL   H217 8181   7.173   3.063   7.603  0.6060  0.3453 -0.7561
   23MOL   C218 8182   6.552   3.075   0.135 -0.2742 -0.1097 -0.0710
   23MOL   C219 8183   6.429   2.989   0.098  0.6426  0.3067  0.5390
   23MOL   C220 8184   6.472   2.839   0.089 -0.3887 -0.5311  0.4114
   23MOL   O221 8185   6.461   2.762   0.179  0.1395  0.1829 -0.2714
   23MOL   O222 8186   6.528   2.812   7.845 -0.5345 -0.3901  0.0069
   23MOL   C223 8187   6.591   2.692   7.817 -0.7028  0.6043  0.2183
   23MOL   C224 8188   6.705   2.713   7.722  0.7409  1.1501  0.4628
   23MOL   C225 8189   6.665   2.781   7.591  0.2372 -0.2023  0.3456
   23MOL   H226 8190   6.528   3.128   0.227 -0.6210 -0.9549  0.3320
   23MOL   H227 8191   6.625   3.008   0.182 -1.2297 -0.4399  0.9780
   23MOL   H228 8192   6.398   3.012   7.877  0.1257 -0.0988  0.6056
   23MOL   H229 8193   6.619   2.634   0.025  0.0800  1.0294  0.2503
   23MOL   H230 8194   6.509   2.633   7.775 -2.7548  2.8426  0.9633
   23MOL   H231 8195   6.784   2.779   7.755 -0.4172  2.9375 -0.2487
   23MOL   H232 8196   6.754   2.616   7.710  0.6916  1.1330  0.3954
   23MOL   H233 8197   6.660   2.889   7.599  1.0564 -0.2026  0.8696
   23MOL   H234 8198   6.563   2.747   7.570 -0.5698  1.7199  1.0377
   23MOL   H235 8199   6.732   2.752   7.510 -0.7083 -1.1034 -0.1331
   23MOL   C236 8200   6.308   3.010   0.203 -0.7719  0.2087 -0.7228
   23MOL   C237 8201   6.221   3.134   0.169 -0.1728 -0.0591 -0.1671
   23MOL   C238 8202   6.167   3.135   0.029  0.1922 -0.0963  0.5151
   23MOL   O239 8203   6.169   3.240   7.843  0.1657  0.4447 -0.0314
   23MOL   O240 8204   6.145   3.005   7.855  0.0161 -0.3607  0.6376
   23MOL   C241 8205   6.089   2.998   7.725 -0.3733  0.1564 -0.0772
   23MOL   C242 8206   6.186   2.933   7.620 -0.2409 -0.1986 -0.3336
   23MOL   C243 8207   6.207   2.778   7.642 -0.2405 -0.2792  0.2681
   23MOL   H244 8208   6.354   3.035   0.298  0.0173 -0.1923 -0.9941
   23MOL   H245 8209   6.243   2.926   0.229  2.1814 -1.0013  3.1802
   23MOL   H246 8210   6.290   3.218   0.175  0.3037 -0.1007 -3.7324
   23MOL   H247 8211   6.006   2.929   7.713  0.6702 -1.2528  0.6343
   23MOL   H248 8212   6.055   3.098   7.698  0.9653  0.1231 -2.0100
   23MOL   H249 8213   6.133   2.946   7.526 -1.8635  0.3813  0.6348
   23MOL   H250 8214   6.279   2.991   7.618 -1.0507  1.1133 -0.4367
   23MOL   H251 8215   6.251   2.764   7.741  0.1709 -0.0820  0.1182
   23MOL   H252 8216   6.263   2.734   7.559 -2.3002 -1.7086 -0.3778
   23MOL   H253 8217   6.112   2.727   7.647  0.2997 -1.3301 -0.0897
   23MOL   C254 8218   6.110   3.161   0.275  0.4551 -0.2210 -0.7193
   23MOL   C255 8219   6.106   3.294   0.350  0.7031 -0.6018  0.3204
   23MOL   C256 8220   6.216   3.300   0.451  0.5819 -0.0881 -0.3327
   23MOL   O257 8221   6.335   3.280   0.419  0.3167 -0.2656  0.2461
   23MOL   O258 8222   6.177   3.336   0.573 -0.3448  0.1798 -0.7751
   23MOL   C259 8223   6.271   3.374   0.669  0.7818 -0.4137  0.7197
   23MOL   C260 8224   6.325   3.512   0.647  0.0184  0.5194  0.4376
   23MOL   C261 8225   6.413   3.563   0.764  0.2066  0.0313  0.3916
   23MOL   H262 8226   6.103   3.092   0.359 -0.0232  1.9332  1.0729
   23MOL   H263 8227   6.014   3.151   0.225 -0.1578  2.5314 -0.1930
   23MOL   H264 8228   6.010   3.291   0.402  0.0799 -1.7575 -0.8591
   23MOL   H265 8229   6.215   3.390   0.761 -1.9793  0.5143 -1.0675
   23MOL   H266 8230   6.353   3.303   0.683  1.3461 -0.0307 -0.5649
   23MOL   H267 8231   6.389   3.506   0.559 -0.2025 -3.1087  0.4336
   23MOL   H268 8232   6.248   3.586   0.628  0.8509  1.6435  1.4073
   23MOL   H269 8233   6.357   3.590   0.853 -0.3337 -1.1411  0.4102
   23MOL   H270 8234   6.461   3.657   0.739  0.9635  0.0319  1.8215
   23MOL   H271 8235   6.508   3.512   0.779 -0.7177 -2.2064 -1.0929
   23MOL   C272 8236   6.094   3.423   0.262  0.9234 -0.1415 -0.0832
   23MOL   C273 8237   6.025   3.545   0.318  0.3399  0.0015  0.1075
   23MOL   C274 8238   6.058   3.670   0.232 -0.3481 -0.0878 -0.8042
   23MOL   O275 8239   6.114   3.666   0.126  0.2772 -0.2123  0.4258
   23MOL   O276 8240   6.005   3.777   0.289 -0.3725 -0.1913  0.0990
   23MOL   C277 8241   5.986   3.901   0.224 -0.6164 -0.0078 -0.1345
   23MOL   C278 8242   5.839   3.935   0.207  0.4772 -0.4850  0.7102
   23MOL   C279 8243   5.764   3.971   0.343 -0.0818  0.0195 -0.5210
   23MOL   H280 8244   6.065   3.394   0.161  1.4355  0.8099 -0.5061
   23MOL   H281 8245   6.196   3.449   0.234  1.2549 -2.2510 -0.9623
   23MOL   H282 8246   6.070   3.558   0.417  0.3601 -2.5945  0.4765
   23MOL   H283 8247   6.043   3.981   0.272 -2.1105  1.4613 -0.7461
   23MOL   H284 8248   6.041   3.889   0.130 -0.5220  0.1785 -0.1045
   23MOL   H285 8249   5.837   4.021   0.140 -1.8494 -1.8396 -1.0397
   23MOL   H286 8250   5.790   3.849   0.161 -0.8973 -0.1818  1.5682
   23MOL   H287 8251   5.820   4.044   0.400  1.9204 -1.9139  0.0786
   23MOL   H288 8252   5.750   3.885   0.408 -0.6357  1.2096  0.9462
   23MOL   H289 8253   5.661   4.003   0.327 -0.3583 -1.3413 -1.5724
   23MOL   C290 8254   5.871   3.524   0.345  0.0923  0.0319  0.9698
   23MOL   C291 8255   5.778   3.528   0.220 -0.4775  0.1724 -0.1490
   23MOL   C292 8256   5.784   3.405   0.129 -0.0302 -0.4329  0.3262
   23MOL   O293 8257   5.761   3.294   0.183  0.2544  0.0927 -0.4442
   23MOL   O294 8258   5.794   3.435   7.877  0.5054  0.4493 -0.3691
   23MOL   C295 8259   5.794   3.325   7.776  0.3134  0.5492  1.1795
   23MOL   C296 8260   5.906   3.342   7.672  0.3834  0.1142 -0.5832
   23MOL   C297 8261   5.881   3.252   7.551  0.6449 -0.5092 -0.3853
   23MOL   H298 8262   5.826   3.596   0.413  0.4180  2.0816 -0.8998
   23MOL   H299 8263   5.855   3.425   0.387  0.7812  0.7653  3.0013
   23MOL   H300 8264   5.802   3.612   0.154 -0.1655  0.9296  0.9167
   23MOL   H301 8265   5.797   3.228   7.825  1.8158 -0.2710 -0.4997
   23MOL   H302 8266   5.699   3.339   7.724  0.4600  1.6285  1.1871
   23MOL   H303 8267   5.911   3.448   7.646 -1.6560  0.7466  1.4749
   23MOL   H304 8268   6.006   3.335   7.714  0.0966 -0.8413 -0.0396
   23MOL   H305 8269   5.959   3.236   7.477  1.3755 -2.9667  0.8919
   23MOL   H306 8270   5.789   3.285   7.502  0.0504 -1.6339 -0.0511
   23MOL   H307 8271   5.848   3.155   7.587  3.2175 -0.2040  3.0491
   23MOL   C308 8272   5.635   3.545   0.275 -0.0619 -0.6505  0.1368
   23MOL   C309 8273   5.518   3.581   0.179 -0.4372  0.0129  0.6194
   23MOL   C310 8274   5.385   3.557   0.245  0.3571 -0.3194  0.2161
   23MOL   O311 8275   5.319   3.461   0.208 -0.5793 -0.0319  0.5851
   23MOL   O312 8276   5.359   3.648   0.343 -0.5317 -0.1604  0.3225
   23MOL   C313 8277   5.250   3.619   0.433  0.8362  0.1302 -0.8093
   23MOL   C314 8278   5.283   3.527   0.558  0.0144  0.0827 -0.1133
   23MOL   C315 8279   5.332   3.387   0.541  0.0323 -0.5420  0.2988
   23MOL   H316 8280   5.640   3.624   0.350 -0.5961 -0.1896 -0.3129
   23MOL   H317 8281   5.605   3.462   0.339 -0.2413 -1.0921 -0.5116
   23MOL   H318 8282   5.526   3.499   0.108  0.8950 -1.7772  2.7796
   23MOL   H319 8283   5.210   3.708   0.481  1.3417 -0.1859  0.2138
   23MOL   H320 8284   5.177   3.569   0.369 -2.3599  0.7953  2.1611
   23MOL   H321 8285   5.344   3.579   0.632 -1.0310 -0.1105  0.9204
   23MOL   H322 8286   5.191   3.520   0.617 -0.3290 -3.3317 -0.9559
   23MOL   H323 8287   5.385   3.365   0.634  0.3532 -0.1050  0.2227
   23MOL   H324 8288   5.251   3.317   0.521 -0.4288  0.0544  0.1038
   23MOL   H325 8289   5.393   3.378   0.451 -1.5872 -1.6220 -0.7092
   23MOL   C326 8290   5.533   3.725   0.123 -0.0391  0.5253 -0.0311
   23MOL   C327 8291   5.458   3.752   7.871  0.0260 -1.0953 -0.4148
   23MOL   C328 8292   5.452   3.903   7.838 -0.1588 -0.1226  0.6063
   23MOL   O329 8293   5.355   3.970   7.859  0.0904  0.4213  0.5482
   23MOL   O330 8294   5.559   3.943   7.775  0.1855 -0.2336 -0.1371
   23MOL   C331 8295   5.559   4.061   7.693 -0.7819  0.0075 -0.4421
   23MOL   C332 8296   5.526   4.034   7.545 -0.3362  0.5820  0.1426
   23MOL   C333 8297   5.639   3.955   7.479  0.7150 -1.1798  0.5331
   23MOL   H334 8298   5.638   3.725   0.092 -0.3432 -0.5807 -1.1183
   23MOL   H335 8299   5.526   3.802   0.200 -2.0327 -1.3564  1.7275
   23MOL   H336 8300   5.355   3.720   0.006 -0.4140 -0.0271 -1.0774
   23MOL   H337 8301   5.496   4.144   7.723 -0.6171  0.4974 -1.4242
   23MOL   H338 8302   5.665   4.089   7.697 -0.9934  0.7810 -0.1740
   23MOL   H339 8303   5.430   3.986   7.530 -1.8503  2.3355  3.5287
   23MOL   H340 8304   5.515   4.133   7.500 -0.4682  0.6678  0.3621
   23MOL   H341 8305   5.735   4.006   7.474  0.4593 -0.7750 -0.3678
   23MOL   H342 8306   5.647   3.863   7.537 -2.4043 -1.2737  0.8917
   23MOL   H343 8307   5.592   3.928   7.384 -0.1288  0.6964  0.3899
   23MOL   C344 8308   5.507   3.678   7.752  0.2246  0.5520  0.4890
   23MOL   C345 8309   5.407   3.660   7.634 -0.4433  0.6622 -0.0309
   23MOL   C346 8310   5.460   3.560   7.537  0.4464  0.9075 -0.6169
   23MOL   O347 8311   5.579   3.537   7.522  0.2293 -0.7109 -0.9281
   23MOL   O348 8312   5.363   3.508   7.461  0.0691  0.2123 -0.3399
   23MOL   C349 8313   5.404   3.453   7.334  0.0128 -0.7289 -0.0028
   23MOL   C350 8314   5.428   3.306   7.346  0.4014  0.1028 -0.1610
   23MOL   C351 8315   5.410   3.235   7.211 -0.3257 -0.9450 -0.2188
   23MOL   H352 8316   5.528   3.575   7.784 -0.2499  0.0462 -0.8056
   23MOL   H353 8317   5.605   3.707   7.713 -1.1022  3.8699 -0.5098
   23MOL   H354 8318   5.384   3.749   7.576 -1.5703  1.3764  1.4869
   23MOL   H355 8319   5.321   3.482   7.269  1.1924  2.5589 -0.1464
   23MOL   H356 8320   5.497   3.494   7.295 -0.4960 -0.6491 -1.1416
   23MOL   H357 8321   5.524   3.278   7.389 -0.4264 -0.8414  1.1026
   23MOL   H358 8322   5.352   3.260   7.409  1.9840 -2.6501 -0.1982
   23MOL   H359 8323   5.453   3.286   7.125 -0.7169  1.1464  0.8021
   23MOL   H360 8324   5.469   3.144   7.212  1.3016  0.0725 -1.1785
   23MOL   H361 8325   5.303   3.217   7.203 -0.6736  0.0764  1.8172
   23MOL   H362 8326   5.309   3.624   7.666  0.1318 -0.4080  0.5667
   24MOL     C1 8327   3.030   5.152   1.194  0.1978  0.3002  0.2269
   24MOL     C2 8328   3.029   5.013   1.137 -0.3056  1.2962 -0.1449
   24MOL     C3 8329   3.002   4.907   1.249 -0.1726  0.1259  0.1825
   24MOL     O4 8330   2.996   4.938   1.365  0.3268 -0.0877  0.1275
   24MOL     O5 8331   3.007   4.779   1.205  0.6703 -0.9455 -0.0841
   24MOL     C6 8332   3.017   4.680   1.301  0.4759  0.3005  0.1940
   24MOL     C7 8333   3.042   4.546   1.227  0.3403 -0.8218 -0.7220
   24MOL     C8 8334   3.170   4.549   1.149  0.5350  0.4387  0.3535
   24MOL     H9 8335   2.933   5.189   1.225  0.6096  0.8049  0.9389
   24MOL    H10 8336   3.099   5.159   1.279  0.8323  0.4303 -0.2995
   24MOL    H11 8337   3.133   4.994   1.109  0.6214  1.7049  2.7878
   24MOL    H12 8338   3.101   4.698   1.368  0.1117  1.8390  0.2404
   24MOL    H13 8339   2.924   4.676   1.356 -0.2010  1.1469 -0.8749
   24MOL    H14 8340   3.028   4.458   1.289  0.2038 -1.0329 -1.0481
   24MOL    H15 8341   2.957   4.544   1.158  0.3264  0.4561 -0.7479
   24MOL    H16 8342   3.174   4.619   1.066  1.0582  0.1236  0.1078
   24MOL    H17 8343   3.253   4.571   1.216  0.2097 -0.9304  1.2333
   24MOL    H18 8344   3.179   4.454   1.097 -1.0410  0.5943 -0.2243
   24MOL    H19 8345   3.076   5.218   1.121  2.6249 -1.6209 -0.0413
   24MOL    C20 8346   2.935   5.001   1.014 -0.6546  0.4991 -0.0693
   24MOL    C21 8347   3.001   4.963   0.877  0.0110  0.3777 -0.6627
   24MOL    C22 8348   3.121   5.056   0.865 -0.5635 -0.4193  0.4521
   24MOL    O23 8349   3.239   5.022   0.884 -0.0041 -0.2657 -0.0575
   24MOL    O24 8350   3.084   5.182   0.844 -0.0270  0.1093 -0.4308
   24MOL    C25 8351   3.182   5.285   0.847 -0.6009  0.0963 -0.4066
   24MOL    C26 8352   3.227   5.313   0.708  0.4914  0.5724 -0.1997
   24MOL    C27 8353   3.311   5.442   0.698  0.1995  0.5270  0.7664
   24MOL    H28 8354   2.881   5.095   1.000 -1.6824 -0.1022 -0.1678
   24MOL    H29 8355   2.854   4.930   1.031 -0.4864  0.5709  1.0146
   24MOL    H30 8356   2.938   4.988   0.791  0.5299 -1.3653 -1.5765
   24MOL    H31 8357   3.150   5.382   0.884 -0.7414 -0.3585  0.6712
   24MOL    H32 8358   3.264   5.256   0.913 -0.0435 -1.1018 -1.5938
   24MOL    H33 8359   3.294   5.233   0.675 -0.4403  0.2718 -1.3742
   24MOL    H34 8360   3.142   5.325   0.642  0.7519  1.0193 -0.4562
   24MOL    H35 8361   3.333   5.463   0.594 -0.9669  1.1089  0.6250
   24MOL    H36 8362   3.400   5.431   0.760  0.8672 -0.5390 -0.3730
   24MOL    H37 8363   3.264   5.533   0.736  1.2504  0.1343  3.1344
   24MOL    C38 8364   3.029   4.812   0.876 -0.0416 -0.3744 -0.1688
   24MOL    C39 8365   3.045   4.752   0.738 -0.0442  0.5863  0.4479
   24MOL    C40 8366   2.921   4.758   0.649 -0.2101  0.0349  0.1845
   24MOL    O41 8367   2.824   4.688   0.670  0.2193  0.8296 -0.0256
   24MOL    O42 8368   2.925   4.860   0.569 -0.3199  0.4126  0.3387
   24MOL    C43 8369   2.805   4.908   0.498 -0.6685 -0.1391  0.7904
   24MOL    C44 8370   2.816   5.054   0.467 -0.6678 -0.1576  0.2380
   24MOL    C45 8371   2.928   5.069   0.365 -0.6811 -0.2651 -0.3289
   24MOL    H46 8372   2.950   4.748   0.916  0.2829 -2.0302 -2.1275
   24MOL    H47 8373   3.112   4.806   0.946  0.7482 -0.6203 -1.1096
   24MOL    H48 8374   3.056   4.644   0.743  0.3626  0.6359  0.6487
   24MOL    H49 8375   2.781   4.840   0.417 -0.8170  0.1180  0.6208
   24MOL    H50 8376   2.716   4.897   0.560 -1.6912  1.7344 -0.3093
   24MOL    H51 8377   2.720   5.080   0.423 -0.1523  3.0135  0.9091
   24MOL    H52 8378   2.839   5.106   0.559  1.5412  0.8871 -0.8464
   24MOL    H53 8379   3.016   5.008   0.385 -1.1681 -0.5166  1.1336
   24MOL    H54 8380   2.972   5.169   0.375  0.2835 -0.6068 -1.1836
   24MOL    H55 8381   2.893   5.053   0.263  0.1339 -0.3303 -0.6002
   24MOL    C56 8382   3.174   4.801   0.661  0.0088 -0.1471 -0.4157
   24MOL    C57 8383   3.310   4.759   0.728 -0.0168 -0.5028 -0.4504
   24MOL    C58 8384   3.321   4.608   0.753 -0.3693  0.5420 -0.3893
   24MOL    O59 8385   3.329   4.563   0.868 -0.3340  0.3894 -0.0563
   24MOL    O60 8386   3.321   4.538   0.634 -0.4625  0.5493 -0.0047
   24MOL    C61 8387   3.320   4.395   0.638  0.5368 -0.2986 -0.0973
   24MOL    C62 8388   3.455   4.328   0.629  0.4069  0.3277  0.6593
   24MOL    C63 8389   3.529   4.360   0.497 -0.1422 -0.0196 -0.8131
   24MOL    H64 8390   3.173   4.910   0.660 -0.5643 -0.0595  3.1413
   24MOL    H65 8391   3.161   4.766   0.558  0.3925 -0.0810 -0.4864
   24MOL    H66 8392   3.303   4.802   0.828  0.5559 -0.4398 -0.4387
   24MOL    H67 8393   3.277   4.363   0.732  0.3349  0.5762  0.1137
   24MOL    H68 8394   3.257   4.348   0.563  0.5510  0.8122 -0.8289
   24MOL    H69 8395   3.518   4.349   0.716  0.5268 -0.2099  0.7011
   24MOL    H70 8396   3.422   4.225   0.641 -0.1121  0.4589  0.3424
   24MOL    H71 8397   3.545   4.468   0.500 -1.2253  0.1226  0.8839
   24MOL    H72 8398   3.470   4.332   0.410  0.6586  2.2588 -2.1530
   24MOL    H73 8399   3.619   4.298   0.501 -1.6657 -2.1849  1.9828
   24MOL    C74 8400   3.436   4.827   0.671 -0.0422  0.6622 -0.0399
   24MOL    C75 8401   3.477   4.805   0.521 -0.0111 -0.3488 -0.0189
   24MOL    C76 8402   3.377   4.863   0.425  0.1345  0.7005  0.6651
   24MOL    O77 8403   3.316   4.787   0.346 -0.3548 -0.8126 -0.6016
   24MOL    O78 8404   3.371   4.999   0.436 -0.1325 -0.2776 -0.4846
   24MOL    C79 8405   3.317   5.070   0.328  0.0900  0.0666  0.8054
   24MOL    C80 8406   3.330   5.214   0.364 -0.0963  0.7714 -0.2425
   24MOL    C81 8407   3.265   5.302   0.261  0.6476 -0.1242 -0.5993
   24MOL    H82 8408   3.520   4.803   0.735  0.5925 -2.3977 -1.8882
   24MOL    H83 8409   3.422   4.935   0.670  0.1740  0.6996  1.0538
   24MOL    H84 8410   3.464   4.697   0.512 -0.6747 -0.6392  3.6727
   24MOL    H85 8411   3.376   5.049   0.239 -2.1316  0.9273 -0.9338
   24MOL    H86 8412   3.217   5.049   0.290  0.3625 -3.0363  1.6703
   24MOL    H87 8413   3.278   5.237   0.457 -1.3588 -0.2668 -0.6788
   24MOL    H88 8414   3.433   5.247   0.360 -0.4158  1.8987  0.5189
   24MOL    H89 8415   3.158   5.290   0.246  0.3929  0.4903  0.6647
   24MOL    H90 8416   3.311   5.296   0.162  0.6237  0.0935 -0.6237
   24MOL    H91 8417   3.278   5.406   0.291  0.8335 -0.5165  0.6705
   24MOL    C92 8418   3.624   4.834   0.483 -0.4869 -0.5635  0.3392
   24MOL    C93 8419   3.674   4.977   0.460 -0.0743  0.2246 -0.0555
   24MOL    C94 8420   3.680   5.055   0.595 -0.4193 -0.0070 -0.3586
   24MOL    O95 8421   3.623   5.170   0.603  0.4236  0.0641 -0.1352
   24MOL    O96 8422   3.752   5.000   0.690  0.0928 -0.8418 -0.5367
   24MOL    C97 8423   3.751   5.062   0.817 -0.0003 -0.1396  0.3606
   24MOL    C98 8424   3.874   5.020   0.899  0.3859 -0.1259  0.5988
   24MOL    C99 8425   4.005   5.064   0.839 -0.5431  0.3301  0.0840
   24MOL   H100 8426   3.648   4.786   0.388 -0.3630  0.0665  0.0446
   24MOL   H101 8427   3.684   4.783   0.559  0.7531  1.4101  0.7331
   24MOL   H102 8428   3.608   5.033   0.394  1.2711  0.6454 -1.0521
   24MOL   H103 8429   3.745   5.169   0.801 -0.3424  0.1047  2.1086
   24MOL   H104 8430   3.660   5.033   0.868  0.3993 -1.8822  0.1229
   24MOL   H105 8431   3.869   5.067   0.997  0.7016  0.7167  0.2162
   24MOL   H106 8432   3.875   4.913   0.921  1.1843 -0.5313 -1.3180
   24MOL   H107 8433   4.081   5.004   0.890 -1.7914 -0.3891  1.1043
   24MOL   H108 8434   4.037   5.167   0.856  0.4396 -0.0070  0.3530
   24MOL   H109 8435   4.023   5.052   0.732  2.0581  4.5181 -0.0472
   24MOL   C110 8436   3.815   4.970   0.391 -0.2474  0.0726 -0.5119
   24MOL   C111 8437   3.880   5.099   0.334 -0.2896 -0.2346 -0.4352
   24MOL   C112 8438   3.966   5.182   0.437  0.6193 -0.4125 -0.9642
   24MOL   O113 8439   4.080   5.152   0.463 -0.3403  0.1191  0.0702
   24MOL   O114 8440   3.901   5.291   0.481 -0.0160  0.2514 -0.1140
   24MOL   C115 8441   3.967   5.392   0.557 -0.4974 -0.2971  0.5797
   24MOL   C116 8442   3.930   5.387   0.703 -0.2641 -0.7958 -0.3076
   24MOL   C117 8443   3.996   5.502   0.782 -1.0777 -0.4306 -0.5269
   24MOL   H118 8444   3.813   4.896   0.312 -1.0342 -1.4958  0.9334
   24MOL   H119 8445   3.885   4.931   0.465 -1.3759  3.2499  2.3897
   24MOL   H120 8446   3.795   5.158   0.300 -1.9934 -2.3876  0.0049
   24MOL   H121 8447   4.075   5.379   0.548 -0.7530 -0.9748 -1.9801
   24MOL   H122 8448   3.942   5.489   0.514  0.9598 -0.6240 -1.0787
   24MOL   H123 8449   3.822   5.396   0.717  0.1216  1.0364  1.6831
   24MOL   H124 8450   3.959   5.294   0.752  1.0631 -0.6436 -0.7862
   24MOL   H125 8451   3.971   5.603   0.748  1.4522  0.2702 -0.4047
   24MOL   H126 8452   4.105   5.493   0.787 -1.1327 -0.3597  1.1425
   24MOL   H127 8453   3.952   5.498   0.882 -0.6330  0.5672 -0.2795
   24MOL   C128 8454   3.971   5.068   0.198 -0.0360 -0.5722  0.0806
   24MOL   C129 8455   3.999   5.176   0.095  1.0628  0.0230  0.5498
   24MOL   C130 8456   4.086   5.288   0.146 -0.4390 -0.0309 -0.3365
   24MOL   O131 8457   4.044   5.399   0.174  0.3147 -0.3112  0.3435
   24MOL   O132 8458   4.214   5.254   0.147 -0.4212 -0.3441 -0.1646
   24MOL   C133 8459   4.299   5.339   0.212 -0.0802  0.1331 -0.2919
   24MOL   C134 8460   4.343   5.453   0.108  0.3830  0.2268 -0.0802
   24MOL   C135 8461   4.444   5.409   7.880  0.2298 -0.3212  0.2197
   24MOL   H136 8462   3.912   4.993   0.145 -0.0031 -0.4549 -0.1212
   24MOL   H137 8463   4.049   4.998   0.228  1.9150  1.7187  0.5162
   24MOL   H138 8464   3.906   5.226   0.066  0.8851 -0.1943  0.7389
   24MOL   H139 8465   4.258   5.375   0.306  0.9003 -1.4991  0.7841
   24MOL   H140 8466   4.386   5.288   0.254 -0.1615 -1.6956 -2.2949
   24MOL   H141 8467   4.254   5.496   0.062 -0.3225  0.7659  1.7312
   24MOL   H142 8468   4.391   5.533   0.165  2.3502 -0.4384 -0.7938
   24MOL   H143 8469   4.386   5.347   7.811 -0.5361  0.6999 -0.0714
   24MOL   H144 8470   4.532   5.364   0.045  1.3345 -0.3317 -1.8628
   24MOL   H145 8471   4.475   5.494   7.820 -0.6324 -0.9846 -1.2001
   24MOL   C146 8472   4.049   5.118   7.842  0.4873  0.5371 -0.2961
   24MOL   C147 8473   3.989   5.186   7.712 -0.2555 -0.3239 -0.6261
   24MOL   C148 8474   4.007   5.337   7.700 -1.4002 -0.4654  0.1399
   24MOL   O149 8475   3.913   5.414   7.725 -0.3729 -0.7278  0.4890
   24MOL   O150 8476   4.134   5.378   7.662 -0.3133 -0.3076  0.1487
   24MOL   C151 8477   4.167   5.521   7.642 -0.5559  0.2486  0.4350
   24MOL   C152 8478   4.144   5.571   7.500  0.0747 -0.9988 -0.0853
   24MOL   C153 8479   3.996   5.585   7.454  0.8237 -0.6111  0.4430
   24MOL   H154 8480   4.020   5.014   7.827 -0.7230  0.6391  1.1767
   24MOL   H155 8481   4.157   5.126   7.842  0.5092  0.3208  0.2768
   24MOL   H156 8482   3.883   5.169   7.728  0.2968 -1.7971  1.6955
   24MOL   H157 8483   4.112   5.576   7.719 -0.7399 -0.7982  1.0618
   24MOL   H158 8484   4.272   5.525   7.671  0.0134  0.5646 -1.6042
   24MOL   H159 8485   4.197   5.664   7.477 -1.6073 -0.3335 -1.3479
   24MOL   H160 8486   4.205   5.508   7.436 -1.4068 -0.9526 -1.5725
   24MOL   H161 8487   3.948   5.487   7.452 -0.2376 -0.1225  1.6435
   24MOL   H162 8488   3.976   5.642   7.363 -0.0711 -0.8185  0.5053
   24MOL   H163 8489   3.937   5.645   7.523  0.8494 -1.1508  0.9412
   24MOL   C164 8490   4.015   5.115   7.577 -0.0902  0.3553 -0.3449
   24MOL   C165 8491   3.898   5.113   7.477 -0.0623 -0.2978  0.1282
   24MOL   C166 8492   3.928   5.182   7.340  0.4609 -0.7162 -0.4991
   24MOL   O167 8493   4.043   5.220   7.312  0.1695  0.2679 -0.2043
   24MOL   O168 8494   3.818   5.214   7.273 -0.6985 -0.6352 -0.3338
   24MOL   C169 8495   3.829   5.314   7.170  0.4436  0.0944  0.3549
   24MOL   C170 8496   3.701   5.291   7.079  0.5156 -0.0029 -0.7652
   24MOL   C171 8497   3.684   5.153   7.027  0.1332  1.5190 -0.1662
   24MOL   H172 8498   4.059   5.016   7.594 -0.6728  0.4198  1.7334
   24MOL   H173 8499   4.098   5.169   7.533 -1.6620  2.4035 -0.8758
   24MOL   H174 8500   3.819   5.174   7.520 -0.3904 -0.5473 -0.1138
   24MOL   H175 8501   3.829   5.411   7.220  0.1997  0.0914  0.3621
   24MOL   H176 8502   3.917   5.311   7.105 -0.3924 -0.2341 -0.7898
   24MOL   H177 8503   3.614   5.324   7.136 -0.3777  1.7192 -3.0252
   24MOL   H178 8504   3.708   5.345   6.985  0.2744  1.4570  0.0483
   24MOL   H179 8505   3.629   5.148   6.932  1.4526 -0.4249 -0.8558
   24MOL   H180 8506   3.634   5.092   7.103 -2.1308  0.0018 -2.7452
   24MOL   H181 8507   3.786   5.118   7.014 -0.8897 -1.9792  0.7195
   24MOL   C182 8508   3.831   4.974   7.452  0.3813  0.0918  1.0666
   24MOL   C183 8509   3.752   4.926   7.578  0.3274  1.1374 -0.1574
   24MOL   C184 8510   3.633   5.018   7.608 -0.2085  0.8423 -0.3148
   24MOL   O185 8511   3.570   5.075   7.522  0.0301  0.7331 -0.0780
   24MOL   O186 8512   3.613   5.015   7.735 -0.3040  0.6474 -0.1626
   24MOL   C187 8513   3.495   5.081   7.784  0.5543  0.2696 -0.1038
   24MOL   C188 8514   3.521   5.229   7.807 -0.2910 -0.1763 -0.8459
   24MOL   C189 8515   3.616   5.249   0.056 -0.3808  0.5165 -0.3546
   24MOL   H190 8516   3.923   4.916   7.437 -0.7334 -1.2745 -0.7125
   24MOL   H191 8517   3.771   4.964   7.362 -0.0953 -3.0325  1.6488
   24MOL   H192 8518   3.813   4.934   7.668 -1.0492  0.4740  0.8644
   24MOL   H193 8519   3.411   5.068   7.715 -0.2968 -0.5939  1.0846
   24MOL   H194 8520   3.465   5.046   0.002  0.1377 -1.0009 -0.6706
   24MOL   H195 8521   3.567   5.279   7.722  0.9493 -0.6080 -0.4477
   24MOL   H196 8522   3.419   5.257   7.832 -0.8923 -0.5670 -2.8470
   24MOL   H197 8523   3.577   5.190   0.140 -0.4837  1.9710  0.6430
   24MOL   H198 8524   3.633   5.351   0.090  0.7216 -0.2629  1.5784
   24MOL   H199 8525   3.711   5.199   0.038 -0.4614  0.3801 -0.4013
   24MOL   C200 8526   3.716   4.782   7.583  0.3163  0.1187 -0.3969
   24MOL   C201 8527   3.834   4.686   7.559 -0.5871  0.2368 -0.3717
   24MOL   C202 8528   3.951   4.697   7.661 -0.0285  0.0456 -0.1157
   24MOL   O203 8529   3.941   4.763   7.763  0.0130 -0.8631 -0.1806
   24MOL   O204 8530   4.059   4.629   7.629  0.3622 -0.6866 -0.3553
   24MOL   C205 8531   4.175   4.627   7.715  0.3396  0.4864  0.8693
   24MOL   C206 8532   4.295   4.584   7.624  0.1758 -0.6651 -0.1510
   24MOL   C207 8533   4.435   4.577   7.691 -0.4700  0.0773 -0.4587
   24MOL   H208 8534   3.655   4.765   7.494 -0.5583  1.9514 -0.1637
   24MOL   H209 8535   3.655   4.748   7.667 -2.0584  0.9962 -1.6984
   24MOL   H210 8536   3.875   4.716   7.462  1.2488 -2.4560 -0.4949
   24MOL   H211 8537   4.200   4.724   7.759  0.6823  2.0547 -2.6114
   24MOL   H212 8538   4.161   4.557   7.797 -3.6407 -0.8363 -0.8334
   24MOL   H213 8539   4.281   4.479   7.599  2.2501 -1.0265  0.1446
   24MOL   H214 8540   4.287   4.632   7.527 -0.2241 -1.2425 -0.4059
   24MOL   H215 8541   4.507   4.568   7.609 -2.4633  1.5761 -2.4141
   24MOL   H216 8542   4.463   4.499   7.763  0.5862  0.9829  0.1428
   24MOL   H217 8543   4.453   4.675   7.734 -0.5647 -0.5693  1.1297
   24MOL   C218 8544   3.788   4.537   7.546 -0.3927  0.2651  0.0269
   24MOL   C219 8545   3.678   4.509   7.433  0.3653  0.1738 -0.0674
   24MOL   C220 8546   3.749   4.515   7.301 -0.5536 -0.5125 -0.3200
   24MOL   O221 8547   3.805   4.418   7.255 -0.4414  0.0292  0.3684
   24MOL   O222 8548   3.736   4.633   7.256  0.3187  0.0642 -0.0405
   24MOL   C223 8549   3.766   4.657   7.119  0.2512 -0.0300  0.7444
   24MOL   C224 8550   3.688   4.774   7.061 -0.0914  0.9871  0.0620
   24MOL   C225 8551   3.543   4.781   7.104  0.1587 -0.6237 -0.0109
   24MOL   H226 8552   3.734   4.520   7.639 -0.6936  0.5817 -0.0894
   24MOL   H227 8553   3.868   4.465   7.531 -0.5769  0.0356  0.1413
   24MOL   H228 8554   3.595   4.579   7.445  0.4946  0.5882 -1.5223
   24MOL   H229 8555   3.873   4.659   7.101  0.2071  0.1565  0.4961
   24MOL   H230 8556   3.732   4.572   7.061  0.4052  1.3694 -1.4655
   24MOL   H231 8557   3.733   4.867   7.095  0.5338 -0.0547  2.1511
   24MOL   H232 8558   3.697   4.771   6.952  2.4683  0.8630  0.2352
   24MOL   H233 8559   3.493   4.685   7.101 -0.8126 -0.1431  0.4567
   24MOL   H234 8560   3.491   4.860   7.049  1.3618  0.2042  0.0172
   24MOL   H235 8561   3.536   4.812   7.209  1.2574  0.4261 -0.2387
   24MOL   C236 8562   3.606   4.373   7.468 -1.0433 -0.0925 -0.0374
   24MOL   C237 8563   3.453   4.371   7.440  0.3810  0.3129 -1.0346
   24MOL   C238 8564   3.420   4.390   7.286 -0.1564  0.2072 -0.0894
   24MOL   O239 8565   3.372   4.498   7.242  0.0344 -0.2707  0.2246
   24MOL   O240 8566   3.449   4.278   7.217  0.2883 -0.2620 -0.0672
   24MOL   C241 8567   3.409   4.267   7.082 -0.4152  0.6701  0.3103
   24MOL   C242 8568   3.496   4.171   7.004 -0.6932  0.1556 -0.0172
   24MOL   C243 8569   3.619   4.239   6.944  0.2292  0.6827  0.3449
   24MOL   H244 8570   3.623   4.347   7.572 -1.7089  1.3332  0.4285
   24MOL   H245 8571   3.659   4.292   7.416 -0.1420 -0.2764  1.1489
   24MOL   H246 8572   3.404   4.454   7.489 -0.8230 -0.3480 -1.1005
   24MOL   H247 8573   3.311   4.221   7.095  0.4079 -0.7943  1.5758
   24MOL   H248 8574   3.402   4.368   7.042  0.8884  0.8047  0.3919
   24MOL   H249 8575   3.514   4.077   7.057 -1.4527  0.1247  0.1929
   24MOL   H250 8576   3.435   4.129   6.924 -1.2275  1.1987 -0.1658
   24MOL   H251 8577   3.585   4.316   6.875 -0.4191  2.1424  2.2611
   24MOL   H252 8578   3.692   4.170   6.901 -0.3135  0.1209  0.3123
   24MOL   H253 8579   3.665   4.276   7.035  1.6924 -1.0778  0.3492
   24MOL   C254 8580   3.385   4.241   7.492 -0.2013 -0.6021  0.7096
   24MOL   C255 8581   3.234   4.249   7.488 -0.5388  0.2131  0.6080
   24MOL   C256 8582   3.165   4.161   7.382 -0.2925 -0.0130 -0.5610
   24MOL   O257 8583   3.087   4.208   7.301  0.2132  0.4140  0.1208
   24MOL   O258 8584   3.185   4.029   7.397 -0.1002  0.0839 -0.6305
   24MOL   C259 8585   3.120   3.939   7.307 -0.2796  0.0250  0.4753
   24MOL   C260 8586   3.073   3.819   7.389 -0.1855  0.0122  0.5455
   24MOL   C261 8587   3.191   3.733   7.427 -0.5712  0.4487  0.1501
   24MOL   H262 8588   3.429   4.215   7.588 -1.1134  0.3753  1.3997
   24MOL   H263 8589   3.415   4.156   7.430 -0.2761 -1.0070  1.2230
   24MOL   H264 8590   3.204   4.351   7.462 -3.4422 -0.2253  2.0518
   24MOL   H265 8591   3.035   3.979   7.251 -2.0921 -1.8333  1.8146
   24MOL   H266 8592   3.188   3.906   7.229 -1.1334  0.5760 -0.5193
   24MOL   H267 8593   3.026   3.853   7.481 -0.9095 -0.1143  0.2246
   24MOL   H268 8594   2.991   3.766   7.341 -1.3694  0.7181  1.7728
   24MOL   H269 8595   3.252   3.705   7.341 -1.2849 -0.5775 -0.0372
   24MOL   H270 8596   3.155   3.649   7.487  0.0323 -1.4533 -2.0348
   24MOL   H271 8597   3.252   3.790   7.496 -1.7844  0.5741  1.1451
   24MOL   C272 8598   3.175   4.222   7.631  0.0406 -0.8459 -0.6626
   24MOL   C273 8599   3.223   4.315   7.746 -0.3731 -0.3781 -0.5617
   24MOL   C274 8600   3.181   4.465   7.734 -0.2766 -0.0947 -0.4624
   24MOL   O275 8601   3.076   4.508   7.776  0.5661 -0.1294  0.1341
   24MOL   O276 8602   3.262   4.544   7.666  0.5107  0.3749 -0.6883
   24MOL   C277 8603   3.222   4.673   7.650 -0.8010  0.6762  0.2964
   24MOL   C278 8604   3.319   4.772   7.592  0.1799  0.0042  0.6176
   24MOL   C279 8605   3.354   4.753   7.444  0.0107 -0.2742  0.4526
   24MOL   H280 8606   3.202   4.121   7.662  1.3197  0.0343  1.1663
   24MOL   H281 8607   3.066   4.222   7.627 -0.0048  3.5206 -2.5178
   24MOL   H282 8608   3.329   4.308   7.721 -0.7199 -0.5479 -2.0357
   24MOL   H283 8609   3.139   4.661   7.580 -0.0187  0.9079 -0.6907
   24MOL   H284 8610   3.189   4.716   7.744  2.5390  0.7608  1.5195
   24MOL   H285 8611   3.274   4.869   7.616  0.6538 -0.2375  2.5312
   24MOL   H286 8612   3.405   4.756   7.656 -0.1182 -3.1250  0.2808
   24MOL   H287 8613   3.414   4.838   7.414 -0.4869 -0.6225 -1.5962
   24MOL   H288 8614   3.260   4.761   7.389  0.1773 -0.1524  0.1876
   24MOL   H289 8615   3.417   4.670   7.410 -0.1514 -0.0867 -0.3239
   24MOL   C290 8616   3.203   4.260   0.010 -0.2803 -0.5116  0.3031
   24MOL   C291 8617   3.331   4.212   0.070  0.5378 -0.0293 -0.5674
   24MOL   C292 8618   3.440   4.310   0.093  0.0721 -0.2232  0.2470
   24MOL   O293 8619   3.545   4.314   0.028  0.4129  0.6625  0.4554
   24MOL   O294 8620   3.397   4.413   0.166 -0.0517 -0.2417  0.5578
   24MOL   C295 8621   3.470   4.539   0.173  0.1127  0.0961  0.0821
   24MOL   C296 8622   3.468   4.620   0.051 -0.4168  0.3070  0.1300
   24MOL   C297 8623   3.534   4.757   0.079  0.7142  0.0628 -0.1308
   24MOL   H298 8624   3.145   4.173   7.859 -0.3896  0.0609 -1.1323
   24MOL   H299 8625   3.139   4.324   0.072  0.3799 -0.6082  1.0956
   24MOL   H300 8626   3.374   4.146   7.875  0.3219 -0.5611 -0.2263
   24MOL   H301 8627   3.426   4.589   0.259 -1.6117  0.1039 -0.7920
   24MOL   H302 8628   3.573   4.521   0.204  0.0540  0.1721  0.3268
   24MOL   H303 8629   3.520   4.580   7.844 -1.4017 -0.3225 -0.1788
   24MOL   H304 8630   3.365   4.637   0.020 -0.5723  0.3885  0.6881
   24MOL   H305 8631   3.641   4.737   0.082  0.9883  1.6293  1.1627
   24MOL   H306 8632   3.506   4.809   0.171  1.3296  0.4097 -0.1403
   24MOL   H307 8633   3.523   4.828   7.878  0.5667  0.5453  0.3074
   24MOL   C308 8634   3.311   4.130   0.200  0.0810 -0.1076 -0.8060
   24MOL   C309 8635   3.400   4.001   0.219  1.1684 -0.1645 -0.3543
   24MOL   C310 8636   3.450   3.992   0.361 -0.1606  0.4900 -0.1786
   24MOL   O311 8637   3.388   4.045   0.451  0.0244 -0.4458 -0.5158
   24MOL   O312 8638   3.566   3.929   0.378  0.2094 -0.1051 -0.0371
   24MOL   C313 8639   3.619   3.912   0.509 -0.1623  0.2877  0.0893
   24MOL   C314 8640   3.752   3.840   0.492 -0.0198  0.0755  0.2208
   24MOL   C315 8641   3.854   3.935   0.423 -0.5799 -0.0042  0.3336
   24MOL   H316 8642   3.210   4.089   0.209  0.5374 -0.8954  0.9709
   24MOL   H317 8643   3.317   4.202   0.283  0.8048 -1.9898  0.8094
   24MOL   H318 8644   3.488   4.005   0.154  1.6212 -1.7595  0.1640
   24MOL   H319 8645   3.642   4.008   0.553  0.4681 -0.3039  1.0513
   24MOL   H320 8646   3.559   3.844   0.569  1.0092 -0.5099  0.3602
   24MOL   H321 8647   3.797   3.817   0.589 -0.3137  0.2237  0.3937
   24MOL   H322 8648   3.739   3.741   0.449 -1.0617 -0.5721  1.9770
   24MOL   H323 8649   3.952   3.886   0.418 -0.0833  0.9839  0.4122
   24MOL   H324 8650   3.825   3.949   0.318 -0.8429 -0.8196  0.2927
   24MOL   H325 8651   3.850   4.031   0.474  3.0228 -0.1309  0.9868
   24MOL   C326 8652   3.330   3.868   0.173  0.7706  0.4529  0.3653
   24MOL   C327 8653   3.307   3.837   0.019 -0.2020  0.1204 -0.3172
   24MOL   C328 8654   3.440   3.809   7.821  1.0670  0.8629 -1.2594
   24MOL   O329 8655   3.454   3.719   7.739 -0.1646  0.3962 -0.3867
   24MOL   O330 8656   3.538   3.899   7.848  0.4154 -0.1072  0.5950
   24MOL   C331 8657   3.666   3.893   7.801 -0.5103  0.2063 -0.0271
   24MOL   C332 8658   3.686   3.973   7.670  0.2700  0.0955 -0.9156
   24MOL   C333 8659   3.760   4.105   7.704 -0.1764 -0.1325 -0.2055
   24MOL   H334 8660   3.228   3.868   0.213 -0.7086 -1.6646 -3.1812
   24MOL   H335 8661   3.378   3.782   0.220  1.1643  0.3636 -0.2007
   24MOL   H336 8662   3.278   3.931   7.852 -0.6034  1.2362  2.0542
   24MOL   H337 8663   3.725   3.946   7.877 -1.8667 -0.0515  1.2263
   24MOL   H338 8664   3.703   3.791   7.798  0.9291  0.5894  2.5109
   24MOL   H339 8665   3.749   3.919   7.599 -1.7092 -1.9848 -1.1550
   24MOL   H340 8666   3.585   3.982   7.630 -0.0402 -0.9487 -0.4017
   24MOL   H341 8667   3.792   4.155   7.613  0.3657  0.3090  0.2246
   24MOL   H342 8668   3.699   4.178   7.757 -1.0778 -0.7349 -0.4080
   24MOL   H343 8669   3.842   4.092   7.774 -1.5405  3.1967  2.1424
   24MOL   C344 8670   3.194   3.749   7.850  1.1933 -0.3150  0.9850
   24MOL   C345 8671   3.052   3.788   0.025  0.1052 -0.7869 -1.1526
   24MOL   C346 8672   2.985   3.899   7.837  0.9675 -0.6720 -0.1283
   24MOL   O347 8673   2.977   3.913   7.714 -0.0260  0.1722  0.2319
   24MOL   O348 8674   2.927   3.989   0.041  0.7103 -0.0603  0.3264
   24MOL   C349 8675   2.847   4.093   7.859 -0.0186  0.0985 -0.5037
   24MOL   C350 8676   2.838   4.202   0.074  0.6506 -0.0327 -0.1410
   24MOL   C351 8677   2.734   4.313   0.022 -0.1747 -0.0866 -0.1161
   24MOL   H352 8678   3.202   3.642   7.867 -2.4148 -1.6368 -4.3833
   24MOL   H353 8679   3.191   3.760   7.741  2.4214 -3.0928  0.6129
   24MOL   H354 8680   3.033   3.810   0.130 -2.4610 -1.5100 -1.4185
   24MOL   H355 8681   2.901   4.133   7.773 -0.1811 -0.4326 -0.8508
   24MOL   H356 8682   2.753   4.044   7.833  0.0704 -0.9991  1.1822
   24MOL   H357 8683   2.800   4.156   0.165  0.9578 -1.1789 -0.5874
   24MOL   H358 8684   2.925   4.256   0.112  0.0480  0.3218  0.7664
   24MOL   H359 8685   2.775   4.380   7.826 -0.1339 -0.0670 -0.0773
   24MOL   H360 8686   2.645   4.260   7.870  0.7069 -0.4241 -2.1073
   24MOL   H361 8687   2.699   4.376   0.104  0.0514 -1.0182  0.6899
   24MOL   H362 8688   2.989   3.699   0.014 -0.1738 -0.9365  1.3079
   25MOL     C1 8689   3.556   2.189   7.735 -0.9249  0.0927  0.1419
   25MOL     C2 8690   3.543   2.350   7.750 -0.4965  0.2376  0.0817
   25MOL     C3 8691   3.409   2.401   7.703 -0.1043 -0.2093 -0.3384
   25MOL     O4 8692   3.325   2.457   7.785 -0.3366 -0.2595  0.0315
   25MOL     O5 8693   3.394   2.380   7.574 -0.3945 -0.4733 -0.3964
   25MOL     C6 8694   3.273   2.415   7.502  0.5524  0.3355 -0.6667
   25MOL     C7 8695   3.230   2.293   7.423 -0.0404  0.5663 -0.2409
   25MOL     C8 8696   3.320   2.262   7.305  0.3077 -0.6465  0.0532
   25MOL     H9 8697   3.526   2.147   7.831  0.4737  0.1839  0.6308
   25MOL    H10 8698   3.502   2.137   7.656 -0.5962 -2.0082  1.2600
   25MOL    H11 8699   3.604   2.391   7.669  2.3804 -2.1765  0.9497
   25MOL    H12 8700   3.192   2.445   7.569 -0.7355 -0.3333 -1.9048
   25MOL    H13 8701   3.290   2.486   7.422  2.8779 -0.2450 -0.7277
   25MOL    H14 8702   3.223   2.209   7.492 -1.0079 -0.1357 -1.1862
   25MOL    H15 8703   3.133   2.308   7.375  0.5816  2.3980 -1.0007
   25MOL    H16 8704   3.319   2.343   7.232 -1.0544 -1.4467 -0.8411
   25MOL    H17 8705   3.416   2.235   7.350 -0.3215 -0.9758  1.2139
   25MOL    H18 8706   3.291   2.171   7.252  0.4541 -0.6263 -0.0616
   25MOL    H19 8707   3.664   2.172   7.732 -0.8388  0.3404  1.5456
   25MOL    C20 8708   3.592   2.406   0.003 -0.4945 -0.3007 -0.3104
   25MOL    C21 8709   3.744   2.410   0.010  0.9491 -0.4802  0.4186
   25MOL    C22 8710   3.807   2.508   7.792  0.1927 -0.1133  0.5443
   25MOL    O23 8711   3.904   2.469   7.720 -0.6088  0.0919  0.0093
   25MOL    O24 8712   3.748   2.631   7.798  0.8589  0.0646  0.0161
   25MOL    C25 8713   3.813   2.737   7.730 -0.2598 -0.3219 -1.0565
   25MOL    C26 8714   3.771   2.866   7.802 -0.8115  0.2386 -0.5705
   25MOL    C27 8715   3.857   2.892   0.048  0.1863 -0.0534 -0.6230
   25MOL    H28 8716   3.550   2.354   0.089 -1.0271  1.5708  0.5649
   25MOL    H29 8717   3.560   2.509   0.012  1.4429  0.1105  2.2988
   25MOL    H30 8718   3.785   2.311   7.872 -2.0925 -1.3771 -2.1445
   25MOL    H31 8719   3.920   2.720   7.738 -0.2983  0.5153  1.4592
   25MOL    H32 8720   3.782   2.735   7.625 -1.4837 -0.3017 -0.7009
   25MOL    H33 8721   3.779   2.948   7.731 -0.5369  0.6044 -0.1181
   25MOL    H34 8722   3.667   2.858   7.835 -1.5540 -0.2727 -2.9282
   25MOL    H35 8723   3.856   2.808   0.117 -0.9058  0.1097 -0.4487
   25MOL    H36 8724   3.828   2.985   0.096 -0.0800 -1.2701  1.6376
   25MOL    H37 8725   3.963   2.900   0.020  0.1694  0.6439 -0.4948
   25MOL    C38 8726   3.779   2.469   0.151  0.1749  0.3543  0.1322
   25MOL    C39 8727   3.802   2.356   0.259 -0.2102 -0.5922 -0.8000
   25MOL    C40 8728   3.930   2.276   0.225  0.5483  0.7128  0.6907
   25MOL    O41 8729   4.024   2.331   0.166 -0.1865 -0.1073  0.3241
   25MOL    O42 8730   3.913   2.141   0.243 -0.7835 -0.1757 -0.1571
   25MOL    C43 8731   4.016   2.051   0.213 -0.0634 -0.8407  0.4072
   25MOL    C44 8732   4.091   2.003   0.336  0.7412  0.4818  0.2689
   25MOL    C45 8733   4.174   1.871   0.303 -1.0802 -0.1005 -0.5356
   25MOL    H46 8734   3.710   2.545   0.186 -0.6611 -0.6376  0.6868
   25MOL    H47 8735   3.870   2.529   0.144 -0.7653  1.7050 -0.7041
   25MOL    H48 8736   3.729   2.275   0.268  0.8522 -1.4215  0.5654
   25MOL    H49 8737   3.974   1.971   0.153  1.1907 -1.1985 -0.0009
   25MOL    H50 8738   4.089   2.096   0.145  1.3286 -2.5434  0.7683
   25MOL    H51 8739   4.153   2.087   0.367 -0.1261  1.1601  0.1938
   25MOL    H52 8740   4.015   1.968   0.406  1.1155 -2.6264 -0.8247
   25MOL    H53 8741   4.113   1.781   0.306  0.0959 -0.9167 -0.7773
   25MOL    H54 8742   4.226   1.852   0.396 -3.0174  0.5732  0.7284
   25MOL    H55 8743   4.237   1.886   0.216  0.1001  1.3044  0.5400
   25MOL    C56 8744   3.809   2.432   0.395  0.5881  0.2676 -0.1900
   25MOL    C57 8745   3.819   2.359   0.531  0.8958  0.0777 -0.0351
   25MOL    C58 8746   3.710   2.246   0.540  0.4222 -0.0311  0.1957
   25MOL    O59 8747   3.592   2.276   0.559  0.0669  0.0707 -0.4415
   25MOL    O60 8748   3.746   2.116   0.508 -0.2848 -0.1533  0.3907
   25MOL    C61 8749   3.660   2.001   0.547 -0.2425 -0.5673  0.1284
   25MOL    C62 8750   3.747   1.901   0.614 -0.3665 -0.5543 -0.2551
   25MOL    C63 8751   3.659   1.794   0.665  0.4072  0.6501 -0.7277
   25MOL    H64 8752   3.718   2.488   0.411  1.3491  1.3566  0.4100
   25MOL    H65 8753   3.881   2.514   0.395  0.9967 -0.0655 -2.8715
   25MOL    H66 8754   3.804   2.431   0.611 -1.3721 -0.0398 -0.2937
   25MOL    H67 8755   3.585   2.052   0.609  0.5105 -0.9473  1.3706
   25MOL    H68 8756   3.606   1.968   0.458 -1.0050  2.5659 -0.6350
   25MOL    H69 8757   3.815   1.855   0.542  0.5162  0.2199  0.0757
   25MOL    H70 8758   3.802   1.951   0.694  3.4296  0.9393 -3.6753
   25MOL    H71 8759   3.716   1.721   0.722 -1.3739 -0.5687 -0.4760
   25MOL    H72 8760   3.613   1.732   0.588  0.1055 -1.7473  1.3094
   25MOL    H73 8761   3.577   1.829   0.726 -1.3973 -1.3255 -1.9472
   25MOL    C74 8762   3.963   2.307   0.544  0.7341 -0.1153  0.9279
   25MOL    C75 8763   3.996   2.279   0.698 -0.9360 -0.7409  0.1419
   25MOL    C76 8764   4.099   2.166   0.703 -0.4960 -0.2931  0.2090
   25MOL    O77 8765   4.079   2.059   0.771 -0.3314 -0.5744 -0.6299
   25MOL    O78 8766   4.211   2.198   0.638 -0.3610 -0.1661 -0.6545
   25MOL    C79 8767   4.317   2.107   0.624  0.6582  0.2470 -0.3153
   25MOL    C80 8768   4.435   2.164   0.540 -0.3740  0.7587 -0.2544
   25MOL    C81 8769   4.401   2.212   0.399 -0.3580 -0.5564 -0.1284
   25MOL    H82 8770   4.027   2.375   0.488  0.7018 -0.6077  0.2897
   25MOL    H83 8771   3.973   2.217   0.484  0.5395 -0.6749  1.7168
   25MOL    H84 8772   3.903   2.251   0.748 -0.8246 -1.4976 -0.0567
   25MOL    H85 8773   4.352   2.080   0.723  2.5480  0.2527 -0.9600
   25MOL    H86 8774   4.287   2.009   0.586 -3.5022  1.1320  0.4055
   25MOL    H87 8775   4.467   2.251   0.597  1.2632  2.5514 -3.7198
   25MOL    H88 8776   4.511   2.086   0.532 -1.6992 -0.4183 -1.9646
   25MOL    H89 8777   4.481   2.277   0.364  0.6726  0.5012  3.8882
   25MOL    H90 8778   4.316   2.279   0.390 -0.1953 -0.6857 -3.0178
   25MOL    H91 8779   4.374   2.136   0.326 -0.6803  0.5505 -1.1735
   25MOL    C92 8780   4.058   2.410   0.764  0.3619 -0.4442  1.0037
   25MOL    C93 8781   3.995   2.443   0.903  0.3951  0.1736  0.9529
   25MOL    C94 8782   4.033   2.348   1.017  0.3908 -0.2285  1.0839
   25MOL    O95 8783   4.076   2.233   0.993 -0.6326  0.4283  0.6116
   25MOL    O96 8784   3.993   2.395   1.140 -0.2932  0.4973  0.2359
   25MOL    C97 8785   4.014   2.315   1.261  0.0761  0.5381  0.4164
   25MOL    C98 8786   3.906   2.219   1.295 -0.4265  0.1254  0.2892
   25MOL    C99 8787   3.927   2.176   1.443  0.3790  0.1426 -0.2154
   25MOL   H100 8788   4.033   2.493   0.698  2.6924  0.2263  0.9160
   25MOL   H101 8789   4.166   2.402   0.773  0.8761  1.0046 -2.9774
   25MOL   H102 8790   3.886   2.442   0.903  0.4006 -0.8514 -0.6156
   25MOL   H103 8791   4.106   2.257   1.251 -1.9888 -3.0809  1.5505
   25MOL   H104 8792   4.025   2.373   1.352  0.5549  2.1520 -0.6346
   25MOL   H105 8793   3.811   2.272   1.289  0.1789  1.1863  0.0998
   25MOL   H106 8794   3.888   2.138   1.224  2.1096  1.0876 -1.5012
   25MOL   H107 8795   3.938   2.267   1.502  0.4063 -0.2331  0.3637
   25MOL   H108 8796   4.021   2.124   1.457  0.4833  0.0014 -1.3941
   25MOL   H109 8797   3.842   2.117   1.479  0.5510  0.5473  0.8815
   25MOL   C110 8798   4.033   2.592   0.942 -0.8890  0.0651 -0.6138
   25MOL   C111 8799   3.957   2.695   0.861  0.0600  0.0739 -0.1752
   25MOL   C112 8800   3.809   2.666   0.854  0.2269  0.0759 -0.8623
   25MOL   O113 8801   3.749   2.623   0.753  0.3723  0.0529  0.2135
   25MOL   O114 8802   3.743   2.698   0.977  0.4362 -0.2350  0.2094
   25MOL   C115 8803   3.605   2.714   0.992 -0.3070 -0.3370  0.3021
   25MOL   C116 8804   3.574   2.865   0.973 -0.3341 -0.1739 -0.4965
   25MOL   C117 8805   3.629   2.961   1.087 -0.4266  0.3553 -1.1583
   25MOL   H118 8806   4.134   2.619   0.914 -1.8234  1.8977 -2.3866
   25MOL   H119 8807   4.021   2.613   1.049 -1.9508 -0.5134 -0.6166
   25MOL   H120 8808   3.978   2.682   0.755 -0.9503  0.3852 -0.4251
   25MOL   H121 8809   3.564   2.649   0.915 -1.2630  0.8457 -0.1907
   25MOL   H122 8810   3.562   2.675   1.085 -3.0124  0.6477 -0.4867
   25MOL   H123 8811   3.632   2.900   0.887  0.2013 -1.4958 -0.6893
   25MOL   H124 8812   3.467   2.879   0.960 -0.9257 -3.0169  0.8994
   25MOL   H125 8813   3.594   2.923   1.183 -2.2768 -0.3426 -2.0752
   25MOL   H126 8814   3.619   3.069   1.085  0.7731  0.4664 -1.1571
   25MOL   H127 8815   3.735   2.938   1.093 -0.4698  0.5586  0.3429
   25MOL   C128 8816   3.984   2.838   0.910 -0.4313  1.1882  0.1301
   25MOL   C129 8817   3.931   2.959   0.826  0.5341 -0.7970  0.1420
   25MOL   C130 8818   3.961   3.088   0.903 -0.0355 -0.0771  0.4316
   25MOL   O131 8819   3.864   3.157   0.937 -1.0707 -0.2340 -0.2907
   25MOL   O132 8820   4.094   3.121   0.920 -0.0848 -0.2367  0.5692
   25MOL   C133 8821   4.127   3.237   0.986  0.4775  0.2106 -0.4598
   25MOL   C134 8822   4.187   3.198   1.127  1.1402 -0.1144 -0.7911
   25MOL   C135 8823   4.087   3.119   1.212  0.5845  0.0246 -1.0071
   25MOL   H136 8824   4.093   2.847   0.913 -0.5721  2.3597  1.9710
   25MOL   H137 8825   3.953   2.853   1.013 -1.8243 -0.7694  0.0221
   25MOL   H138 8826   3.822   2.960   0.832  0.6257 -0.1267  1.7387
   25MOL   H139 8827   4.201   3.290   0.926  1.3262  0.0751  0.4571
   25MOL   H140 8828   4.048   3.312   0.989 -0.0326 -0.3397 -0.1253
   25MOL   H141 8829   4.282   3.146   1.114 -0.6716 -4.1045  1.0554
   25MOL   H142 8830   4.213   3.281   1.192  1.3219 -1.2982  0.6797
   25MOL   H143 8831   4.072   3.019   1.170 -0.5410  0.8423 -2.6059
   25MOL   H144 8832   3.996   3.175   1.236  2.0324  1.6488  0.8149
   25MOL   H145 8833   4.141   3.103   1.305 -0.7238 -1.5054 -0.4846
   25MOL   C146 8834   3.983   2.972   0.677  0.0725  0.2360 -0.1318
   25MOL   C147 8835   3.877   3.023   0.578  0.0954  0.5715 -0.5031
   25MOL   C148 8836   3.933   3.101   0.460  0.2930  0.1106  0.1810
   25MOL   O149 8837   3.869   3.198   0.420 -0.1958 -0.5210  0.1877
   25MOL   O150 8838   4.045   3.047   0.415  0.3152 -0.5267  0.2158
   25MOL   C151 8839   4.107   3.108   0.300 -0.8213  0.1761  0.0305
   25MOL   C152 8840   4.215   3.021   0.241  0.6421 -0.5069 -0.3966
   25MOL   C153 8841   4.271   3.081   0.110 -0.6658 -0.2832 -0.4840
   25MOL   H154 8842   4.016   2.876   0.637  0.6425 -0.1471  1.2465
   25MOL   H155 8843   4.079   3.021   0.659  1.5523 -2.5224 -0.0424
   25MOL   H156 8844   3.824   3.102   0.630 -1.2992 -1.3658  1.0570
   25MOL   H157 8845   4.027   3.116   0.227  2.3869 -0.5118 -3.7280
   25MOL   H158 8846   4.131   3.211   0.327 -2.0654  0.7552 -1.0386
   25MOL   H159 8847   4.293   3.017   0.317 -0.1010 -0.6260  0.3667
   25MOL   H160 8848   4.171   2.921   0.234 -1.9501  0.6035 -0.2157
   25MOL   H161 8849   4.312   3.180   0.131  4.7305 -2.3710 -0.5483
   25MOL   H162 8850   4.195   3.087   0.032 -1.4208  3.0262  0.4367
   25MOL   H163 8851   4.358   3.020   0.086 -1.3224 -0.4805 -2.4635
   25MOL   C164 8852   3.784   2.903   0.532 -0.2252  0.0903 -0.1503
   25MOL   C165 8853   3.648   2.953   0.480 -0.2397  0.1586  0.1266
   25MOL   C166 8854   3.596   2.868   0.362 -0.4501  0.2748  0.2878
   25MOL   O167 8855   3.616   2.746   0.359  0.2836 -0.3871 -0.0254
   25MOL   O168 8856   3.513   2.934   0.278 -1.0447 -0.4265 -0.6632
   25MOL   C169 8857   3.456   2.872   0.166  0.4972  0.1866  0.1709
   25MOL   C170 8858   3.345   2.775   0.197 -0.7825  0.4095 -0.0206
   25MOL   C171 8859   3.223   2.846   0.261  0.1598  0.4126  0.0038
   25MOL   H172 8860   3.761   2.837   0.615  1.1921 -0.3816 -0.1087
   25MOL   H173 8861   3.833   2.845   0.453 -0.0998  0.5108 -0.3845
   25MOL   H174 8862   3.669   3.049   0.433 -0.5938 -0.2249 -0.8236
   25MOL   H175 8863   3.418   2.951   0.102 -3.2369 -2.0606 -0.5461
   25MOL   H176 8864   3.520   2.816   0.098  0.8598  2.0773 -1.0655
   25MOL   H177 8865   3.331   2.729   0.100 -1.3031  1.5864 -0.5108
   25MOL   H178 8866   3.380   2.688   0.253  0.8472  1.6460  0.9238
   25MOL   H179 8867   3.242   2.848   0.368 -0.0305 -0.0038  0.0452
   25MOL   H180 8868   3.129   2.790   0.258  1.1518 -1.2521 -0.4804
   25MOL   H181 8869   3.200   2.944   0.218 -1.6539 -0.0895 -0.2213
   25MOL   C182 8870   3.549   2.961   0.597  0.1337  0.6154 -0.3543
   25MOL   C183 8871   3.430   3.052   0.578 -0.0884  0.1937 -0.0807
   25MOL   C184 8872   3.307   3.021   0.667 -0.2471 -0.1548  0.2258
   25MOL   O185 8873   3.315   2.968   0.774  0.3781 -0.7782 -0.2715
   25MOL   O186 8874   3.192   3.056   0.600  0.6295  0.1168  0.2722
   25MOL   C187 8875   3.072   3.054   0.675  0.9036  0.1335  0.5204
   25MOL   C188 8876   2.959   3.111   0.585  0.5820  0.2193 -0.1700
   25MOL   C189 8877   2.913   3.036   0.459  0.7630  0.0392  0.7652
   25MOL   H190 8878   3.595   2.994   0.690  1.9047 -0.9773 -0.6295
   25MOL   H191 8879   3.514   2.861   0.620  0.5560  0.6604  0.5103
   25MOL   H192 8880   3.398   3.030   0.476 -1.5931 -0.3292  0.4895
   25MOL   H193 8881   3.044   2.954   0.707  1.4743 -0.2672 -0.1988
   25MOL   H194 8882   3.079   3.116   0.764 -4.3967  1.2063  0.3589
   25MOL   H195 8883   2.863   3.126   0.636  0.9398  0.4223  0.4546
   25MOL   H196 8884   2.980   3.214   0.556 -1.5435  1.0029  0.9579
   25MOL   H197 8885   2.842   3.093   0.399  0.9128 -0.6064 -0.0410
   25MOL   H198 8886   2.873   2.937   0.481  1.6237 -0.3201  0.7278
   25MOL   H199 8887   3.001   3.025   0.395  1.0338  1.6936  0.8419
   25MOL   C200 8888   3.459   3.200   0.583  0.4103 -0.7662  0.2757
   25MOL   C201 8889   3.461   3.261   0.440  0.1735  0.3041  0.7459
   25MOL   C202 8890   3.319   3.286   0.379  0.6198 -0.0736  0.1977
   25MOL   O203 8891   3.287   3.229   0.280 -0.1713 -0.2034  0.5581
   25MOL   O204 8892   3.252   3.384   0.441 -0.1100  0.1245  0.7581
   25MOL   C205 8893   3.145   3.450   0.372 -0.6689  0.0858 -0.6607
   25MOL   C206 8894   3.085   3.548   0.468 -0.6003  0.0745  0.0679
   25MOL   C207 8895   3.192   3.660   0.498 -0.5276  0.0263 -0.7135
   25MOL   H208 8896   3.560   3.211   0.621 -0.3019 -0.5671  2.1708
   25MOL   H209 8897   3.395   3.251   0.655 -0.2531  1.0975 -1.5769
   25MOL   H210 8898   3.506   3.183   0.379 -0.7835 -2.0002  2.8984
   25MOL   H211 8899   3.186   3.502   0.286  0.0834  0.2710 -0.1963
   25MOL   H212 8900   3.083   3.371   0.331 -0.6125 -0.5075  0.3653
   25MOL   H213 8901   2.995   3.585   0.420  0.0198 -0.0799 -1.2395
   25MOL   H214 8902   3.050   3.494   0.556 -0.8795 -0.6748 -0.4979
   25MOL   H215 8903   3.135   3.726   0.562  0.3504  0.4304 -0.3399
   25MOL   H216 8904   3.220   3.714   0.408  1.8074 -1.3404 -0.8461
   25MOL   H217 8905   3.270   3.620   0.563 -1.5112 -0.7948 -0.0241
   25MOL   C218 8906   3.563   3.379   0.420 -0.1046  0.1414 -0.3703
   25MOL   C219 8907   3.622   3.402   0.278 -0.4155 -0.2540 -0.4973
   25MOL   C220 8908   3.516   3.443   0.177  0.3161 -0.1558  0.6089
   25MOL   O221 8909   3.446   3.534   0.215  0.1607 -0.2253 -0.2347
   25MOL   O222 8910   3.527   3.378   0.061 -0.3743 -0.0523  0.3782
   25MOL   C223 8911   3.417   3.413   7.856 -0.0495  0.1868 -0.0126
   25MOL   C224 8912   3.442   3.383   7.706  0.1664  0.1798  0.0192
   25MOL   C225 8913   3.450   3.231   7.676  0.0563 -0.8981 -0.1464
   25MOL   H226 8914   3.649   3.360   0.484 -0.8404  0.2167  0.6595
   25MOL   H227 8915   3.515   3.472   0.453  1.7560  0.4285  1.5801
   25MOL   H228 8916   3.673   3.312   0.245  0.4581 -1.1856  3.2151
   25MOL   H229 8917   3.326   3.359   0.000 -0.9496  0.4367 -2.5827
   25MOL   H230 8918   3.402   3.521   7.864 -1.8640 -0.1863  1.7393
   25MOL   H231 8919   3.356   3.428   7.655 -0.9473  0.1283  1.7801
   25MOL   H232 8920   3.530   3.437   7.671 -0.3332  0.9606 -0.0405
   25MOL   H233 8921   3.551   3.189   7.678 -0.0859 -1.1928  0.7579
   25MOL   H234 8922   3.407   3.205   7.579 -0.6008 -0.6514  0.0764
   25MOL   H235 8923   3.398   3.178   7.755 -1.9101  2.5212  0.9554
   25MOL   C236 8924   3.729   3.522   0.273 -0.2164 -0.8094 -0.1650
   25MOL   C237 8925   3.799   3.553   0.137 -0.0182  0.2822  0.2542
   25MOL   C238 8926   3.903   3.668   0.150  0.0959  0.6779  0.6749
   25MOL   O239 8927   3.889   3.780   0.096 -0.4009 -0.3503 -0.0774
   25MOL   O240 8928   4.007   3.622   0.226  0.3392 -0.3958 -0.7009
   25MOL   C241 8929   4.127   3.691   0.222  0.1199 -0.1411  0.0665
   25MOL   C242 8930   4.233   3.588   0.255  0.0662 -0.0123  0.3571
   25MOL   C243 8931   4.253   3.490   0.132  0.7160 -0.2539  0.2364
   25MOL   H244 8932   3.796   3.502   0.356 -0.4779  1.3818  0.6101
   25MOL   H245 8933   3.673   3.611   0.303  0.3857 -0.6288  0.4356
   25MOL   H246 8934   3.720   3.585   0.069 -1.7372 -2.4512  0.8967
   25MOL   H247 8935   4.140   3.742   0.127  1.0394 -0.0100  0.2576
   25MOL   H248 8936   4.127   3.772   0.295 -0.4121  0.9744 -1.1667
   25MOL   H249 8937   4.322   3.649   0.271  0.1156  0.2037 -0.7086
   25MOL   H250 8938   4.217   3.534   0.348 -1.1620 -0.3730 -0.0457
   25MOL   H251 8939   4.170   3.421   0.124  0.1365  0.1013  2.6885
   25MOL   H252 8940   4.331   3.416   0.152 -0.3948 -1.0244  1.7756
   25MOL   H253 8941   4.257   3.541   0.036 -0.0761 -0.5853  0.0265
   25MOL   C254 8942   3.866   3.426   0.079 -0.1965 -0.6559 -0.2042
   25MOL   C255 8943   3.931   3.440   7.812  0.1667 -0.5782  0.1192
   25MOL   C256 8944   4.029   3.326   7.787  0.3401  0.3200  0.3489
   25MOL   O257 8945   4.009   3.211   7.831  0.5779  0.2891  0.6147
   25MOL   O258 8946   4.140   3.374   7.722 -0.4300 -0.2221 -1.0834
   25MOL   C259 8947   4.249   3.294   7.676  0.3042  0.2974 -0.2206
   25MOL   C260 8948   4.319   3.387   7.574 -0.3858  0.1562  1.0286
   25MOL   C261 8949   4.357   3.525   7.628  0.0308 -0.1464  0.4887
   25MOL   H262 8950   3.797   3.342   0.070  0.1408 -1.1588  1.6426
   25MOL   H263 8951   3.946   3.402   0.149  1.4111  0.4075 -1.6442
   25MOL   H264 8952   3.981   3.537   7.809 -0.4944 -0.2286  0.2159
   25MOL   H265 8953   4.305   3.270   7.766 -1.2722 -1.2124  0.4006
   25MOL   H266 8954   4.211   3.199   7.636  0.5616  0.8842 -1.8965
   25MOL   H267 8955   4.411   3.333   7.549 -0.0973  0.2929  1.7814
   25MOL   H268 8956   4.259   3.380   7.483  2.1783  1.1934 -0.8102
   25MOL   H269 8957   4.274   3.593   7.648  2.5226  3.8681 -2.0612
   25MOL   H270 8958   4.421   3.585   7.562 -0.5856  0.0753  0.0904
   25MOL   H271 8959   4.406   3.528   7.726 -0.7594  1.4905  0.8489
   25MOL   C272 8960   3.824   3.448   7.702 -0.0332  0.1236  0.4194
   25MOL   C273 8961   3.866   3.478   7.552  1.0712 -0.1392 -0.0000
   25MOL   C274 8962   3.741   3.503   7.462 -0.2345 -0.3482 -0.0587
   25MOL   O275 8963   3.714   3.430   7.366  0.4711 -0.3469 -0.1641
   25MOL   O276 8964   3.677   3.623   7.486  0.3521  0.3423 -0.2084
   25MOL   C277 8965   3.558   3.648   7.418  0.0845  0.1431 -0.1368
   25MOL   C278 8966   3.574   3.740   7.303  0.3308 -0.3599 -0.4867
   25MOL   C279 8967   3.595   3.883   7.342 -0.0473 -0.0212 -0.8465
   25MOL   H280 8968   3.747   3.520   7.727  1.0963  0.7345  2.2202
   25MOL   H281 8969   3.776   3.350   7.703 -0.2367  0.2318  1.5081
   25MOL   H282 8970   3.913   3.391   7.506 -0.9162 -1.0165 -0.4205
   25MOL   H283 8971   3.515   3.554   7.386  2.1974 -1.0645  0.4669
   25MOL   H284 8972   3.501   3.689   7.502  0.0622 -0.3387  0.0854
   25MOL   H285 8973   3.652   3.690   7.246 -0.6383  0.3695 -2.5094
   25MOL   H286 8974   3.488   3.739   7.235 -0.8280 -0.3911  0.9577
   25MOL   H287 8975   3.532   3.914   7.425  1.5400 -0.1202  0.4084
   25MOL   H288 8976   3.581   3.960   7.265  1.3334 -1.1525 -2.2664
   25MOL   H289 8977   3.698   3.906   7.370 -0.0701 -1.7080  0.6610
   25MOL   C290 8978   3.962   3.601   7.542 -0.1227  0.5530  0.4253
   25MOL   C291 8979   3.982   3.679   7.413  0.4529  0.0971 -0.8985
   25MOL   C292 8980   4.075   3.801   7.451 -0.4599  0.0461 -0.7282
   25MOL   O293 8981   4.194   3.805   7.427  0.2799  0.3207  0.0293
   25MOL   O294 8982   4.008   3.901   7.508 -0.3222  0.0849  0.0979
   25MOL   C295 8983   4.078   4.021   7.548 -0.3651 -0.4642 -0.3360
   25MOL   C296 8984   4.128   4.014   7.691  0.3965  0.1908 -0.0581
   25MOL   C297 8985   4.153   4.149   7.750 -0.6389  0.2948 -0.0904
   25MOL   H298 8986   4.061   3.562   7.565  1.0733  2.9590 -0.5099
   25MOL   H299 8987   3.932   3.663   7.626  1.3705  1.1503  0.5405
   25MOL   H300 8988   3.885   3.723   7.389  0.5331  0.2036 -1.0249
   25MOL   H301 8989   4.164   4.049   7.488  0.5956 -0.6959  0.9367
   25MOL   H302 8990   4.006   4.102   7.534 -0.1452  0.0066  1.1609
   25MOL   H303 8991   4.049   3.967   7.749  0.4251  0.6335  0.3381
   25MOL   H304 8992   4.210   3.943   7.704 -0.5893 -1.0557 -0.5181
   25MOL   H305 8993   4.072   4.216   7.723 -0.6039  0.0378 -0.8423
   25MOL   H306 8994   4.238   4.198   7.703 -0.1478 -0.0782  0.4053
   25MOL   H307 8995   4.163   4.150   7.859 -0.6075 -1.0623 -0.0711
   25MOL   C308 8996   4.037   3.585   7.299 -0.0375  0.4021 -0.0291
   25MOL   C309 8997   4.028   3.628   7.153  0.6423  0.3863  0.0529
   25MOL   C310 8998   4.165   3.638   7.065  0.0722  0.1731  0.3092
   25MOL   O311 8999   4.186   3.548   6.982  0.1413 -0.5712 -0.6149
   25MOL   O312 9000   4.240   3.752   7.086 -0.4150  0.0048 -0.0604
   25MOL   C313 9001   4.358   3.761   7.016  0.9700  0.3003 -0.1828
   25MOL   C314 9002   4.450   3.854   7.092 -0.6386 -0.4676  0.0565
   25MOL   C315 9003   4.402   4.001   7.085  0.1291  0.2432  0.3135
   25MOL   H316 9004   3.998   3.484   7.304  0.6904  0.0718 -0.9544
   25MOL   H317 9005   4.144   3.570   7.315 -0.0900  2.9732  3.3288
   25MOL   H318 9006   4.005   3.734   7.142  0.0141  0.1928 -0.5392
   25MOL   H319 9007   4.404   3.662   7.010  1.3416  0.4774 -0.2251
   25MOL   H320 9008   4.353   3.806   6.916  2.6692 -1.6722 -1.2018
   25MOL   H321 9009   4.464   3.814   7.192  1.1228 -1.0465 -0.4081
   25MOL   H322 9010   4.551   3.864   7.053 -1.3017 -0.0148 -1.5826
   25MOL   H323 9011   4.482   4.074   7.092 -0.8843  1.6561 -2.0010
   25MOL   H324 9012   4.357   4.009   6.985 -1.7110 -0.5647  1.0421
   25MOL   H325 9013   4.328   4.028   7.161  0.2258 -0.5084  0.6757
   25MOL   C326 9014   3.911   3.552   7.086 -0.0642  0.5701  0.2831
   25MOL   C327 9015   3.853   3.622   6.964  0.2376 -0.7931  0.4761
   25MOL   C328 9016   3.802   3.518   6.867 -0.0864 -0.5458  0.8544
   25MOL   O329 9017   3.833   3.517   6.747  0.1181  0.5328 -0.1445
   25MOL   O330 9018   3.695   3.455   6.922 -0.0008  0.3460 -0.1022
   25MOL   C331 9019   3.593   3.402   6.842 -0.2444 -0.1438  0.3827
   25MOL   C332 9020   3.620   3.267   6.783  0.1329 -0.2051  0.3392
   25MOL   C333 9021   3.495   3.207   6.715 -0.2394 -0.1902 -0.0090
   25MOL   H334 9022   3.829   3.536   7.156  1.1497 -0.3713  1.5439
   25MOL   H335 9023   3.958   3.459   7.054  0.2343  0.9340 -0.3411
   25MOL   H336 9024   3.936   3.661   6.905 -0.1227  2.8911  2.2958
   25MOL   H337 9025   3.499   3.409   6.897 -0.5951  2.9807 -0.5186
   25MOL   H338 9026   3.579   3.475   6.762 -0.9512 -0.9680 -0.2555
   25MOL   H339 9027   3.694   3.269   6.703 -2.2533 -1.2209 -1.9725
   25MOL   H340 9028   3.654   3.202   6.863  2.3046  2.2090  1.4643
   25MOL   H341 9029   3.504   3.102   6.687  0.3379  0.0327 -0.6776
   25MOL   H342 9030   3.418   3.199   6.792  0.5077 -2.4026  0.5330
   25MOL   H343 9031   3.459   3.272   6.635 -0.5128 -0.3170  0.0095
   25MOL   C344 9032   3.767   3.743   6.997  0.1348  0.2591 -0.1205
   25MOL   C345 9033   3.725   3.827   6.873  0.7384  0.5553 -0.3901
   25MOL   C346 9034   3.842   3.878   6.791 -0.2287  0.6210  0.3649
   25MOL   O347 9035   3.937   3.936   6.840  0.0411 -0.2423  0.5313
   25MOL   O348 9036   3.824   3.849   6.663  0.2946  0.6702  0.5976
   25MOL   C349 9037   3.944   3.834   6.578  0.3659  0.1719 -0.8930
   25MOL   C350 9038   3.905   3.789   6.432 -0.4512  0.6526  0.0167
   25MOL   C351 9039   3.848   3.643   6.429  0.2683  0.0298  0.4532
   25MOL   H352 9040   3.813   3.806   7.074 -0.0195 -0.1124  0.2766
   25MOL   H353 9041   3.673   3.703   7.034 -0.5384  1.6019 -0.3631
   25MOL   H354 9042   3.662   3.911   6.903 -1.6994 -1.4556  0.2883
   25MOL   H355 9043   3.991   3.932   6.573  0.9343  0.1400  2.3379
   25MOL   H356 9044   4.023   3.767   6.610 -0.1076  0.5026  1.0485
   25MOL   H357 9045   3.835   3.860   6.390 -1.8767 -1.0112 -0.4821
   25MOL   H358 9046   3.992   3.798   6.367 -1.0165 -1.5417 -1.0866
   25MOL   H359 9047   3.925   3.573   6.461  1.1668  0.1348 -1.3860
   25MOL   H360 9048   3.772   3.620   6.503  1.2799 -2.5455  0.7333
   25MOL   H361 9049   3.788   3.624   6.340 -1.2908  2.2788  0.9580
   25MOL   H362 9050   3.666   3.763   6.807 -0.3490 -0.0649  1.1657
   26MOL     C1 9051   4.442   4.744   4.015 -0.4441  0.3088  0.0088
   26MOL     C2 9052   4.486   4.639   4.135 -0.3421 -0.7857  0.7120
   26MOL     C3 9053   4.634   4.632   4.150 -0.0393  0.0514  0.7968
   26MOL     O4 9054   4.704   4.544   4.105  0.1136  0.7823 -0.2675
   26MOL     O5 9055   4.671   4.747   4.202  0.0735 -0.0277  0.1192
   26MOL     C6 9056   4.808   4.776   4.203  0.4927 -0.2905 -0.0969
   26MOL     C7 9057   4.876   4.736   4.335 -0.1635 -0.3539 -0.6861
   26MOL     C8 9058   5.012   4.801   4.354 -0.1326 -0.7938 -0.0740
   26MOL     H9 9059   4.465   4.849   4.031  0.2393  0.0462  0.7642
   26MOL    H10 9060   4.482   4.713   3.918  1.5137 -1.1243  1.2504
   26MOL    H11 9061   4.457   4.540   4.102 -0.5683 -0.6871  0.6148
   26MOL    H12 9062   4.861   4.746   4.112 -0.7766 -1.5908 -0.4444
   26MOL    H13 9063   4.812   4.884   4.207  2.2162 -0.3660  0.4309
   26MOL    H14 9064   4.815   4.775   4.417  1.3050 -0.9654  0.7273
   26MOL    H15 9065   4.882   4.628   4.345 -1.3878 -0.5745 -2.1150
   26MOL    H16 9066   5.067   4.772   4.264  2.4322  3.0295  0.1615
   26MOL    H17 9067   5.000   4.908   4.363 -1.4518 -1.1733  3.4835
   26MOL    H18 9068   5.079   4.770   4.434  2.6268  0.0645 -1.9647
   26MOL    H19 9069   4.333   4.752   4.004 -0.8926 -0.4095  3.4756
   26MOL    C20 9070   4.405   4.671   4.263 -0.2300  0.8770 -0.2719
   26MOL    C21 9071   4.299   4.565   4.289  0.0642  0.3761 -0.4528
   26MOL    C22 9072   4.174   4.577   4.199  0.0609  0.3819 -0.1851
   26MOL    O23 9073   4.168   4.513   4.092 -0.0042 -0.3242 -0.3111
   26MOL    O24 9074   4.073   4.649   4.258 -0.4785 -0.5912 -0.7224
   26MOL    C25 9075   3.953   4.668   4.184  0.1048 -0.6147  0.1319
   26MOL    C26 9076   3.846   4.603   4.256  0.0663  0.4268  0.2528
   26MOL    C27 9077   3.779   4.664   4.379 -0.4417 -0.3746  0.8761
   26MOL    H28 9078   4.363   4.769   4.240 -0.0284  1.1436  0.4787
   26MOL    H29 9079   4.465   4.701   4.348  2.1796  0.6471 -1.8430
   26MOL    H30 9080   4.264   4.594   4.388 -2.1052 -1.3809 -0.6660
   26MOL    H31 9081   3.921   4.768   4.155  1.0483  0.4759  2.7383
   26MOL    H32 9082   3.963   4.617   4.088 -0.6333  0.3325 -0.4547
   26MOL    H33 9083   3.766   4.596   4.181  0.9489  4.3744 -1.1989
   26MOL    H34 9084   3.877   4.502   4.280  0.0409 -0.1175 -1.9066
   26MOL    H35 9085   3.851   4.682   4.459  1.2524  0.6492 -0.8449
   26MOL    H36 9086   3.701   4.602   4.423 -0.6976 -1.9996 -1.7614
   26MOL    H37 9087   3.747   4.766   4.360  1.6834 -0.1536 -1.8845
   26MOL    C38 9088   4.340   4.414   4.295 -0.5596 -0.1313  0.3236
   26MOL    C39 9089   4.427   4.382   4.416  0.3045  0.2288  0.3815
   26MOL    C40 9090   4.353   4.373   4.549 -0.0461  0.1138 -0.4051
   26MOL    O41 9091   4.374   4.452   4.643  0.6401  0.4080  0.1671
   26MOL    O42 9092   4.265   4.271   4.552 -0.7278 -0.0302  0.3311
   26MOL    C43 9093   4.180   4.247   4.663  0.2299  0.6948 -0.8645
   26MOL    C44 9094   4.049   4.175   4.615  0.1979 -0.2491 -0.2800
   26MOL    C45 9095   3.955   4.283   4.556 -0.1132  0.4831  0.1754
   26MOL    H46 9096   4.394   4.377   4.208 -1.2730  0.7899 -0.5198
   26MOL    H47 9097   4.251   4.351   4.300 -1.7609  1.5214  0.0781
   26MOL    H48 9098   4.505   4.457   4.430  0.8424 -0.5901  1.8085
   26MOL    H49 9099   4.233   4.182   4.733  0.7661  0.0535 -1.8519
   26MOL    H50 9100   4.154   4.333   4.725  1.4018  0.1317  0.4285
   26MOL    H51 9101   4.058   4.107   4.530 -0.4487 -0.7913  0.0846
   26MOL    H52 9102   4.007   4.122   4.701  0.0938  1.1668  0.5619
   26MOL    H53 9103   3.863   4.232   4.526 -0.2241 -0.4904  2.0720
   26MOL    H54 9104   3.987   4.335   4.466  0.6632  2.8805  1.7887
   26MOL    H55 9105   3.937   4.359   4.632 -0.3509  0.1584  0.4487
   26MOL    C56 9106   4.516   4.252   4.394  1.4387 -0.2196 -0.5462
   26MOL    C57 9107   4.668   4.275   4.397  0.0037  0.2493  0.6123
   26MOL    C58 9108   4.714   4.331   4.534  0.3660  0.0727  0.7344
   26MOL    O59 9109   4.770   4.439   4.548  0.7161 -0.0279 -0.4264
   26MOL    O60 9110   4.678   4.249   4.637 -0.1021 -0.3005  0.2972
   26MOL    C61 9111   4.714   4.287   4.768  0.1061 -0.2866 -0.1961
   26MOL    C62 9112   4.597   4.246   4.852 -0.1157  0.0568 -0.6959
   26MOL    C63 9113   4.598   4.289   4.996 -0.8048 -0.0800 -0.4608
   26MOL    H64 9114   4.488   4.205   4.300  0.4326  1.3154 -1.0234
   26MOL    H65 9115   4.498   4.174   4.467  0.0785 -0.9076 -1.6128
   26MOL    H66 9116   4.699   4.346   4.321  2.1061 -1.3130 -0.0596
   26MOL    H67 9117   4.807   4.234   4.788 -0.6107 -1.6582 -0.4188
   26MOL    H68 9118   4.725   4.394   4.786 -1.4068 -0.0373 -0.6999
   26MOL    H69 9119   4.509   4.289   4.803  0.7179 -0.1488 -2.4077
   26MOL    H70 9120   4.598   4.137   4.852  0.4583  0.0626  0.1528
   26MOL    H71 9121   4.687   4.245   5.040  0.5613  1.9702 -1.1239
   26MOL    H72 9122   4.510   4.249   5.048 -2.3727  2.1679 -1.3441
   26MOL    H73 9123   4.600   4.398   4.993 -0.2134 -0.0637  0.3161
   26MOL    C74 9124   4.737   4.142   4.356  0.1351  0.0595  0.0212
   26MOL    C75 9125   4.779   4.139   4.213  0.2545 -0.0104 -0.1024
   26MOL    C76 9126   4.911   4.217   4.188 -0.9895 -0.3802  0.7428
   26MOL    O77 9127   4.985   4.263   4.279  0.0366 -0.7209 -1.4168
   26MOL    O78 9128   4.938   4.237   4.056  1.0153  0.2602 -0.0586
   26MOL    C79 9129   5.046   4.321   4.017 -0.4709 -0.8070  0.3153
   26MOL    C80 9130   5.086   4.278   3.880  0.0419  0.3605 -0.1151
   26MOL    C81 9131   5.166   4.142   3.878  0.1829  0.0413  0.4281
   26MOL    H82 9132   4.669   4.059   4.376  0.5959 -0.2222  0.4511
   26MOL    H83 9133   4.815   4.122   4.430  0.1839  0.3700  0.0543
   26MOL    H84 9134   4.700   4.188   4.157 -3.2319 -3.2199  1.8448
   26MOL    H85 9135   5.005   4.422   4.020  1.3151 -0.0363 -0.8380
   26MOL    H86 9136   5.139   4.306   4.071  0.2953  0.9736 -0.4762
   26MOL    H87 9137   5.010   4.272   3.802  0.4780  0.4477 -0.5511
   26MOL    H88 9138   5.168   4.344   3.852 -0.9582  2.6319  2.1609
   26MOL    H89 9139   5.208   4.137   3.778  1.1541 -1.0127  0.8782
   26MOL    H90 9140   5.115   4.046   3.887  0.0662  0.3148  3.2464
   26MOL    H91 9141   5.247   4.147   3.950 -1.7074  1.0876  2.5398
   26MOL    C92 9142   4.773   3.996   4.162 -0.9428 -0.0557  0.3334
   26MOL    C93 9143   4.788   3.974   4.008  0.2146 -0.5239  0.7824
   26MOL    C94 9144   4.802   3.827   3.970  0.0429  0.6316  0.2123
   26MOL    O95 9145   4.791   3.737   4.051  0.5411  0.6601  0.4713
   26MOL    O96 9146   4.829   3.804   3.842  0.5268 -0.5282  0.2331
   26MOL    C97 9147   4.874   3.677   3.800  0.2195  0.0650  0.4146
   26MOL    C98 9148   5.022   3.662   3.783 -0.0326 -0.5207 -0.0756
   26MOL    C99 9149   5.075   3.759   3.671 -0.1512 -0.4109 -0.3737
   26MOL   H100 9150   4.676   3.951   4.180 -0.1342 -1.3144  1.6591
   26MOL   H101 9151   4.855   3.938   4.205 -0.0151  1.9069  1.2742
   26MOL   H102 9152   4.879   4.016   3.967 -0.7538  0.9503  0.1050
   26MOL   H103 9153   4.831   3.591   3.853  0.9165  0.4825  1.6844
   26MOL   H104 9154   4.831   3.666   3.701 -2.3960 -0.6070  1.5676
   26MOL   H105 9155   5.083   3.682   3.870  2.2535  0.5352 -1.8677
   26MOL   H106 9156   5.047   3.558   3.764 -0.3835 -0.6057 -0.0892
   26MOL   H107 9157   5.064   3.718   3.570  0.5438  1.4250 -1.2126
   26MOL   H108 9158   5.179   3.783   3.691  0.3254 -1.1883 -1.7805
   26MOL   H109 9159   5.030   3.858   3.676  1.0386  0.1333 -0.2423
   26MOL   C110 9160   4.669   4.041   3.931 -0.0625 -0.3828 -0.3110
   26MOL   C111 9161   4.720   4.133   3.815  0.3752 -0.3916 -0.4361
   26MOL   C112 9162   4.750   4.068   3.680 -0.1465 -0.4064  0.1922
   26MOL   O113 9163   4.856   4.090   3.635 -0.2683  0.6392 -0.5098
   26MOL   O114 9164   4.647   3.999   3.636 -0.6110  0.6181  0.0378
   26MOL   C115 9165   4.646   3.923   3.516 -0.0047 -0.6360 -0.4263
   26MOL   C116 9166   4.633   4.007   3.395  0.8372  0.1596  0.2093
   26MOL   C117 9167   4.492   4.075   3.399 -0.0327  0.2445  0.4123
   26MOL   H118 9168   4.607   4.101   3.997 -0.1061 -0.0823 -0.6227
   26MOL   H119 9169   4.598   3.962   3.905  0.6766 -1.3712  0.6406
   26MOL   H120 9170   4.817   4.176   3.836  0.2675 -1.0992  1.5804
   26MOL   H121 9171   4.741   3.870   3.511  0.3635 -0.0714  0.3809
   26MOL   H122 9172   4.567   3.849   3.529  0.4175 -1.0895 -0.4352
   26MOL   H123 9173   4.719   4.073   3.384  0.8948 -0.0761 -0.7855
   26MOL   H124 9174   4.638   3.948   3.303  4.0718 -0.0166  0.4190
   26MOL   H125 9175   4.483   4.182   3.386 -4.0465  0.0480  0.9901
   26MOL   H126 9176   4.443   4.063   3.495  0.2787 -0.6188  0.4722
   26MOL   H127 9177   4.430   4.035   3.318  0.2207 -0.1710  0.4190
   26MOL   C128 9178   4.615   4.243   3.793  0.6441  0.5652  0.1227
   26MOL   C129 9179   4.624   4.356   3.691  0.1089  0.5535 -0.5051
   26MOL   C130 9180   4.490   4.409   3.650  0.1233  0.4690 -0.2675
   26MOL   O131 9181   4.440   4.377   3.542  0.4720  0.1260 -0.2142
   26MOL   O132 9182   4.415   4.480   3.745 -0.1967 -0.3554  0.1430
   26MOL   C133 9183   4.295   4.541   3.716  0.7572  0.0064  0.2410
   26MOL   C134 9184   4.163   4.471   3.761  0.0544  0.4564  0.2770
   26MOL   C135 9185   4.156   4.337   3.682  0.7440 -0.1580  0.6016
   26MOL   H136 9186   4.606   4.288   3.892 -0.8483 -1.2970  0.8580
   26MOL   H137 9187   4.525   4.183   3.781  1.6573 -0.7273 -1.1631
   26MOL   H138 9188   4.659   4.306   3.600 -2.5917 -1.7563 -0.3597
   26MOL   H139 9189   4.296   4.633   3.775  0.1837 -0.1862  0.5520
   26MOL   H140 9190   4.284   4.570   3.612 -1.3427  1.2547  0.7786
   26MOL   H141 9191   4.156   4.464   3.870 -4.5095 -1.6864 -0.0549
   26MOL   H142 9192   4.072   4.522   3.729  0.2081  0.4745 -0.1255
   26MOL   H143 9193   4.237   4.269   3.708 -0.9021 -2.7649 -0.8775
   26MOL   H144 9194   4.146   4.338   3.574  1.0290 -1.1925  0.5570
   26MOL   H145 9195   4.075   4.286   3.735 -0.4573  1.7793  0.6666
   26MOL   C146 9196   4.725   4.455   3.731 -0.5359  0.3964  0.5417
   26MOL   C147 9197   4.758   4.571   3.626  0.1413  0.1905 -0.7872
   26MOL   C148 9198   4.807   4.697   3.699 -0.7959 -0.8905 -0.0984
   26MOL   O149 9199   4.929   4.730   3.696  0.0375 -0.6960 -0.5049
   26MOL   O150 9200   4.704   4.754   3.770 -0.1004  0.1425 -0.2972
   26MOL   C151 9201   4.720   4.870   3.844 -0.4085 -0.3327  0.3194
   26MOL   C152 9202   4.653   4.993   3.791  0.2139 -0.0302 -0.5333
   26MOL   C153 9203   4.708   5.035   3.653 -0.1608  0.1776 -0.0710
   26MOL   H154 9204   4.816   4.404   3.762 -0.2413  0.9711  0.6333
   26MOL   H155 9205   4.696   4.497   3.828  3.2835  0.3772  1.7767
   26MOL   H156 9206   4.660   4.602   3.588  0.4442  1.0092 -0.9099
   26MOL   H157 9207   4.696   4.844   3.947 -2.7461  3.0993  0.7298
   26MOL   H158 9208   4.823   4.904   3.859 -0.5693  0.3729 -0.1451
   26MOL   H159 9209   4.545   4.975   3.788  0.1149  0.3729  0.6268
   26MOL   H160 9210   4.680   5.069   3.863 -0.5417 -1.2021  1.0232
   26MOL   H161 9211   4.664   5.130   3.622 -0.9383 -0.5227 -1.1627
   26MOL   H162 9212   4.680   4.971   3.569 -0.3479 -1.5404  1.2676
   26MOL   H163 9213   4.816   5.045   3.641  0.0408 -3.1707 -1.7542
   26MOL   C164 9214   4.846   4.518   3.509 -0.2360  0.1761  0.1249
   26MOL   C165 9215   4.852   4.613   3.388  0.3958 -0.1341 -0.3126
   26MOL   C166 9216   4.951   4.569   3.279  0.2114  0.3146 -0.2410
   26MOL   O167 9217   5.055   4.636   3.261 -0.1564 -0.4341 -0.2908
   26MOL   O168 9218   4.911   4.449   3.214 -0.4323 -0.3803  0.0106
   26MOL   C169 9219   4.980   4.411   3.099  0.4742 -0.1598  0.2089
   26MOL   C170 9220   4.918   4.286   3.025  0.4297 -0.2526 -0.2931
   26MOL   C171 9221   4.766   4.306   3.007  0.3471  0.4238  0.7491
   26MOL   H172 9222   4.812   4.419   3.478  4.4426 -1.1458 -1.1658
   26MOL   H173 9223   4.949   4.508   3.543  0.2010  0.0862 -1.1938
   26MOL   H174 9224   4.878   4.711   3.428  2.7509 -1.8571  2.5517
   26MOL   H175 9225   4.991   4.498   3.034 -1.5814  0.1196  0.2029
   26MOL   H176 9226   5.084   4.390   3.125  0.5914 -0.9365 -0.8251
   26MOL   H177 9227   4.975   4.254   2.938  1.7962 -1.3235  0.9644
   26MOL   H178 9228   4.937   4.208   3.098  0.7449  0.5842  0.5317
   26MOL   H179 9229   4.718   4.305   3.104 -0.8342  1.6151  0.1955
   26MOL   H180 9230   4.721   4.227   2.946 -1.4492  1.8595  0.1596
   26MOL   H181 9231   4.736   4.399   2.959  0.0168 -0.4227 -0.7133
   26MOL   C182 9232   4.709   4.628   3.322 -0.1130 -0.7517  0.2976
   26MOL   C183 9233   4.662   4.777   3.301 -0.1569  0.1393 -0.0595
   26MOL   C184 9234   4.750   4.834   3.197 -0.3542  0.0650 -1.0445
   26MOL   O185 9235   4.739   4.819   3.078 -0.0556  0.2445 -0.3448
   26MOL   O186 9236   4.845   4.916   3.255 -0.2939 -0.6107 -0.2576
   26MOL   C187 9237   4.949   4.969   3.172 -0.8231  0.0846 -0.4156
   26MOL   C188 9238   5.076   5.025   3.241 -0.2465 -0.4654  0.0086
   26MOL   C189 9239   5.131   4.931   3.352 -0.4635  0.1625  0.2551
   26MOL   H190 9240   4.638   4.584   3.392  0.3464 -0.8232  0.7200
   26MOL   H191 9241   4.693   4.572   3.230 -0.9701 -1.0533  0.6262
   26MOL   H192 9242   4.674   4.838   3.391  2.6493 -0.2869 -0.1078
   26MOL   H193 9243   4.991   4.880   3.126 -1.6656 -1.3660  1.5661
   26MOL   H194 9244   4.910   5.041   3.100 -3.0399 -0.2167  0.4544
   26MOL   H195 9245   5.158   5.046   3.172  0.0039  1.0953  0.7710
   26MOL   H196 9246   5.045   5.119   3.286 -1.0908 -1.6449  1.9493
   26MOL   H197 9247   5.064   4.906   3.434  1.7789 -4.0695  0.9108
   26MOL   H198 9248   5.216   4.982   3.398 -0.3685 -0.8581  1.2332
   26MOL   H199 9249   5.174   4.835   3.326  1.4954  0.4477  2.2772
   26MOL   C200 9250   4.520   4.788   3.251  0.0452 -0.0063 -0.7211
   26MOL   C201 9251   4.411   4.741   3.339  1.1502  0.4456 -0.4172
   26MOL   C202 9252   4.395   4.839   3.459  0.4084 -0.9086  0.6577
   26MOL   O203 9253   4.450   4.818   3.567  0.4220 -0.0803 -0.0469
   26MOL   O204 9254   4.315   4.939   3.428 -0.0371 -0.0242 -0.0385
   26MOL   C205 9255   4.297   5.058   3.511  0.6214  0.4584 -0.1381
   26MOL   C206 9256   4.385   5.174   3.470 -0.1283 -0.5243  0.5110
   26MOL   C207 9257   4.325   5.265   3.358  0.0459  0.4307 -0.3869
   26MOL   H208 9258   4.506   4.741   3.153 -0.7487  1.2230 -1.2069
   26MOL   H209 9259   4.516   4.897   3.246  0.6556 -0.0187 -1.6794
   26MOL   H210 9260   4.428   4.643   3.384  0.6101  0.1490 -0.8503
   26MOL   H211 9261   4.199   5.103   3.522  0.7727  0.8690 -0.4457
   26MOL   H212 9262   4.318   5.035   3.615 -1.5306 -1.0004  0.0071
   26MOL   H213 9263   4.423   5.224   3.559  1.9428  0.1178 -0.6863
   26MOL   H214 9264   4.472   5.123   3.427  1.1192  0.5889  1.6504
   26MOL   H215 9265   4.293   5.200   3.276 -0.8227 -0.5668  0.7237
   26MOL   H216 9266   4.399   5.336   3.322 -0.3816  1.5408  0.8947
   26MOL   H217 9267   4.242   5.321   3.400 -1.5862 -0.2336 -2.6361
   26MOL   C218 9268   4.287   4.714   3.254 -0.6063 -0.3409 -0.3152
   26MOL   C219 9269   4.156   4.672   3.329  0.2649  0.6738  0.3425
   26MOL   C220 9270   4.070   4.796   3.368  0.3957  0.2505 -0.3897
   26MOL   O221 9271   4.025   4.817   3.484 -0.2855 -0.1762  0.9231
   26MOL   O222 9272   4.055   4.877   3.259 -0.2002 -0.1727  0.1539
   26MOL   C223 9273   3.987   5.003   3.283  0.2212 -0.0680  0.0717
   26MOL   C224 9274   3.847   5.004   3.221  0.1088  0.3331  0.1769
   26MOL   C225 9275   3.746   4.910   3.284 -0.2827 -0.3129 -0.1436
   26MOL   H226 9276   4.308   4.635   3.183  3.3977 -0.5158  0.9433
   26MOL   H227 9277   4.279   4.805   3.195 -0.0918  0.4933  0.8659
   26MOL   H228 9278   4.189   4.616   3.417 -1.9160 -3.3940 -1.3295
   26MOL   H229 9279   3.986   5.034   3.388  0.2742  0.0998  0.0224
   26MOL   H230 9280   4.054   5.083   3.251  1.3556 -1.5728 -1.3790
   26MOL   H231 9281   3.807   5.105   3.215  0.4580  0.3963 -1.1903
   26MOL   H232 9282   3.866   4.963   3.122  1.2210  0.4990  0.3156
   26MOL   H233 9283   3.682   4.968   3.350 -0.3892  1.7833 -2.0428
   26MOL   H234 9284   3.786   4.828   3.344  1.6254 -1.0470 -2.3372
   26MOL   H235 9285   3.673   4.876   3.210  0.0235 -0.7878 -0.2352
   26MOL   C236 9286   4.073   4.576   3.237  0.4266 -0.6833  0.3190
   26MOL   C237 9287   4.132   4.430   3.219 -0.0937  0.0018 -0.4109
   26MOL   C238 9288   4.071   4.326   3.314  0.4994 -1.0540 -0.5962
   26MOL   O239 9289   3.984   4.355   3.397 -0.0658 -0.3716  0.4675
   26MOL   O240 9290   4.127   4.198   3.293 -0.3478  0.0403 -0.4541
   26MOL   C241 9291   4.083   4.091   3.375  0.2866 -0.7675 -0.0182
   26MOL   C242 9292   4.001   3.991   3.287 -0.0043 -0.2735 -0.6232
   26MOL   C243 9293   4.081   3.920   3.180  0.2173  0.0635 -0.5346
   26MOL   H244 9294   4.050   4.629   3.144  0.1626 -0.3708  0.5580
   26MOL   H245 9295   3.979   4.566   3.292  0.2192  0.9267  0.2910
   26MOL   H246 9296   4.239   4.436   3.242  0.1436 -0.0613 -1.4623
   26MOL   H247 9297   4.174   4.040   3.408 -0.0526 -0.7065  1.0116
   26MOL   H248 9298   4.031   4.126   3.464  0.7386  1.1183 -0.4644
   26MOL   H249 9299   3.959   3.928   3.366 -0.7908 -1.8971 -2.3121
   26MOL   H250 9300   3.928   4.051   3.233  0.1488  1.3763  0.9546
   26MOL   H251 9301   4.138   3.999   3.132 -1.1519  2.6962  1.9761
   26MOL   H252 9302   4.013   3.872   3.109 -1.7537 -1.2542  2.1289
   26MOL   H253 9303   4.149   3.844   3.219 -0.7616 -0.3788  0.3388
   26MOL   C254 9304   4.113   4.383   3.069 -0.3698 -0.1768  0.0212
   26MOL   C255 9305   4.181   4.463   2.950 -0.6066  0.3458 -0.0001
   26MOL   C256 9306   4.327   4.443   2.945 -0.1114  0.8875  0.3925
   26MOL   O257 9307   4.384   4.340   2.970 -0.7048  0.2137 -0.4723
   26MOL   O258 9308   4.386   4.552   2.899 -0.2533  0.4358 -0.1219
   26MOL   C259 9309   4.525   4.578   2.891 -0.7089  0.6236  0.1683
   26MOL   C260 9310   4.560   4.703   2.803  0.3981  0.0112  0.2548
   26MOL   C261 9311   4.543   4.668   2.653 -0.2750  0.5656  0.4793
   26MOL   H262 9312   4.005   4.384   3.060 -0.7224  0.4213  3.5751
   26MOL   H263 9313   4.144   4.279   3.056  1.4069  0.5479 -1.8795
   26MOL   H264 9314   4.160   4.568   2.972 -0.4987  0.7161 -1.6338
   26MOL   H265 9315   4.570   4.588   2.990 -0.0716  3.8617 -0.3917
   26MOL   H266 9316   4.580   4.490   2.856 -0.3159  0.7931  0.3477
   26MOL   H267 9317   4.491   4.780   2.835 -1.5667 -2.3513  1.8971
   26MOL   H268 9318   4.661   4.730   2.834  0.1489 -2.0642  3.1186
   26MOL   H269 9319   4.619   4.607   2.604 -0.8414  0.5327 -0.3778
   26MOL   H270 9320   4.552   4.761   2.596  0.4843  1.2237  1.6507
   26MOL   H271 9321   4.445   4.625   2.634 -0.6514  0.3774  2.7468
   26MOL   C272 9322   4.114   4.443   2.812 -0.1260  0.0175  0.7204
   26MOL   C273 9323   4.102   4.580   2.741 -0.2629  0.0877 -0.4552
   26MOL   C274 9324   4.116   4.578   2.592 -1.1640  0.2167 -0.2943
   26MOL   O275 9325   4.070   4.489   2.522  0.1246  0.5934  0.5563
   26MOL   O276 9326   4.180   4.685   2.551 -0.3973  0.2951  0.9036
   26MOL   C277 9327   4.183   4.709   2.414 -0.7229 -0.0725  0.6120
   26MOL   C278 9328   4.324   4.752   2.365 -0.0242  1.0552  0.5072
   26MOL   C279 9329   4.368   4.892   2.423 -0.2381  0.5438  0.2539
   26MOL   H280 9330   4.015   4.405   2.836  0.8322 -1.2291  2.9304
   26MOL   H281 9331   4.163   4.364   2.755  0.9715  0.9358  0.3611
   26MOL   H282 9332   4.190   4.640   2.766  0.5764 -0.9576 -0.8893
   26MOL   H283 9333   4.160   4.624   2.349 -0.6002 -0.3051  0.8744
   26MOL   H284 9334   4.116   4.789   2.382  0.9600  1.1455  0.0740
   26MOL   H285 9335   4.406   4.680   2.369  0.1541  1.3558  2.6472
   26MOL   H286 9336   4.318   4.771   2.258  1.2584 -1.7784 -0.1371
   26MOL   H287 9337   4.424   4.952   2.352 -1.3343 -0.7090 -1.7085
   26MOL   H288 9338   4.411   4.893   2.523 -0.5956  1.5112  0.4055
   26MOL   H289 9339   4.272   4.943   2.431 -0.3568  0.7476 -2.2134
   26MOL   C290 9340   3.969   4.649   2.788 -0.3368 -0.3875  0.5601
   26MOL   C291 9341   3.962   4.800   2.749  0.2790  0.4193 -0.4401
   26MOL   C292 9342   3.820   4.855   2.752  0.6047 -0.1554  0.2358
   26MOL   O293 9343   3.788   4.940   2.664 -0.2523  0.5347 -0.0008
   26MOL   O294 9344   3.739   4.817   2.853 -0.0499  0.2353  0.8842
   26MOL   C295 9345   3.635   4.904   2.895 -0.4690  0.4837 -0.8882
   26MOL   C296 9346   3.512   4.924   2.799  0.6899 -0.5933 -0.1595
   26MOL   C297 9347   3.437   4.790   2.775 -0.1694  0.1214 -0.6400
   26MOL   H298 9348   3.947   4.646   2.895  0.0163 -0.1547  0.6413
   26MOL   H299 9349   3.892   4.598   2.730 -0.7292  0.1479  0.5980
   26MOL   H300 9350   3.992   4.820   2.646 -0.0345 -1.4583 -0.9094
   26MOL   H301 9351   3.612   4.854   2.989 -1.9745  3.2116  0.2462
   26MOL   H302 9352   3.671   5.002   2.927 -1.0632  0.4412 -0.0690
   26MOL   H303 9353   3.440   5.002   2.824  0.1432 -1.4968  1.1450
   26MOL   H304 9354   3.555   4.958   2.705  1.1961  1.6950  0.8714
   26MOL   H305 9355   3.366   4.814   2.696  1.1318  0.8093 -1.6200
   26MOL   H306 9356   3.378   4.773   2.865 -1.7638 -0.7949 -1.8305
   26MOL   H307 9357   3.501   4.704   2.753 -0.2916  0.1778 -1.2232
   26MOL   C308 9358   4.054   4.889   2.842 -0.1232 -0.0567  0.0270
   26MOL   C309 9359   4.080   5.042   2.821  0.1352 -0.0646  0.3849
   26MOL   C310 9360   4.158   5.097   2.937 -0.3832 -0.3158 -0.1056
   26MOL   O311 9361   4.112   5.181   3.013 -0.2330  0.2368 -0.2315
   26MOL   O312 9362   4.279   5.038   2.936  0.4758 -0.4676 -0.3147
   26MOL   C313 9363   4.358   5.046   3.050 -0.0512  0.0052 -0.2193
   26MOL   C314 9364   4.462   5.153   3.058  0.5335  0.0669 -0.2002
   26MOL   C315 9365   4.547   5.151   2.933 -0.1323  0.3859  0.8208
   26MOL   H316 9366   4.153   4.843   2.839 -0.7362 -1.4418  0.6788
   26MOL   H317 9367   4.014   4.872   2.942 -0.6252  1.9801  0.1881
   26MOL   H318 9368   3.980   5.086   2.816 -0.2876 -0.9590  0.9453
   26MOL   H319 9369   4.296   5.049   3.139  0.7043 -1.0485  0.3562
   26MOL   H320 9370   4.418   4.955   3.041 -0.7205 -0.1790 -3.4969
   26MOL   H321 9371   4.412   5.248   3.074 -0.1595 -0.2054 -0.7453
   26MOL   H322 9372   4.526   5.129   3.143 -1.4833  0.6115  1.4957
   26MOL   H323 9373   4.607   5.061   2.923  2.1204  1.7114  2.0559
   26MOL   H324 9374   4.484   5.150   2.844 -0.6482  1.3040  1.1696
   26MOL   H325 9375   4.628   5.223   2.929  1.7725 -1.6434  1.6248
   26MOL   C326 9376   4.147   5.081   2.692  0.1723 -0.1257  0.1246
   26MOL   C327 9377   4.170   5.232   2.669  0.3725 -0.2909  0.3956
   26MOL   C328 9378   4.273   5.248   2.553 -0.0651 -0.2507 -0.1903
   26MOL   O329 9379   4.388   5.288   2.576 -0.1491  0.0939 -0.3137
   26MOL   O330 9380   4.220   5.214   2.432 -0.2054  0.0965 -0.2969
   26MOL   C331 9381   4.293   5.257   2.320 -0.2191 -0.2479  0.8248
   26MOL   C332 9382   4.204   5.240   2.202 -0.0441 -0.2307 -0.1644
   26MOL   C333 9383   4.113   5.362   2.185 -0.2313 -0.0358 -0.5068
   26MOL   H334 9384   4.091   5.043   2.607 -2.7492 -0.3129  2.0310
   26MOL   H335 9385   4.241   5.027   2.686  0.9217  1.1443  0.3727
   26MOL   H336 9386   4.224   5.269   2.756  3.0137 -1.1031 -0.8381
   26MOL   H337 9387   4.322   5.362   2.332  1.6069 -0.6350 -0.0375
   26MOL   H338 9388   4.380   5.194   2.304  0.9297  1.7179 -1.1148
   26MOL   H339 9389   4.261   5.231   2.110  0.0786  1.9663 -0.3422
   26MOL   H340 9390   4.141   5.154   2.224  0.2494 -0.6954 -1.1672
   26MOL   H341 9391   4.060   5.359   2.090 -1.2214  1.2689 -0.0224
   26MOL   H342 9392   4.040   5.360   2.266  2.1992  0.9705  1.7981
   26MOL   H343 9393   4.171   5.455   2.188 -2.0333  1.1410 -0.8659
   26MOL   C344 9394   4.031   5.299   2.643 -0.1525 -0.0999  0.0456
   26MOL   C345 9395   4.038   5.439   2.561 -0.3650 -0.4051 -0.5572
   26MOL   C346 9396   4.124   5.554   2.607  0.5478 -0.4560  0.8906
   26MOL   O347 9397   4.162   5.643   2.530 -0.3143  0.2743 -0.0953
   26MOL   O348 9398   4.144   5.552   2.745  0.0293 -0.2240 -0.2228
   26MOL   C349 9399   4.212   5.654   2.809 -0.0080 -0.9931  0.5309
   26MOL   C350 9400   4.349   5.607   2.855 -0.0462 -0.2804  0.1915
   26MOL   C351 9401   4.352   5.535   2.991 -0.3276 -0.3533 -0.1859
   26MOL   H352 9402   3.987   5.320   2.741  1.1771  1.0939  0.4123
   26MOL   H353 9403   3.952   5.242   2.594 -0.1527  1.0710 -1.3284
   26MOL   H354 9404   3.942   5.488   2.550  0.1952  0.2972 -2.4236
   26MOL   H355 9405   4.227   5.749   2.756 -2.2975 -1.8801 -1.8208
   26MOL   H356 9406   4.161   5.685   2.900 -0.6875  0.4054 -0.2908
   26MOL   H357 9407   4.392   5.538   2.782 -3.2886 -0.4343 -1.6438
   26MOL   H358 9408   4.424   5.686   2.856 -1.6609  1.2857 -0.0302
   26MOL   H359 9409   4.273   5.460   2.997 -1.4747  0.8527 -0.0054
   26MOL   H360 9410   4.448   5.495   3.024 -1.8834 -3.6456  0.5761
   26MOL   H361 9411   4.333   5.608   3.070 -0.0978 -1.1289  0.6031
   26MOL   H362 9412   4.061   5.416   2.457  0.1951  2.9956 -1.2347
   27MOL     C1 9413   0.784   5.362   6.176  0.0763  0.5427 -0.3154
   27MOL     C2 9414   0.672   5.274   6.119 -0.1697  0.0615 -0.6662
   27MOL     C3 9415   0.724   5.130   6.094  0.3494 -0.1905  0.0491
   27MOL     O4 9416   0.689   5.039   6.159  0.1247  0.4495 -0.1326
   27MOL     O5 9417   0.808   5.125   5.984 -0.1212  0.2995  0.3793
   27MOL     C6 9418   0.863   5.002   5.958  0.0723  0.0948  0.9149
   27MOL     C7 9419   0.990   5.024   5.878  0.2614 -0.3667 -0.1283
   27MOL     C8 9420   1.108   5.087   5.950  0.0088  0.1424 -1.2002
   27MOL     H9 9421   0.874   5.339   6.119  0.4508 -0.7545  0.7661
   27MOL    H10 9422   0.744   5.463   6.175 -0.5234  0.3612  2.3392
   27MOL    H11 9423   0.651   5.327   6.026 -2.6374  0.5625  0.1288
   27MOL    H12 9424   0.886   4.937   6.042 -2.2241 -3.2415 -0.9281
   27MOL    H13 9425   0.793   4.955   5.888  1.4863  1.4572 -1.5131
   27MOL    H14 9426   1.012   4.922   5.847 -2.2937 -0.6789 -1.0446
   27MOL    H15 9427   0.971   5.075   5.783  0.9990 -0.3285 -0.2524
   27MOL    H16 9428   1.113   5.057   6.054 -2.5016 -3.3270 -1.9941
   27MOL    H17 9429   1.201   5.056   5.904  0.2527 -1.4686  0.3521
   27MOL    H18 9430   1.110   5.196   5.944  0.2175  0.2788  0.9803
   27MOL    H19 9431   0.802   5.339   6.281 -2.9329  2.1904  0.6126
   27MOL    C20 9432   0.541   5.274   6.204 -0.1570  0.1929  0.5284
   27MOL    C21 9433   0.494   5.415   6.258 -0.5365 -0.0639 -0.2197
   27MOL    C22 9434   0.470   5.515   6.141  0.1797  0.2810  0.0604
   27MOL    O23 9435   0.510   5.632   6.140  0.2431 -0.0054 -0.1621
   27MOL    O24 9436   0.390   5.467   6.045  0.3753  0.1043  1.1747
   27MOL    C25 9437   0.379   5.539   5.920  0.6546  0.0805 -0.0253
   27MOL    C26 9438   0.256   5.481   5.841  0.4691 -0.2762 -0.6890
   27MOL    C27 9439   0.287   5.344   5.787 -0.6339  0.4917  0.1547
   27MOL    H28 9440   0.558   5.214   6.293  1.0660  1.4568  1.1567
   27MOL    H29 9441   0.456   5.231   6.150  1.1804  0.9299 -2.2408
   27MOL    H30 9442   0.579   5.462   6.309 -1.5854  3.4507 -1.5626
   27MOL    H31 9443   0.359   5.643   5.945  2.7659  0.3156  0.7465
   27MOL    H32 9444   0.473   5.529   5.866 -0.4006 -1.1782 -1.6786
   27MOL    H33 9445   0.157   5.484   5.886  0.1377  0.6738 -1.4544
   27MOL    H34 9446   0.260   5.547   5.755  1.5741  1.3454  0.5784
   27MOL    H35 9447   0.198   5.305   5.738  0.7211 -2.7811  0.1348
   27MOL    H36 9448   0.315   5.281   5.872 -2.7027 -0.2041  0.3388
   27MOL    H37 9449   0.361   5.348   5.707  1.2123  0.0600  1.7924
   27MOL    C38 9450   0.367   5.408   6.348 -0.2248 -0.0354  0.9234
   27MOL    C39 9451   0.336   5.539   6.436  0.1047  0.2566 -0.6079
   27MOL    C40 9452   0.266   5.650   6.361 -0.4121 -0.6266 -0.3196
   27MOL    O41 9453   0.185   5.634   6.271  0.2109 -0.6243  0.2101
   27MOL    O42 9454   0.288   5.767   6.425  0.4767  0.1426 -0.0639
   27MOL    C43 9455   0.225   5.889   6.391 -0.1467  0.1603  0.9359
   27MOL    C44 9456   0.228   5.964   6.522  0.2935  0.6948 -0.5520
   27MOL    C45 9457   0.376   6.003   6.568 -0.2469  0.0610  0.0837
   27MOL    H46 9458   0.382   5.324   6.416 -0.5621  0.0295  1.0795
   27MOL    H47 9459   0.282   5.390   6.282 -0.4905 -0.2520  1.3227
   27MOL    H48 9460   0.435   5.568   6.469  0.7409 -0.6706 -1.6687
   27MOL    H49 9461   0.259   5.951   6.308  0.0964  1.4220  1.9683
   27MOL    H50 9462   0.122   5.874   6.361  0.2360  0.9904 -0.8968
   27MOL    H51 9463   0.166   6.053   6.511  0.2878  0.6396 -0.9747
   27MOL    H52 9464   0.177   5.908   6.600  0.4632 -0.8265 -1.5044
   27MOL    H53 9465   0.369   6.067   6.656  0.0618 -0.2325  0.3209
   27MOL    H54 9466   0.422   6.072   6.497 -2.6461  1.0471 -0.5500
   27MOL    H55 9467   0.439   5.918   6.593  1.8144  1.3266 -0.6988
   27MOL    C56 9468   0.268   5.504   6.570  0.3584 -0.2409  0.1371
   27MOL    C57 9469   0.124   5.467   6.577 -0.4147  0.4376  0.1095
   27MOL    C58 9470   0.069   5.355   6.484 -1.1629 -0.1459  0.1710
   27MOL    O59 9471   0.058   5.242   6.529  0.1547 -0.3129 -0.0725
   27MOL    O60 9472   0.045   5.383   6.350 -0.6926  0.0247 -0.1289
   27MOL    C61 9473   0.010   5.285   6.263 -0.3398 -0.0214 -0.1140
   27MOL    C62 9474   0.025   5.334   6.119 -0.1033 -0.6564 -0.7418
   27MOL    C63 9475   7.851   5.236   6.007 -0.8486 -0.1768  0.2859
   27MOL    H64 9476   0.270   5.584   6.643 -0.5732 -0.0147 -0.0703
   27MOL    H65 9477   0.319   5.416   6.609 -1.8509 -2.0056 -0.8143
   27MOL    H66 9478   0.068   5.551   6.536 -0.9873  0.5733  1.1621
   27MOL    H67 9479   0.077   5.200   6.279  0.4402  0.2347 -1.9074
   27MOL    H68 9480   7.788   5.259   6.290 -0.0096  0.4822  1.6700
   27MOL    H69 9481   7.842   5.422   6.115  1.6851  0.8337  2.2081
   27MOL    H70 9482   0.129   5.364   6.109 -1.2080  3.3834 -0.8664
   27MOL    H71 9483   7.745   5.211   6.001 -0.9145  0.1634 -0.0231
   27MOL    H72 9484   0.019   5.139   6.005  0.1824  0.3324 -0.1994
   27MOL    H73 9485   7.876   5.273   5.907 -0.1269 -0.0443  0.5183
   27MOL    C74 9486   0.077   5.455   6.725 -0.0443  0.1529 -0.2450
   27MOL    C75 9487   0.016   5.586   6.786  0.1760 -0.0453 -0.1924
   27MOL    C76 9488   7.789   5.655   6.694 -0.1360  0.4475 -0.5164
   27MOL    O77 9489   7.788   5.775   6.676 -0.8744 -0.3288 -0.0814
   27MOL    O78 9490   7.718   5.566   6.620 -0.0108 -0.1064  0.2290
   27MOL    C79 9491   7.613   5.610   6.536 -0.4712  0.3098  0.5904
   27MOL    C80 9492   7.512   5.493   6.490  0.0515  0.4261  0.1603
   27MOL    C81 9493   7.535   5.440   6.354  0.2928  0.4534 -0.2517
   27MOL    H82 9494   0.160   5.422   6.788  0.9060 -0.7210 -1.9069
   27MOL    H83 9495   0.007   5.373   6.741  0.7066 -0.3223  0.7043
   27MOL    H84 9496   0.095   5.660   6.794  0.0870 -0.0291  0.5194
   27MOL    H85 9497   7.551   5.684   6.587  1.4315  0.6303  2.5097
   27MOL    H86 9498   7.659   5.672   6.460 -1.6532 -1.3594 -1.5274
   27MOL    H87 9499   7.502   5.412   6.563  0.0270  0.8603  0.6443
   27MOL    H88 9500   7.411   5.534   6.495 -0.8030 -1.7780  2.0841
   27MOL    H89 9501   7.635   5.403   6.332 -0.4048 -1.5730 -0.1240
   27MOL    H90 9502   7.521   5.523   6.284 -0.8553  0.3368 -0.1743
   27MOL    H91 9503   7.462   5.365   6.323  1.5156 -1.2975  0.9959
   27MOL    C92 9504   7.840   5.596   6.935 -0.2895 -0.6530 -0.4083
   27MOL    C93 9505   7.691   5.569   6.970 -0.1252 -0.6877 -0.6694
   27MOL    C94 9506   7.647   5.435   6.915  0.4767 -0.0754 -0.2306
   27MOL    O95 9507   7.544   5.411   6.851  0.1290 -0.5367 -0.1667
   27MOL    O96 9508   7.728   5.339   6.966 -0.0066  0.5742 -0.2898
   27MOL    C97 9509   7.689   5.209   6.931  0.0700 -0.3090  0.2126
   27MOL    C98 9510   7.598   5.135   7.028  0.6330  0.1852 -0.4633
   27MOL    C99 9511   7.532   5.017   6.953  0.8150  1.0249  0.8476
   27MOL   H100 9512   7.852   5.699   6.969 -0.3529 -0.4242 -1.0543
   27MOL   H101 9513   0.017   5.536   7.006 -1.6855  0.6956  1.9145
   27MOL   H102 9514   7.631   5.634   6.907 -1.4137 -0.5282  0.6779
   27MOL   H103 9515   7.652   5.208   6.828 -2.6299  0.2440  1.1312
   27MOL   H104 9516   7.781   5.153   6.914 -1.2898 -1.7819 -2.7381
   27MOL   H105 9517   7.656   5.111   7.118  1.5458 -1.3205 -1.4380
   27MOL   H106 9518   7.518   5.201   7.062  0.3077 -0.5833  0.2733
   27MOL   H107 9519   7.449   4.966   7.002 -0.0052  0.0498 -1.4748
   27MOL   H108 9520   7.610   4.941   6.941 -2.0366 -1.5865 -2.1158
   27MOL   H109 9521   7.499   5.053   6.856  1.1098  1.4930  0.9216
   27MOL   C110 9522   7.646   5.597   7.111 -0.2848 -0.7493 -0.5438
   27MOL   C111 9523   7.495   5.602   7.130  0.5989  0.2543 -0.6274
   27MOL   C112 9524   7.441   5.469   7.186  0.3364  0.3382 -0.8444
   27MOL   O113 9525   7.375   5.399   7.111  0.3983  0.4143 -0.3279
   27MOL   O114 9526   7.458   5.444   7.317  0.0498  0.6141  0.5643
   27MOL   C115 9527   7.431   5.315   7.359  0.8509  0.6974 -0.2638
   27MOL   C116 9528   7.290   5.328   7.412  0.4643  0.3070  0.4963
   27MOL   C117 9529   7.274   5.399   7.541  1.0516  0.3283  1.0252
   27MOL   H118 9530   7.683   5.695   7.138  1.8048 -1.1791 -1.7793
   27MOL   H119 9531   7.689   5.528   7.184  0.6410  0.2241 -0.1757
   27MOL   H120 9532   7.443   5.613   7.035 -1.4139 -0.1066  0.4047
   27MOL   H121 9533   7.447   5.234   7.289 -1.3181 -0.9689  1.0786
   27MOL   H122 9534   7.502   5.290   7.438  1.2687  0.8038 -0.6037
   27MOL   H123 9535   7.222   5.376   7.341  0.2258  0.7674  1.0325
   27MOL   H124 9536   7.262   5.223   7.425  1.6960 -0.3675 -1.9789
   27MOL   H125 9537   7.168   5.410   7.567 -0.1196 -1.8149 -2.4788
   27MOL   H126 9538   7.311   5.502   7.537  0.3480  0.6691  2.8674
   27MOL   H127 9539   7.328   5.354   7.624  1.0189 -0.7626  0.4503
   27MOL   C128 9540   7.434   5.722   7.213  0.5716  1.4649 -0.5161
   27MOL   C129 9541   7.284   5.719   7.263 -0.2508 -0.0432 -0.0863
   27MOL   C130 9542   7.256   5.830   7.373 -0.1375  0.1307  0.8409
   27MOL   O131 9543   7.192   5.925   7.339 -0.1645  0.4103  0.4762
   27MOL   O132 9544   7.309   5.799   7.492 -0.6696 -0.0118 -0.4079
   27MOL   C133 9545   7.303   5.897   7.589  0.6355 -0.6954  0.2941
   27MOL   C134 9546   7.430   5.976   7.583 -0.3202  0.6531  0.0892
   27MOL   C135 9547   7.440   6.084   7.699 -0.0830  0.4231  0.4527
   27MOL   H136 9548   7.440   5.807   7.145 -0.4621 -0.8532 -3.6268
   27MOL   H137 9549   7.501   5.736   7.298  1.9319  0.3094 -1.3666
   27MOL   H138 9550   7.261   5.624   7.311 -1.9887  0.4322  0.0688
   27MOL   H139 9551   7.214   5.961   7.586  0.4253 -0.9839  0.3133
   27MOL   H140 9552   7.316   5.834   7.677 -3.5437 -0.9511  0.8464
   27MOL   H141 9553   7.516   5.909   7.585  0.3532  1.4474 -1.2075
   27MOL   H142 9554   7.432   6.022   7.484 -2.2728  0.7986  0.1067
   27MOL   H143 9555   7.346   6.138   7.694 -0.0384  0.5423  0.9177
   27MOL   H144 9556   7.519   6.159   7.688  0.3993 -0.2186 -0.5330
   27MOL   H145 9557   7.455   6.038   7.796 -1.8065 -0.7820  0.1657
   27MOL   C146 9558   7.189   5.723   7.147 -0.2821 -0.6447  0.6026
   27MOL   C147 9559   7.048   5.680   7.176  0.1792  0.0734  0.0525
   27MOL   C148 9560   6.941   5.766   7.114 -0.6192 -0.4909  0.9106
   27MOL   O149 9561   6.858   5.814   7.187 -0.4125  0.2021  0.2133
   27MOL   O150 9562   6.942   5.778   6.979  0.0494 -0.5316  0.1982
   27MOL   C151 9563   6.853   5.867   6.919  0.3733 -0.7904 -0.0565
   27MOL   C152 9564   6.902   5.924   6.794 -0.5084 -0.1260  0.0030
   27MOL   C153 9565   6.797   6.023   6.727  0.3420 -0.5441  0.5822
   27MOL   H154 9566   7.233   5.658   7.072 -0.0880 -0.5454  0.6269
   27MOL   H155 9567   7.196   5.820   7.097  2.5715 -2.1860 -2.1939
   27MOL   H156 9568   7.034   5.700   7.282 -1.7687 -2.0299  0.2263
   27MOL   H157 9569   6.767   5.806   6.892 -0.6327  0.2309  0.7844
   27MOL   H158 9570   6.823   5.942   6.993 -1.1905 -0.9311 -0.5220
   27MOL   H159 9571   6.991   5.979   6.824  1.0137 -1.6466 -1.6612
   27MOL   H160 9572   6.930   5.845   6.724  3.8012  1.5743 -0.3176
   27MOL   H161 9573   6.705   5.968   6.711  1.0628 -1.9036  0.9914
   27MOL   H162 9574   6.839   6.069   6.638  2.7087  0.1855  2.0154
   27MOL   H163 9575   6.783   6.093   6.810  2.6010 -0.6529  1.0918
   27MOL   C164 9576   7.027   5.527   7.162  0.3477  0.0773  0.4180
   27MOL   C165 9577   6.904   5.460   7.228  0.5073 -0.1971  0.0763
   27MOL   C166 9578   6.861   5.333   7.147  0.2010 -0.8013  0.1658
   27MOL   O167 9579   6.892   5.216   7.176  0.0122  0.3387  0.3133
   27MOL   O168 9580   6.792   5.371   7.039 -0.2087 -0.4823 -0.3987
   27MOL   C169 9581   6.754   5.280   6.942 -0.5710  0.4272  1.3254
   27MOL   C170 9582   6.639   5.183   6.987  0.3192  0.0105 -0.0261
   27MOL   C171 9583   6.582   5.083   6.881 -0.5458 -0.3859  0.0334
   27MOL   H172 9584   7.117   5.467   7.171  1.0708  0.4787 -3.5794
   27MOL   H173 9585   7.002   5.529   7.056  3.2540 -0.7482 -0.3087
   27MOL   H174 9586   6.817   5.525   7.221  1.2324  0.7805  0.2012
   27MOL   H175 9587   6.727   5.324   6.846  0.9984 -0.9908  0.1999
   27MOL   H176 9588   6.850   5.229   6.929  0.3144  1.8486  2.1592
   27MOL   H177 9589   6.664   5.120   7.072  0.5606  0.6735  0.3955
   27MOL   H178 9590   6.548   5.228   7.026 -1.0202 -0.9028 -2.0015
   27MOL   H179 9591   6.535   5.128   6.793  0.3246  1.1280  0.3352
   27MOL   H180 9592   6.513   5.015   6.932  0.2650  0.6606  2.6248
   27MOL   H181 9593   6.661   5.026   6.833 -0.6831 -1.1956  0.7662
   27MOL   C182 9594   6.925   5.427   7.376  0.3712  0.3809  0.0998
   27MOL   C183 9595   6.802   5.379   7.450 -0.5783  0.6779  0.1515
   27MOL   C184 9596   6.856   5.337   7.590  0.1269 -0.5828  0.1032
   27MOL   O185 9597   6.859   5.420   7.682 -0.8055  0.6414 -0.3310
   27MOL   O186 9598   6.899   5.209   7.592 -0.2234  0.3732 -0.3640
   27MOL   C187 9599   6.939   5.150   7.716  0.0809 -0.0150 -0.5894
   27MOL   C188 9600   7.091   5.147   7.725  0.0134  0.0834 -0.0973
   27MOL   C189 9601   7.149   5.059   7.622 -0.7835 -0.6924  0.0569
   27MOL   H190 9602   6.967   5.513   7.429  0.9094  0.2301 -0.0711
   27MOL   H191 9603   7.000   5.350   7.391 -1.1211 -1.1775 -0.3503
   27MOL   H192 9604   6.768   5.289   7.399 -0.3769  0.9336 -0.4440
   27MOL   H193 9605   6.889   5.196   7.801  1.4344 -0.6991  0.5964
   27MOL   H194 9606   6.902   5.048   7.726 -0.1899  0.2115  0.7806
   27MOL   H195 9607   7.135   5.246   7.708  0.5081 -0.2221 -0.6095
   27MOL   H196 9608   7.123   5.112   7.823  0.8072  1.2693  0.0848
   27MOL   H197 9609   7.088   5.069   7.532 -1.0595  0.0116  0.3204
   27MOL   H198 9610   7.165   4.953   7.644 -0.4241 -0.5953  0.2589
   27MOL   H199 9611   7.243   5.104   7.591 -1.3870  1.8766  1.8482
   27MOL   C200 9612   6.687   5.481   7.467 -0.7247  0.1114  1.1136
   27MOL   C201 9613   6.596   5.502   7.341 -0.3724 -0.2200 -0.4546
   27MOL   C202 9614   6.476   5.414   7.357 -0.1661 -0.1242  0.4347
   27MOL   O203 9615   6.367   5.454   7.398  0.3803  0.3434  0.0905
   27MOL   O204 9616   6.509   5.278   7.341  0.3230 -0.5295 -0.2232
   27MOL   C205 9617   6.416   5.176   7.344  0.0462 -0.0411 -0.8061
   27MOL   C206 9618   6.465   5.036   7.300  0.3734  0.8251  0.1351
   27MOL   C207 9619   6.593   4.986   7.371 -0.3501  0.1003 -0.1359
   27MOL   H208 9620   6.747   5.569   7.492  1.1498 -1.0804  0.8999
   27MOL   H209 9621   6.621   5.452   7.549 -0.2030  0.5467  1.6931
   27MOL   H210 9622   6.651   5.470   7.252 -0.4145 -1.2229 -0.1287
   27MOL   H211 9623   6.373   5.171   7.444  0.5476  0.6619 -0.5548
   27MOL   H212 9624   6.326   5.189   7.284 -0.9296  1.0317  0.8408
   27MOL   H213 9625   6.382   4.969   7.320  1.3894 -0.4816  0.0630
   27MOL   H214 9626   6.476   5.015   7.194 -2.7032  1.3081 -0.3221
   27MOL   H215 9627   6.578   5.003   7.477  0.1617 -1.4281  0.2001
   27MOL   H216 9628   6.688   5.025   7.336 -0.2685 -0.1919 -0.2352
   27MOL   H217 9629   6.592   4.877   7.363 -2.6352  0.1306 -0.7342
   27MOL   C218 9630   6.553   5.650   7.324 -0.0031  0.1022  0.1026
   27MOL   C219 9631   6.451   5.686   7.211  0.3275 -0.1098 -0.1094
   27MOL   C220 9632   6.388   5.821   7.233 -0.1834  0.4712  0.7864
   27MOL   O221 9633   6.264   5.828   7.235 -0.2468 -0.5747 -0.3297
   27MOL   O222 9634   6.477   5.917   7.231  0.6201 -0.4496 -0.6699
   27MOL   C223 9635   6.441   6.054   7.262 -0.1355 -0.0961  0.2976
   27MOL   C224 9636   6.514   6.140   7.154 -0.6285  0.0659  0.2015
   27MOL   C225 9637   6.466   6.125   7.012  0.0769  0.3350  0.5664
   27MOL   H226 9638   6.644   5.709   7.308 -0.9658  1.9103  1.1164
   27MOL   H227 9639   6.507   5.682   7.417  1.6221 -0.4095  1.1039
   27MOL   H228 9640   6.360   5.628   7.227 -0.2345  1.3135  2.2392
   27MOL   H229 9641   6.334   6.072   7.258 -0.1614 -0.3532 -0.2299
   27MOL   H230 9642   6.470   6.083   7.363  0.3162  0.7973 -0.0836
   27MOL   H231 9643   6.511   6.245   7.183  0.5891  0.3893 -0.8193
   27MOL   H232 9644   6.619   6.109   7.158 -0.8421 -0.6209  0.6559
   27MOL   H233 9645   6.469   6.024   6.971 -0.6288 -0.3443  2.1386
   27MOL   H234 9646   6.530   6.186   6.947  0.4830  0.8822  1.4742
   27MOL   H235 9647   6.362   6.157   7.001 -0.2019  0.0854  2.3862
   27MOL   C236 9648   6.519   5.670   7.073  0.7173  0.3991 -0.2295
   27MOL   C237 9649   6.429   5.685   6.947  0.1277 -0.4209  0.3011
   27MOL   C238 9650   6.528   5.711   6.829 -0.1506  0.2998 -0.4518
   27MOL   O239 9651   6.525   5.817   6.778  0.3390 -0.2852 -0.3243
   27MOL   O240 9652   6.607   5.604   6.791  0.0841 -0.0854  0.1595
   27MOL   C241 9653   6.687   5.619   6.674  0.2632 -0.0210  0.0300
   27MOL   C242 9654   6.810   5.529   6.664 -0.9671  0.7030  0.2205
   27MOL   C243 9655   6.902   5.580   6.555 -0.6780 -0.6291  0.1278
   27MOL   H244 9656   6.588   5.587   7.056 -1.6874 -1.5823 -0.5533
   27MOL   H245 9657   6.573   5.765   7.072  1.1169  0.1705 -0.9370
   27MOL   H246 9658   6.364   5.771   6.961  1.2363  0.6706 -1.1786
   27MOL   H247 9659   6.632   5.586   6.585  2.4534 -4.3784  0.1673
   27MOL   H248 9660   6.712   5.724   6.657 -3.0521  0.8238  0.0814
   27MOL   H249 9661   6.863   5.525   6.759 -2.3012 -0.3201  0.9518
   27MOL   H250 9662   6.781   5.427   6.638  0.6954 -0.3349  2.2963
   27MOL   H251 9663   6.997   5.527   6.555 -1.7070 -2.5018 -0.5220
   27MOL   H252 9664   6.922   5.687   6.559  1.6177 -0.9783 -1.4042
   27MOL   H253 9665   6.856   5.560   6.458 -0.2832 -3.8112  0.5615
   27MOL   C254 9666   6.335   5.566   6.936 -0.4909 -0.8583  0.7278
   27MOL   C255 9667   6.243   5.577   6.813 -0.5598  0.6042  0.1118
   27MOL   C256 9668   6.232   5.446   6.723  0.0780  0.3444 -0.1833
   27MOL   O257 9669   6.125   5.379   6.716 -0.1484  0.2393  0.6099
   27MOL   O258 9670   6.341   5.404   6.672 -0.9913 -0.1792  0.3802
   27MOL   C259 9671   6.346   5.288   6.590  0.0142 -0.0008 -0.1976
   27MOL   C260 9672   6.459   5.297   6.486  0.6961  0.3340  0.0664
   27MOL   C261 9673   6.566   5.187   6.484  0.3644 -0.2255 -0.3666
   27MOL   H262 9674   6.274   5.556   7.026  1.0486 -1.4169  1.7328
   27MOL   H263 9675   6.404   5.483   6.924 -0.2117 -0.5578  0.2419
   27MOL   H264 9676   6.287   5.643   6.738 -2.2321  2.2248  0.5418
   27MOL   H265 9677   6.349   5.196   6.649  0.9781 -0.2687 -0.6556
   27MOL   H266 9678   6.258   5.280   6.527  0.1252 -2.8186 -0.0398
   27MOL   H267 9679   6.421   5.319   6.386 -1.6682  1.3046  1.1481
   27MOL   H268 9680   6.512   5.388   6.514  1.8221 -0.1224 -0.5240
   27MOL   H269 9681   6.632   5.193   6.571  0.0349  0.0715 -0.1367
   27MOL   H270 9682   6.621   5.206   6.392 -2.1995 -0.9469 -2.0777
   27MOL   H271 9683   6.515   5.091   6.488 -0.2267  0.1384  1.4458
   27MOL   C272 9684   6.102   5.635   6.847 -0.3156 -0.1736  0.2798
   27MOL   C273 9685   6.060   5.768   6.779 -0.2538 -1.0394 -0.0136
   27MOL   C274 9686   5.914   5.800   6.826  0.9265 -0.0693  0.2284
   27MOL   O275 9687   5.822   5.807   6.747  0.6266  0.4687 -0.5504
   27MOL   O276 9688   5.905   5.818   6.956  0.2751 -0.2502 -0.0609
   27MOL   C277 9689   5.776   5.825   7.015  0.1936  0.2357 -0.3716
   27MOL   C278 9690   5.787   5.867   7.160 -0.2629  0.0223 -0.0049
   27MOL   C279 9691   5.883   5.989   7.179 -0.2489  0.3539  0.4924
   27MOL   H280 9692   6.121   5.676   6.946  2.4994  0.0427 -0.3150
   27MOL   H281 9693   6.025   5.558   6.851  1.0150 -1.5484 -0.2978
   27MOL   H282 9694   6.062   5.749   6.672  0.6854 -1.7116  0.1198
   27MOL   H283 9695   5.719   5.899   6.959 -0.6856  0.1828  0.4273
   27MOL   H284 9696   5.722   5.730   7.012 -0.6104  0.5864  1.6599
   27MOL   H285 9697   5.690   5.897   7.199 -0.3725 -0.5476  0.1653
   27MOL   H286 9698   5.823   5.790   7.228  2.6088  1.9875  0.8030
   27MOL   H287 9699   5.865   6.031   7.278 -0.5698 -0.3887  0.7543
   27MOL   H288 9700   5.854   6.058   7.100 -0.6483  0.4493  0.7195
   27MOL   H289 9701   5.989   5.966   7.177  0.3057  2.5619  2.2974
   27MOL   C290 9702   6.148   5.881   6.818 -0.4015  0.4470  0.3971
   27MOL   C291 9703   6.116   6.020   6.747  0.4543 -0.3209 -0.5050
   27MOL   C292 9704   6.047   6.120   6.850  0.3261 -0.4984  0.0834
   27MOL   O293 9705   6.085   6.127   6.968 -0.3088 -0.3361 -0.6263
   27MOL   O294 9706   5.943   6.187   6.796  0.2802 -0.4781  0.3842
   27MOL   C295 9707   5.867   6.282   6.867 -0.1200  0.2924  0.3182
   27MOL   C296 9708   5.887   6.426   6.822  0.9536  0.1682  0.0670
   27MOL   C297 9709   6.035   6.462   6.829 -0.5700  0.1429 -0.2105
   27MOL   H298 9710   6.247   5.845   6.793  0.4215  1.8945  1.4526
   27MOL   H299 9711   6.145   5.891   6.927  2.0946 -1.0325  0.6216
   27MOL   H300 9712   6.044   6.008   6.666  0.5959 -2.5717 -0.3149
   27MOL   H301 9713   5.760   6.261   6.861  0.1223 -0.9232  0.2302
   27MOL   H302 9714   5.898   6.273   6.972  0.6847  2.6194  0.3112
   27MOL   H303 9715   5.845   6.442   6.723 -0.1303 -0.0205  0.4927
   27MOL   H304 9716   5.826   6.489   6.885  0.0596 -1.0085  0.4034
   27MOL   H305 9717   6.099   6.402   6.765  1.0779 -0.9605  2.4311
   27MOL   H306 9718   6.075   6.447   6.929  0.4006 -1.3167 -0.8099
   27MOL   H307 9719   6.046   6.568   6.804  1.7442  0.4900  2.0977
   27MOL   C308 9720   6.253   6.073   6.686 -0.2843 -0.5098 -0.1106
   27MOL   C309 9721   6.287   6.001   6.554  0.3132 -1.0772 -0.6995
   27MOL   C310 9722   6.173   6.022   6.455 -0.5003  0.4790 -0.2602
   27MOL   O311 9723   6.170   6.120   6.383 -0.4122 -0.1183  0.0470
   27MOL   O312 9724   6.094   5.918   6.441  0.0172  0.0968 -0.0974
   27MOL   C313 9725   5.984   5.915   6.350 -0.2063  0.2309 -0.0781
   27MOL   C314 9726   5.849   5.951   6.409 -0.1989  0.8555  0.2350
   27MOL   C315 9727   5.821   6.097   6.431 -0.2096 -0.0662  0.0199
   27MOL   H316 9728   6.336   6.067   6.756  0.2315 -0.1632 -0.6834
   27MOL   H317 9729   6.246   6.182   6.678  0.8499 -0.4955 -1.1324
   27MOL   H318 9730   6.291   5.894   6.573 -2.1208 -1.0172  0.4282
   27MOL   H319 9731   6.014   5.981   6.269 -0.4955  1.6605  0.9489
   27MOL   H320 9732   5.972   5.816   6.306 -1.4384  0.7192 -0.8530
   27MOL   H321 9733   5.776   5.910   6.339  0.1733  2.8604 -1.3661
   27MOL   H322 9734   5.824   5.895   6.499  2.6495  1.0059  1.1719
   27MOL   H323 9735   5.716   6.115   6.456 -0.7159 -1.7823 -0.7796
   27MOL   H324 9736   5.885   6.126   6.514  0.3804  0.5743 -0.6537
   27MOL   H325 9737   5.839   6.145   6.334 -1.3586  0.3197 -0.0160
   27MOL   C326 9738   6.429   6.056   6.515  0.2914 -1.0599 -0.1995
   27MOL   C327 9739   6.506   5.982   6.398 -0.1795  0.2546 -0.7104
   27MOL   C328 9740   6.616   6.070   6.333  0.3941  0.1110  0.5038
   27MOL   O329 9741   6.734   6.054   6.371  0.5273 -0.5845  0.3381
   27MOL   O330 9742   6.573   6.151   6.239  0.3287  0.4674 -0.4717
   27MOL   C331 9743   6.660   6.229   6.164 -0.2965  0.4074  0.6620
   27MOL   C332 9744   6.568   6.339   6.106 -0.0264  0.2710 -0.2144
   27MOL   C333 9745   6.496   6.294   5.980  0.1010 -0.1449  0.0215
   27MOL   H334 9746   6.495   6.063   6.601 -0.2241 -0.0893  0.1229
   27MOL   H335 9747   6.415   6.157   6.477 -1.5313 -1.6673 -1.2297
   27MOL   H336 9748   6.450   5.956   6.309  1.2590  2.5051 -2.3221
   27MOL   H337 9749   6.724   6.277   6.238 -1.3645  0.0950  1.8012
   27MOL   H338 9750   6.705   6.160   6.093 -4.2843 -1.6555  0.0062
   27MOL   H339 9751   6.506   6.381   6.185  3.1190 -0.8394  2.9870
   27MOL   H340 9752   6.636   6.420   6.080 -0.7174  1.4919  1.6909
   27MOL   H341 9753   6.403   6.241   6.000  0.6551 -1.9553 -1.9040
   27MOL   H342 9754   6.473   6.383   5.922  1.2015  0.0300 -0.1563
   27MOL   H343 9755   6.559   6.231   5.916  0.0478  0.5542 -0.7269
   27MOL   C344 9756   6.554   5.847   6.451 -0.0028  0.4618  0.4130
   27MOL   C345 9757   6.606   5.757   6.339  0.0311  0.1982 -0.4777
   27MOL   C346 9758   6.505   5.655   6.291  0.5301 -0.5962  0.0489
   27MOL   O347 9759   6.422   5.611   6.371  0.1746  0.5029 -0.2076
   27MOL   O348 9760   6.514   5.626   6.159 -0.0392 -0.0970 -0.1163
   27MOL   C349 9761   6.436   5.517   6.112  0.2094 -0.3961 -0.3775
   27MOL   C350 9762   6.511   5.468   5.983  0.0719 -0.9101 -0.1241
   27MOL   C351 9763   6.468   5.330   5.925  0.2298  0.1479  1.0824
   27MOL   H352 9764   6.473   5.806   6.511  0.3963 -1.1058 -0.0986
   27MOL   H353 9765   6.634   5.867   6.522  0.3179  1.2679 -0.1638
   27MOL   H354 9766   6.696   5.709   6.377 -1.3648 -1.0847  1.3226
   27MOL   H355 9767   6.428   5.429   6.176 -0.1004 -0.8666 -1.0523
   27MOL   H356 9768   6.331   5.543   6.096 -0.1662 -0.7474  1.4191
   27MOL   H357 9769   6.509   5.542   5.903  0.5359 -1.4029 -0.5902
   27MOL   H358 9770   6.613   5.444   6.013  0.8564  0.8792 -1.2390
   27MOL   H359 9771   6.481   5.329   5.817 -3.2153 -0.7114  0.6116
   27MOL   H360 9772   6.540   5.256   5.961 -0.4696 -0.9914  0.1880
   27MOL   H361 9773   6.366   5.302   5.950  0.4530 -1.1494  0.5753
   27MOL   H362 9774   6.635   5.815   6.252  3.3368  1.1543  1.1843
   28MOL     C1 9775   0.782   0.036   0.767  0.3453 -0.1244 -0.4734
   28MOL     C2 9776   0.827   0.154   0.679 -0.6559  0.4732 -0.1578
   28MOL     C3 9777   0.985   0.178   0.713 -0.1691  0.4170 -0.3718
   28MOL     O4 9778   1.039   0.135   0.816  0.7100  0.0752 -0.5275
   28MOL     O5 9779   1.043   0.255   0.623 -0.3752 -0.3986 -0.1732
   28MOL     C6 9780   1.172   0.315   0.653 -0.3241 -0.1120  0.0048
   28MOL     C7 9781   1.284   0.266   0.562 -0.6798 -0.0806  0.2291
   28MOL     C8 9782   1.247   0.302   0.414 -0.0986  0.2434 -0.0641
   28MOL     H9 9783   0.677   0.013   0.747 -0.0114  0.2093  0.9346
   28MOL    H10 9784   0.840   7.826   0.750  1.7383  0.8009 -0.7019
   28MOL    H11 9785   0.774   0.243   0.716  0.5837  0.2539  2.1779
   28MOL    H12 9786   1.160   0.423   0.645 -3.5643 -0.3579  0.7129
   28MOL    H13 9787   1.193   0.295   0.758 -0.3524 -0.6292 -0.0840
   28MOL    H14 9788   1.375   0.311   0.600 -1.4138 -0.6908  2.8029
   28MOL    H15 9789   1.297   0.158   0.571 -0.3185 -0.3837 -3.2309
   28MOL    H16 9790   1.329   0.268   0.351  0.0986 -0.8018  0.7433
   28MOL    H17 9791   1.152   0.257   0.385 -0.7028  0.2977  1.8017
   28MOL    H18 9792   1.239   0.410   0.400  0.5310  0.2833 -0.1214
   28MOL    H19 9793   0.787   0.065   0.872  0.5712 -0.7977 -0.3008
   28MOL    C20 9794   0.807   0.117   0.527  0.2259  0.9740 -0.4219
   28MOL    C21 9795   0.805   0.235   0.429  0.1409  0.7000  0.3807
   28MOL    C22 9796   0.833   0.192   0.280 -0.0076  0.1308  0.5553
   28MOL    O23 9797   0.749   0.170   0.195  0.0430 -0.5575  0.3351
   28MOL    O24 9798   0.966   0.171   0.264  0.0225  0.1380  0.0261
   28MOL    C25 9799   1.015   0.129   0.140  0.0865 -0.3725  0.0887
   28MOL    C26 9800   1.138   0.040   0.161  0.6049  0.3872 -0.9171
   28MOL    C27 9801   1.119   7.770   0.187  0.3912 -0.4740 -0.0912
   28MOL    H28 9802   0.716   0.057   0.523  1.4448 -1.0957  1.2639
   28MOL    H29 9803   0.880   0.041   0.498 -0.0449  1.6559 -3.0468
   28MOL    H30 9804   0.885   0.307   0.449  1.1627 -0.3442  0.0911
   28MOL    H31 9805   0.932   0.089   0.081 -1.3878  1.8360  0.6228
   28MOL    H32 9806   1.039   0.208   0.070 -1.9004  0.3173  0.1478
   28MOL    H33 9807   1.180   0.054   0.061  1.7392 -0.9055 -0.6367
   28MOL    H34 9808   1.212   0.084   0.228 -0.2119 -1.8690  1.5469
   28MOL    H35 9809   1.213   7.715   0.192  0.7081 -0.1568 -1.9738
   28MOL    H36 9810   1.061   7.714   0.114 -0.6703  0.2913  0.1606
   28MOL    H37 9811   1.065   7.747   0.279  0.8250 -1.0481  0.0299
   28MOL    C38 9812   0.670   0.303   0.447  0.3358  0.1912 -0.1731
   28MOL    C39 9813   0.663   0.462   0.425  0.2380  0.0660  1.3089
   28MOL    C40 9814   0.723   0.509   0.294 -0.0075  0.3943  0.1932
   28MOL    O41 9815   0.841   0.540   0.284  0.4359 -0.2226  0.0472
   28MOL    O42 9816   0.636   0.505   0.194  0.0228  0.1434 -0.1959
   28MOL    C43 9817   0.672   0.530   0.058 -0.2994 -0.2349 -0.5462
   28MOL    C44 9818   0.620   0.423   7.842  0.1982  0.1672  0.2831
   28MOL    C45 9819   0.615   0.479   7.693  0.0439 -0.0059  0.4232
   28MOL    H46 9820   0.621   0.275   0.540  0.3520  0.0251 -0.2134
   28MOL    H47 9821   0.601   0.263   0.372  1.2190 -0.3178 -0.7182
   28MOL    H48 9822   0.728   0.494   0.507 -1.6398  1.3884  2.3170
   28MOL    H49 9823   0.623   0.624   0.036  0.5513  0.1694 -0.7280
   28MOL    H50 9824   0.776   0.563   0.056 -0.6579  0.9451  0.0741
   28MOL    H51 9825   0.691   0.340   7.843  0.4068  0.3430  0.0136
   28MOL    H52 9826   0.521   0.386   7.870  0.2326  0.4323  0.7655
   28MOL    H53 9827   0.694   0.547   7.663 -1.2481  1.3663  0.0821
   28MOL    H54 9828   0.521   0.529   7.669  0.8278  0.7277 -1.2030
   28MOL    H55 9829   0.613   0.398   7.620 -2.1199 -0.7669  1.2764
   28MOL    C56 9830   0.524   0.515   0.459  0.3430  0.0754 -0.5942
   28MOL    C57 9831   0.495   0.669   0.463 -0.3678 -0.2095 -0.0939
   28MOL    C58 9832   0.425   0.734   0.338 -0.4105  0.2031  0.5536
   28MOL    O59 9833   0.461   0.842   0.293  0.2385  0.4622 -0.4593
   28MOL    O60 9834   0.320   0.659   0.289 -0.2206  0.2063 -0.0500
   28MOL    C61 9835   0.226   0.708   0.204  0.0853 -0.3190 -0.1081
   28MOL    C62 9836   0.280   0.668   0.061  0.1570  0.4082 -0.2049
   28MOL    C63 9837   0.273   0.515   0.043  0.7435 -0.0336  0.0619
   28MOL    H64 9838   0.493   0.474   0.555 -1.8438 -0.8658 -1.6513
   28MOL    H65 9839   0.454   0.465   0.392 -0.3732 -0.9521  0.9223
   28MOL    H66 9840   0.593   0.717   0.458 -0.1557 -0.7495 -1.1420
   28MOL    H67 9841   0.126   0.671   0.226 -1.0812  1.4099 -2.2272
   28MOL    H68 9842   0.206   0.815   0.216  1.6743  0.0895 -1.0069
   28MOL    H69 9843   0.221   0.720   7.865  0.0474  0.6773  0.0637
   28MOL    H70 9844   0.380   0.708   0.047 -0.9683  3.4072 -0.2199
   28MOL    H71 9845   0.190   0.476   0.102  1.4773  0.4945  1.4568
   28MOL    H72 9846   0.360   0.471   0.091  1.0669 -1.5773 -1.8423
   28MOL    H73 9847   0.261   0.468   7.825  0.1843 -2.2180  1.1447
   28MOL    C74 9848   0.413   0.708   0.590  0.9648 -0.4690  0.3892
   28MOL    C75 9849   0.490   0.708   0.730  0.0793  0.4885  0.2266
   28MOL    C76 9850   0.549   0.845   0.762 -0.1517 -0.1318 -0.5121
   28MOL    O77 9851   0.670   0.860   0.772 -0.1533  0.0135 -0.1050
   28MOL    O78 9852   0.452   0.941   0.780 -0.0400 -0.4607  0.1721
   28MOL    C79 9853   0.500   1.074   0.788 -0.0274  0.7130 -0.2500
   28MOL    C80 9854   0.533   1.141   0.657 -0.1762 -0.4890 -0.1831
   28MOL    C81 9855   0.411   1.158   0.572 -0.8173  0.3363 -0.6017
   28MOL    H82 9856   0.340   0.629   0.602 -1.7539  2.2625  2.6236
   28MOL    H83 9857   0.348   0.796   0.582  3.4225  1.5363  1.5227
   28MOL    H84 9858   0.577   0.646   0.711 -1.1101 -0.9960 -0.5136
   28MOL    H85 9859   0.430   1.135   0.845  0.6066 -1.4379  3.0081
   28MOL    H86 9860   0.587   1.077   0.854  2.1154 -0.2565 -2.9430
   28MOL    H87 9861   0.580   1.239   0.670  1.1321 -0.8713 -1.8493
   28MOL    H88 9862   0.602   1.079   0.600  0.9500 -0.0385  0.6722
   28MOL    H89 9863   0.325   1.204   0.620 -0.1077  1.0770 -0.0280
   28MOL    H90 9864   0.377   1.068   0.520 -3.0350 -0.3796  2.0020
   28MOL    H91 9865   0.440   1.233   0.498  0.4625 -0.6376 -1.1137
   28MOL    C92 9866   0.407   0.663   0.850 -0.6988 -0.3702  0.1724
   28MOL    C93 9867   0.356   0.518   0.848 -0.6532  0.0337  0.3625
   28MOL    C94 9868   0.466   0.401   0.843  0.2938  0.5487 -0.0688
   28MOL    O95 9869   0.458   0.317   0.757 -0.2395  0.5673 -0.2470
   28MOL    O96 9870   0.558   0.408   0.948 -0.5317 -0.1341 -0.1298
   28MOL    C97 9871   0.644   0.307   0.971 -0.4616  0.4583  0.2181
   28MOL    C98 9872   0.778   0.343   1.029 -0.3343 -0.8688  0.2008
   28MOL    C99 9873   0.846   0.465   0.962  0.3046 -0.0590 -0.4427
   28MOL   H100 9874   0.330   0.733   0.884  1.0940  0.7780  1.9521
   28MOL   H101 9875   0.478   0.672   0.932  2.1182  1.9037 -2.3864
   28MOL   H102 9876   0.290   0.503   0.763 -0.6506 -0.6527  0.4717
   28MOL   H103 9877   0.589   0.245   1.042  1.3438 -1.1389  0.2616
   28MOL   H104 9878   0.661   0.246   0.882  1.6461 -2.1345  2.2953
   28MOL   H105 9879   0.762   0.379   1.130 -0.8566  2.3980 -0.9675
   28MOL   H106 9880   0.844   0.256   1.023  0.6171 -0.2335  1.2169
   28MOL   H107 9881   0.789   0.558   0.967  1.6436  0.7013  1.2927
   28MOL   H108 9882   0.866   0.430   0.861  2.6833 -0.3688  0.1054
   28MOL   H109 9883   0.944   0.475   1.007  0.3118  1.9048 -0.8618
   28MOL   C110 9884   0.266   0.482   0.966 -0.1027 -0.2514 -0.4309
   28MOL   C111 9885   0.138   0.565   0.984 -0.5119 -0.6357  0.2355
   28MOL   C112 9886   0.080   0.603   0.852 -0.4711 -0.6396  0.2093
   28MOL   O113 9887   0.054   0.718   0.831  0.8040  0.9345 -0.4987
   28MOL   O114 9888   0.040   0.494   0.780 -0.2409  0.4081 -0.5547
   28MOL   C115 9889   7.858   0.508   0.659  0.2913  0.1741 -0.0178
   28MOL   C116 9890   0.080   0.504   0.547 -0.1948 -0.0466  0.6078
   28MOL   C117 9891   0.151   0.366   0.541 -0.1070  0.3104  0.0778
   28MOL   H118 9892   0.315   0.491   1.063 -1.3341  2.9052 -0.0374
   28MOL   H119 9893   0.228   0.380   0.961 -0.1000 -0.3452  1.1470
   28MOL   H120 9894   0.173   0.655   1.034 -1.6229  0.8674 -1.5934
   28MOL   H121 9895   7.784   0.429   0.648  0.6234 -0.4420  1.9686
   28MOL   H122 9896   7.799   0.599   0.669 -1.6427 -1.0730  0.1280
   28MOL   H123 9897   0.038   0.525   0.448  1.8066 -1.1420 -0.5110
   28MOL   H124 9898   0.149   0.587   0.543  0.2366 -0.4284  0.0773
   28MOL   H125 9899   0.081   0.290   0.576 -0.9105 -0.0465 -2.2705
   28MOL   H126 9900   0.237   0.352   0.607  0.3334  2.2569 -0.0692
   28MOL   H127 9901   0.175   0.343   0.437 -1.0178 -1.5722  0.2595
   28MOL   C128 9902   0.030   0.493   1.068 -0.0972 -0.2189  0.0328
   28MOL   C129 9903   7.813   0.582   1.149 -0.6296 -1.1136 -0.9294
   28MOL   C130 9904   7.675   0.526   1.160 -0.4966  0.1457 -0.4764
   28MOL   O131 9905   7.574   0.585   1.127  0.1204  0.4147 -0.1881
   28MOL   O132 9906   7.677   0.403   1.226 -0.1953 -0.6714 -0.6377
   28MOL   C133 9907   7.560   0.324   1.255 -0.0564 -0.2725 -0.3717
   28MOL   C134 9908   7.491   0.244   1.134 -0.0109 -0.0337 -0.0418
   28MOL   C135 9909   7.364   0.173   1.163  0.4204 -0.1573 -0.6720
   28MOL   H136 9910   0.085   0.421   1.129 -0.6950 -0.7543 -0.0491
   28MOL   H137 9911   7.842   0.425   1.016  0.9919  0.3475 -2.1623
   28MOL   H138 9912   7.802   0.678   1.099 -1.0682 -0.5289  0.2677
   28MOL   H139 9913   7.590   0.259   1.337 -0.9059 -0.9611 -0.6030
   28MOL   H140 9914   7.482   0.389   1.295  1.0924  2.7108 -2.8384
   28MOL   H141 9915   7.477   0.301   1.043  1.1238 -0.4976 -0.5213
   28MOL   H142 9916   7.556   0.161   1.106  0.4380  1.3712 -3.3244
   28MOL   H143 9917   7.368   0.136   1.265 -4.6116 -1.8217 -0.9371
   28MOL   H144 9918   7.360   0.086   1.099 -1.4896  0.4455 -1.3965
   28MOL   H145 9919   7.268   0.222   1.143 -0.5505 -2.5037 -1.8439
   28MOL   C146 9920   7.876   0.621   1.286  0.3772 -0.2692 -0.4458
   28MOL   C147 9921   0.026   0.766   1.301  0.3997 -0.7962  1.1227
   28MOL   C148 9922   7.778   0.850   1.299  0.8256  0.3274 -0.3167
   28MOL   O149 9923   7.758   0.923   1.201 -0.6923 -0.0383 -0.2301
   28MOL   O150 9924   7.698   0.838   1.404  0.9995  0.1982  0.3147
   28MOL   C151 9925   7.585   0.921   1.412  0.6595 -0.5166  0.5955
   28MOL   C152 9926   7.470   0.865   1.493  0.1600  0.5331 -0.6339
   28MOL   C153 9927   7.507   0.860   1.640 -0.0767  0.6517 -0.1980
   28MOL   H154 9928   0.092   0.570   1.297  0.2629 -0.4607 -0.3127
   28MOL   H155 9929   7.809   0.597   1.368  0.6647 -1.6094 -0.5878
   28MOL   H156 9930   0.087   0.799   1.217 -2.2455  0.8876 -0.2089
   28MOL   H157 9931   7.611   1.013   1.466 -0.0428  0.6283 -0.9751
   28MOL   H158 9932   7.545   0.939   1.312  2.1497 -0.5061 -0.0138
   28MOL   H159 9933   7.375   0.918   1.482 -1.1143 -1.3549  0.8652
   28MOL   H160 9934   7.447   0.772   1.441 -0.9534 -0.2323  1.1696
   28MOL   H161 9935   7.548   0.955   1.676 -1.4362  1.1988 -0.0756
   28MOL   H162 9936   7.579   0.780   1.651  0.5059  0.7115 -3.1264
   28MOL   H163 9937   7.422   0.827   1.700  0.9399 -1.2110  0.2560
   28MOL   C164 9938   0.111   0.793   1.427 -0.3162  0.1619 -0.3815
   28MOL   C165 9939   0.167   0.937   1.444  0.8729  0.3522  0.0498
   28MOL   C166 9940   0.230   0.948   1.581  0.7230  0.3658 -0.0645
   28MOL   O167 9941   0.171   0.994   1.670 -0.7049  0.8620 -0.3251
   28MOL   O168 9942   0.350   0.892   1.592  0.0140  0.1188  0.3916
   28MOL   C169 9943   0.419   0.913   1.720 -0.2994  0.4653 -0.3887
   28MOL   C170 9944   0.529   0.817   1.747 -0.3673  0.2327 -0.4665
   28MOL   C171 9945   0.595   0.840   1.884  0.3739  0.2419 -0.1742
   28MOL   H172 9946   0.196   0.726   1.435 -0.3940 -0.0463 -1.2367
   28MOL   H173 9947   0.059   0.768   1.519  1.2621  0.0787  0.5031
   28MOL   H174 9948   0.082   1.005   1.449  0.4890  0.0109 -1.4402
   28MOL   H175 9949   0.455   1.016   1.718 -1.8854  1.0321 -0.2781
   28MOL   H176 9950   0.349   0.894   1.802  2.6445 -1.4850  1.8056
   28MOL   H177 9951   0.487   0.717   1.734  1.4269 -0.8172  1.4957
   28MOL   H178 9952   0.599   0.823   1.663  1.3229 -0.9971  0.8286
   28MOL   H179 9953   0.536   0.801   1.966 -0.9477  0.6052 -0.9408
   28MOL   H180 9954   0.611   0.943   1.915  1.9325  0.3112 -1.0961
   28MOL   H181 9955   0.700   0.808   1.885  0.3978  0.2854 -0.9105
   28MOL   C182 9956   0.264   0.988   1.340  0.4582  0.0813  0.2879
   28MOL   C183 9957   0.261   1.147   1.324 -0.2223  0.9365 -0.4630
   28MOL   C184 9958   0.409   1.194   1.304 -0.8669  0.3652  0.2445
   28MOL   O185 9959   0.441   1.259   1.201  0.5092 -0.1444 -0.5487
   28MOL   O186 9960   0.490   1.163   1.410  0.8640  0.1866 -0.3114
   28MOL   C187 9961   0.632   1.185   1.398  0.4178 -0.3856  0.3693
   28MOL   C188 9962   0.710   1.095   1.498  0.5379  0.3116 -0.7854
   28MOL   C189 9963   0.733   1.175   1.625 -0.5462 -0.0824 -0.5141
   28MOL   H190 9964   0.245   0.934   1.247  0.9918 -0.2897  0.3946
   28MOL   H191 9965   0.364   0.947   1.352  0.5603 -0.3658 -1.8818
   28MOL   H192 9966   0.243   1.194   1.420  3.7434  0.9196  0.3764
   28MOL   H193 9967   0.664   1.148   1.301 -0.3625 -0.7901  0.2643
   28MOL   H194 9968   0.665   1.288   1.410 -3.7566  1.7219 -4.3669
   28MOL   H195 9969   0.660   1.004   1.530  1.5370  0.7732  2.2483
   28MOL   H196 9970   0.809   1.065   1.464  0.7591 -1.5192  1.3710
   28MOL   H197 9971   0.784   1.270   1.615  2.4696 -1.3222  1.9020
   28MOL   H198 9972   0.796   1.118   1.694  1.2454 -0.0036 -2.0670
   28MOL   H199 9973   0.638   1.192   1.675 -2.0821  0.0191 -3.3851
   28MOL   C200 9974   0.142   1.195   1.236 -0.4944  0.3816  0.8046
   28MOL   C201 9975   0.024   1.258   1.313  0.4368  0.5607 -1.0280
   28MOL   C202 9976   0.053   1.391   1.385  0.2832  0.4455  0.6585
   28MOL   O203 9977   0.045   1.406   1.507 -0.2704 -0.1788 -0.5022
   28MOL   O204 9978   0.089   1.481   1.297  0.6698 -0.6476  0.5817
   28MOL   C205 9979   0.140   1.603   1.339  0.6824 -0.6521 -0.2045
   28MOL   C206 9980   0.030   1.711   1.366  0.0610 -0.1522 -0.6522
   28MOL   C207 9981   7.822   1.737   1.255  0.4408  0.2844  0.1404
   28MOL   H208 9982   0.107   1.117   1.169  0.0328  0.2679  0.6631
   28MOL   H209 9983   0.177   1.263   1.159  0.3572 -0.8302  0.1075
   28MOL   H210 9984   0.007   1.184   1.390 -0.3995  2.1162  0.3046
   28MOL   H211 9985   0.189   1.597   1.436  0.4281  0.3410 -0.0009
   28MOL   H212 9986   0.207   1.632   1.258  1.0805  0.3099  0.4622
   28MOL   H213 9987   7.856   1.683   1.457  1.7658  2.1548  1.1230
   28MOL   H214 9988   0.084   1.804   1.385  1.0915 -0.6118 -1.2666
   28MOL   H215 9989   7.751   1.657   1.235  1.6000 -0.4510 -1.0711
   28MOL   H216 9990   7.879   1.735   1.162 -0.7452 -0.5357 -0.5917
   28MOL   H217 9991   7.774   1.835   1.258 -0.2345 -0.0769  1.6072
   28MOL   C218 9992   7.782   1.262   1.215 -0.5520  0.2515 -0.2690
   28MOL   C219 9993   7.667   1.353   1.262 -0.0489  0.4999  0.1398
   28MOL   C220 9994   7.596   1.397   1.139  0.2179 -0.0522  0.1566
   28MOL   O221 9995   7.588   1.519   1.112 -0.1255 -0.0231  0.1388
   28MOL   O222 9996   7.556   1.293   1.066 -0.4496 -0.5329  0.3493
   28MOL   C223 9997   7.477   1.318   0.947 -0.5882  0.1113 -0.1880
   28MOL   C224 9998   7.339   1.272   0.970  0.3060 -0.0550 -0.5348
   28MOL   C225 9999   7.319   1.116   0.981 -0.1300 -0.6188  0.0397
   28MOL   H22610000   7.743   1.161   1.208  1.6994 -0.6365 -0.4741
   28MOL   H22710001   7.824   1.297   1.121  1.5264  0.3647  0.6672
   28MOL   H22810002   7.709   1.443   1.306 -2.3334  1.2458  0.8962
   28MOL   H22910003   7.470   1.420   0.910 -1.5131 -0.8287 -2.6826
   28MOL   H23010004   7.519   1.259   0.866  1.3439 -0.2852  1.0397
   28MOL   H23110005   7.290   1.323   1.053 -1.5004 -0.5489 -1.2712
   28MOL   H23210006   7.274   1.299   0.887  0.9053  3.5232  0.1115
   28MOL   H23310007   7.387   1.066   1.050  2.0090  0.8543 -0.9417
   28MOL   H23410008   7.343   1.083   0.880  1.2799  0.8474 -0.1133
   28MOL   H23510009   7.213   1.098   1.000  0.2444 -1.2109  1.6570
   28MOL   C23610010   7.567   1.279   1.356 -0.5159  0.2216  0.8146
   28MOL   C23710011   7.477   1.373   1.432  0.7107  0.0981 -0.5617
   28MOL   C23810012   7.388   1.282   1.516  0.7866 -0.0997  0.1706
   28MOL   O23910013   7.441   1.232   1.619  0.3495 -0.1923  0.5385
   28MOL   O24010014   7.270   1.254   1.474 -0.0349 -0.0179  0.2542
   28MOL   C24110015   7.189   1.160   1.542 -0.0487  0.2209 -0.1853
   28MOL   C24210016   7.058   1.143   1.465 -0.5540  0.0223 -0.0303
   28MOL   C24310017   7.064   1.074   1.326 -0.5333  0.1263  0.6314
   28MOL   H24410018   7.631   1.233   1.431  1.5888 -0.3368 -1.2401
   28MOL   H24510019   7.514   1.193   1.315 -0.6082  0.7912 -0.2726
   28MOL   H24610020   7.406   1.417   1.361 -1.8897 -1.1523  1.2013
   28MOL   H24710021   7.242   1.067   1.561 -1.4427 -0.1272  2.3204
   28MOL   H24810022   7.172   1.197   1.644 -1.5327  1.0940 -0.7264
   28MOL   H24910023   6.995   1.080   1.527 -0.5735  1.7976  1.8185
   28MOL   H25010024   6.996   1.233   1.470  0.0421  0.4999 -0.9749
   28MOL   H25110025   6.961   1.064   1.290 -0.3986  0.9129  0.0262
   28MOL   H25210026   7.118   0.979   1.327  0.3180  0.6105  1.3688
   28MOL   H25310027   7.129   1.134   1.263 -0.9130  1.1555  1.2023
   28MOL   C25410028   7.552   1.477   1.514 -0.1710 -0.4474 -0.6203
   28MOL   C25510029   7.472   1.557   1.613  0.2299  0.1793  0.6010
   28MOL   C25610030   7.573   1.647   1.688  1.2418 -0.4804  0.3002
   28MOL   O25710031   7.587   1.631   1.809  0.1038  0.5239  0.1764
   28MOL   O25810032   7.633   1.750   1.621  0.3072  0.6685  0.4261
   28MOL   C25910033   7.716   1.845   1.694 -0.0039  0.8287 -0.1215
   28MOL   C26010034   7.706   1.984   1.631 -0.3302 -0.2434  0.6199
   28MOL   C26110035   7.794   2.091   1.706 -0.1081  0.0411  0.1033
   28MOL   H26210036   7.591   1.549   1.442 -1.5004  1.5775  0.6254
   28MOL   H26310037   7.633   1.430   1.569  0.2835  0.8646 -0.1310
   28MOL   H26410038   7.440   1.501   1.701  0.5948  1.6050  1.6794
   28MOL   H26510039   7.706   1.852   1.802 -0.7982  1.0364 -0.2044
   28MOL   H26610040   7.817   1.806   1.686 -0.5662 -0.3913 -1.5887
   28MOL   H26710041   7.721   1.981   1.523 -0.7532 -2.2758  0.6032
   28MOL   H26810042   7.600   2.008   1.628 -0.1357  1.0039  2.7553
   28MOL   H26910043   0.018   2.088   1.674 -0.4296  1.4682 -1.1616
   28MOL   H27010044   7.790   2.072   1.813 -3.3802  1.8626  0.3581
   28MOL   H27110045   7.762   2.194   1.691 -0.9694 -0.3140 -0.5416
   28MOL   C27210046   7.355   1.635   1.539  0.3536  0.5685  0.4605
   28MOL   C27310047   7.234   1.670   1.638  0.2027 -0.0352  0.4811
   28MOL   C27410048   7.165   1.535   1.680 -0.8479 -0.2122 -0.6803
   28MOL   O27510049   7.078   1.487   1.608 -0.0776  0.4180 -0.6277
   28MOL   O27610050   7.211   1.479   1.796  0.5043  0.0783 -0.0040
   28MOL   C27710051   7.145   1.373   1.859  0.1722 -0.5182  0.9140
   28MOL   C27810052   7.242   1.275   1.925  0.2890 -0.1673  0.7224
   28MOL   C27910053   7.326   1.343   2.031 -0.2721 -0.0284 -0.3081
   28MOL   H28010054   7.316   1.571   1.459  0.0178 -0.4221  1.4167
   28MOL   H28110055   7.402   1.722   1.493  1.3446  0.1285  0.6246
   28MOL   H28210056   7.166   1.716   1.567 -0.8518 -1.4987  0.5212
   28MOL   H28310057   7.078   1.401   1.940  0.5858  0.5908  0.8775
   28MOL   H28410058   7.088   1.324   1.780 -0.0992 -2.1893  2.1316
   28MOL   H28510059   7.197   1.181   1.957  0.8634 -1.9530 -3.4165
   28MOL   H28610060   7.315   1.237   1.854 -0.7501  0.1604 -0.5392
   28MOL   H28710061   7.392   1.417   1.987 -0.6238 -0.8388 -2.2795
   28MOL   H28810062   7.398   1.270   2.069  1.1257  1.5311  0.0904
   28MOL   H28910063   7.281   1.389   2.118 -0.7494 -1.4503  0.2050
   28MOL   C29010064   7.255   1.770   1.754  0.7737  0.1132 -0.1336
   28MOL   C29110065   7.137   1.846   1.800  0.0934 -0.3691  0.2479
   28MOL   C29210066   7.079   1.942   1.693  0.6001 -0.8264 -0.4851
   28MOL   O29310067   6.965   1.930   1.637 -0.5563 -0.7576  0.6109
   28MOL   O29410068   7.163   2.044   1.672 -0.7836 -0.3764  0.0700
   28MOL   C29510069   7.124   2.149   1.584  0.0045 -0.6586 -0.9021
   28MOL   C29610070   7.242   2.238   1.566  0.6819  0.0635 -0.5047
   28MOL   C29710071   7.350   2.177   1.485 -0.3257 -0.4346 -0.9096
   28MOL   H29810072   7.331   1.836   1.711 -0.6026  2.9580  1.6644
   28MOL   H29910073   7.302   1.721   1.839  0.0014 -0.2563  0.0891
   28MOL   H30010074   7.196   1.910   1.866  0.3647  2.6966 -2.8662
   28MOL   H30110075   7.082   2.115   1.490 -0.2013 -0.0408 -1.0310
   28MOL   H30210076   7.048   2.209   1.632 -1.0203 -1.6461 -1.2613
   28MOL   H30310077   7.205   2.327   1.515 -0.2785  0.4593  0.8685
   28MOL   H30410078   7.280   2.271   1.663 -1.7577  1.5562 -0.0384
   28MOL   H30510079   7.387   2.092   1.543  0.3597  0.8257  0.5513
   28MOL   H30610080   7.434   2.247   1.480 -0.9776  0.2691 -2.3279
   28MOL   H30710081   7.319   2.150   1.384  0.1339 -1.8960 -0.6671
   28MOL   C30810082   7.038   1.764   1.885  0.2950  0.5834  0.6631
   28MOL   C30910083   6.944   1.843   1.979 -0.1025  0.6229  0.0583
   28MOL   C31010084   6.834   1.743   2.025  0.4556 -0.0448  0.7335
   28MOL   O31110085   6.853   1.622   2.032  0.1436  0.2300 -0.0278
   28MOL   O31210086   6.721   1.803   2.050 -0.3673 -0.1500 -0.4030
   28MOL   C31310087   6.595   1.741   2.069  0.4454  1.0772 -0.2015
   28MOL   C31410088   6.552   1.694   2.205 -0.1763  1.1671  0.0817
   28MOL   C31510089   6.557   1.807   2.303 -0.0572  0.4189  0.2664
   28MOL   H31610090   7.096   1.689   1.939 -2.7348 -2.1860  0.2994
   28MOL   H31710091   6.975   1.717   1.809  1.4206 -0.7436  0.5308
   28MOL   H31810092   6.906   1.928   1.923  0.9079  1.3977  0.5518
   28MOL   H31910093   6.531   1.816   2.022  0.1390  1.5544  0.9722
   28MOL   H32010094   6.586   1.654   2.004  2.1187  2.0260 -1.7544
   28MOL   H32110095   6.449   1.660   2.201  0.5796 -1.6426  2.2430
   28MOL   H32210096   6.613   1.609   2.236 -3.0375 -2.0001 -2.5922
   28MOL   H32310097   6.649   1.863   2.287 -0.8742  1.7834  0.2988
   28MOL   H32410098   6.482   1.884   2.285  0.6376  1.5091  1.9863
   28MOL   H32510099   6.550   1.768   2.405  0.4841 -1.5364 -0.4210
   28MOL   C32610100   7.020   1.912   2.092  0.1431  0.1143  1.0541
   28MOL   C32710101   7.101   1.823   2.198  0.0418 -0.5803 -0.4629
   28MOL   C32810102   7.247   1.796   2.152 -0.0573  0.0887  0.0971
   28MOL   O32910103   7.290   1.678   2.138  0.2578  0.0647 -0.1067
   28MOL   O33010104   7.325   1.912   2.135  0.8374  0.2064  0.0160
   28MOL   C33110105   7.461   1.908   2.086 -0.2008  0.0963  0.2676
   28MOL   C33210106   7.490   2.021   1.984 -0.1750  0.7999  0.3471
   28MOL   C33310107   7.485   2.155   2.042 -0.0605 -0.6719 -0.3586
   28MOL   H33410108   6.946   1.970   2.146 -2.2700 -0.9095 -1.0506
   28MOL   H33510109   7.088   1.990   2.057  0.3080 -0.5020 -0.0332
   28MOL   H33610110   7.058   1.723   2.204 -0.3104 -0.3815  0.3472
   28MOL   H33710111   7.535   1.916   2.166  1.4563 -0.1392 -1.2076
   28MOL   H33810112   7.480   1.814   2.034  0.1650  0.9553 -1.1831
   28MOL   H33910113   7.588   2.007   1.939  0.9070 -0.5971  3.0324
   28MOL   H34010114   7.423   2.010   1.898  0.7416  1.8829 -0.5283
   28MOL   H34110115   7.458   2.231   1.968 -0.1046  0.5240  0.8752
   28MOL   H34210116   7.421   2.171   2.128  0.3385  1.4553 -0.4247
   28MOL   H34310117   7.570   2.193   2.098  1.1292 -3.8036  0.0176
   28MOL   C34410118   7.089   1.865   2.347 -0.2531  0.4466 -0.1798
   28MOL   C34510119   6.952   1.841   2.412  0.1112  0.3460  0.7115
   28MOL   C34610120   6.927   1.916   2.542 -0.0192  0.2726  0.9173
   28MOL   O34710121   7.014   1.978   2.595 -0.0567 -0.3825 -0.3556
   28MOL   O34810122   6.807   1.895   2.596  0.5006  0.1766 -0.0910
   28MOL   C34910123   6.779   1.960   2.718 -0.2551 -0.4733  0.7315
   28MOL   C35010124   6.631   1.929   2.763  0.0731  0.0949  0.6432
   28MOL   C35110125   6.611   1.795   2.838  0.0211  0.0771 -0.2517
   28MOL   H35210126   7.132   1.964   2.364  2.2985 -0.8619  1.3247
   28MOL   H35310127   7.154   1.805   2.411  0.3301  1.5541  0.2882
   28MOL   H35410128   6.928   1.735   2.424  1.3624 -0.1454 -0.9532
   28MOL   H35510129   6.850   1.927   2.794  2.1306  0.2577 -1.1277
   28MOL   H35610130   6.787   2.067   2.699 -0.9176 -0.5030  0.2473
   28MOL   H35710131   6.598   2.001   2.837 -0.2425 -0.9254  1.5055
   28MOL   H35810132   6.562   1.939   2.679 -0.3384 -2.6783  0.6021
   28MOL   H35910133   6.655   1.799   2.937 -1.9294  1.2540  0.6019
   28MOL   H36010134   6.510   1.760   2.862  0.3641 -0.7908 -0.0700
   28MOL   H36110135   6.655   1.712   2.783  1.7248  0.5097  0.4498
   28MOL   H36210136   6.870   1.875   2.349  0.7046 -0.1321 -0.3228
   29MOL     C110137   3.886   3.051   1.783  0.3983  0.9272 -0.4437
   29MOL     C210138   3.913   3.062   1.928  0.2693  0.8910  0.4128
   29MOL     C310139   4.049   2.997   1.963 -0.0853  0.1641  0.1013
   29MOL     O410140   4.049   2.892   2.034 -0.7019  0.2958 -0.2487
   29MOL     O510141   4.154   3.063   1.920  0.5215  0.2321  0.1457
   29MOL     C610142   4.278   3.041   1.977  0.6549 -0.8101  0.4611
   29MOL     C710143   4.358   3.172   1.934  0.4555  0.3293 -0.2706
   29MOL     C810144   4.428   3.155   1.797 -0.2688 -0.1249  0.4119
   29MOL     H910145   3.959   3.111   1.729 -0.1600  1.3632 -0.7309
   29MOL    H1010146   3.879   2.949   1.745 -1.1061  1.0464 -0.5148
   29MOL    H1110147   3.838   2.994   1.968 -0.5731  1.1507 -0.6995
   29MOL    H1210148   4.268   3.038   2.085 -0.9222  1.4504  0.4284
   29MOL    H1310149   4.316   2.942   1.951 -1.3203 -1.0054 -1.8606
   29MOL    H1410150   4.289   3.256   1.933 -0.1169 -0.0590  2.0993
   29MOL    H1510151   4.437   3.190   2.007  0.2587  1.7671 -0.3924
   29MOL    H1610152   4.502   3.235   1.788  0.3436 -0.8087 -0.9461
   29MOL    H1710153   4.479   3.059   1.807 -0.1888 -0.0766  0.4698
   29MOL    H1810154   4.361   3.156   1.711  1.4453  1.3468 -0.9615
   29MOL    H1910155   3.801   3.106   1.742  1.7575  3.1684 -0.3662
   29MOL    C2010156   3.887   3.198   1.983 -0.4040  0.1101 -0.2528
   29MOL    C2110157   3.847   3.214   2.130  0.8737  0.3544  0.7588
   29MOL    C2210158   3.971   3.178   2.222 -0.0689  0.5458 -0.2816
   29MOL    O2310159   3.965   3.092   2.312  0.2061  0.4196 -0.2656
   29MOL    O2410160   4.084   3.248   2.189  0.1076 -0.5343  0.4774
   29MOL    C2510161   4.199   3.253   2.277  0.1421 -0.0723 -0.3484
   29MOL    C2610162   4.271   3.388   2.258 -0.1720 -0.1537  0.3485
   29MOL    C2710163   4.185   3.505   2.300 -0.0889 -0.3217  0.7522
   29MOL    H2810164   3.820   3.260   1.925  1.5821  1.8117 -0.7936
   29MOL    H2910165   3.972   3.263   1.963 -0.7244  0.6068  0.0082
   29MOL    H3010166   3.768   3.144   2.155  0.1813  1.6964  2.3520
   29MOL    H3110167   4.169   3.241   2.382  0.4535 -1.4027 -0.3987
   29MOL    H3210168   4.261   3.165   2.260 -0.8138 -1.0010  0.7941
   29MOL    H3310169   4.364   3.390   2.314  0.8844  0.3185 -1.3876
   29MOL    H3410170   4.294   3.382   2.152  1.5979 -0.9751  0.7621
   29MOL    H3510171   4.201   3.515   2.408 -1.7828  2.9472  0.7489
   29MOL    H3610172   4.081   3.486   2.273 -0.4309 -2.1525  3.1214
   29MOL    H3710173   4.220   3.593   2.246 -1.4196 -0.4740 -0.3691
   29MOL    C3810174   3.790   3.360   2.158  0.0577  0.5878  0.6544
   29MOL    C3910175   3.740   3.386   2.302 -0.0404  0.2404 -0.7114
   29MOL    C4010176   3.720   3.529   2.348  0.3634 -0.4342  0.1962
   29MOL    O4110177   3.686   3.611   2.265  0.3395  0.3469 -0.0014
   29MOL    O4210178   3.746   3.543   2.479 -0.0273  0.5242 -0.2042
   29MOL    C4310179   3.733   3.674   2.531  0.2952 -0.3038 -0.3630
   29MOL    C4410180   3.762   3.683   2.680  0.0262  0.1389  0.3267
   29MOL    C4510181   3.893   3.622   2.714  0.1883  0.0100  1.0131
   29MOL    H4610182   3.700   3.375   2.097 -0.8497 -1.1270  1.5357
   29MOL    H4710183   3.862   3.440   2.136  0.7536 -0.4860 -1.1001
   29MOL    H4810184   3.828   3.354   2.359  0.6405  1.2849 -1.1569
   29MOL    H4910185   3.801   3.741   2.479  0.3090  0.5725  0.7681
   29MOL    H5010186   3.630   3.708   2.525  0.6977  0.6844 -1.7016
   29MOL    H5110187   3.768   3.786   2.716  1.3497  1.2308 -2.8777
   29MOL    H5210188   3.689   3.634   2.744  0.4357  0.4697  1.0567
   29MOL    H5310189   3.921   3.628   2.819 -1.6091  1.6705  1.4208
   29MOL    H5410190   3.968   3.675   2.655  0.3049 -2.4827 -1.1749
   29MOL    H5510191   3.889   3.516   2.687 -0.9685  0.7002 -1.7309
   29MOL    C5610192   3.633   3.298   2.358  0.0209 -0.5697 -0.1278
   29MOL    C5710193   3.489   3.337   2.311 -0.0383 -0.5323 -0.3413
   29MOL    C5810194   3.454   3.271   2.175 -0.0039 -0.0564  0.1055
   29MOL    O5910195   3.442   3.147   2.163  0.1459  0.2533 -0.1217
   29MOL    O6010196   3.439   3.359   2.075  0.3248 -0.4988  0.4929
   29MOL    C6110197   3.401   3.313   1.943  0.2600 -0.4764  0.2308
   29MOL    C6210198   3.509   3.259   1.845  0.8342 -0.4765  0.0668
   29MOL    C6310199   3.566   3.374   1.754 -0.2180  0.3453  0.2446
   29MOL    H6410200   3.644   3.306   2.467  0.9446 -3.0301 -0.0038
   29MOL    H6510201   3.647   3.190   2.345  1.5453 -0.1695 -1.9200
   29MOL    H6610202   3.486   3.442   2.283 -1.9112 -0.5234 -0.1460
   29MOL    H6710203   3.333   3.229   1.952 -0.6902  0.1738 -0.7558
   29MOL    H6810204   3.338   3.386   1.892  0.4924 -0.8006 -0.5349
   29MOL    H6910205   3.583   3.209   1.908  0.3067  0.0427  1.1156
   29MOL    H7010206   3.458   3.194   1.775  1.5471  0.9529 -1.8323
   29MOL    H7110207   3.483   3.428   1.711  0.8020  0.3265 -1.7986
   29MOL    H7210208   3.635   3.326   1.685 -1.9975 -0.4561 -1.0049
   29MOL    H7310209   3.627   3.450   1.804  1.7673  0.5082 -2.3322
   29MOL    C7410210   3.373   3.316   2.415 -0.2976 -0.7684 -0.6789
   29MOL    C7510211   3.395   3.419   2.528  0.1181  0.2178  0.0280
   29MOL    C7610212   3.325   3.549   2.495  0.0803 -0.1850  0.6563
   29MOL    O7710213   3.196   3.564   2.501 -0.5319 -0.7055 -0.4460
   29MOL    O7810214   3.410   3.640   2.445 -0.1426  0.5126 -0.2477
   29MOL    C7910215   3.369   3.772   2.432  0.2118 -0.7645 -0.5250
   29MOL    C8010216   3.399   3.820   2.291 -0.2259  0.1794 -0.0749
   29MOL    C8110217   3.357   3.964   2.265  0.0872 -0.6959  0.0278
   29MOL    H8210218   3.387   3.211   2.442 -0.0642 -0.4422  0.4586
   29MOL    H8310219   3.274   3.336   2.372  0.1204  1.3084 -0.7189
   29MOL    H8410220   3.499   3.451   2.532 -0.0478  0.4985  3.8267
   29MOL    H8510221   3.268   3.793   2.468  0.5052 -0.9636  0.4264
   29MOL    H8610222   3.424   3.835   2.502  0.0857 -0.1046 -1.0133
   29MOL    H8710223   3.507   3.824   2.273 -0.3042  1.5461 -0.3439
   29MOL    H8810224   3.360   3.756   2.213  0.9906  0.2675 -0.7695
   29MOL    H8910225   3.252   3.983   2.282  0.2418 -0.2495  0.4946
   29MOL    H9010226   3.397   3.995   2.168  0.0119 -1.6139 -0.3026
   29MOL    H9110227   3.397   4.028   2.344 -3.6716  0.7361  0.8567
   29MOL    C9210228   3.349   3.355   2.661  0.2046  0.2633  0.5534
   29MOL    C9310229   3.453   3.266   2.730  0.2118  0.1763 -0.2752
   29MOL    C9410230   3.554   3.340   2.805  0.0032 -0.7095  0.6966
   29MOL    O9510231   3.554   3.463   2.816  0.0236  0.0443  0.4893
   29MOL    O9610232   3.648   3.254   2.858  0.3232 -0.0686 -0.4385
   29MOL    C9710233   3.757   3.304   2.937  0.0644 -0.3862  0.1797
   29MOL    C9810234   3.723   3.312   3.090 -0.8511  0.6765 -0.8205
   29MOL    C9910235   3.833   3.367   3.179 -0.1588 -0.4013 -0.6200
   29MOL   H10010236   3.265   3.291   2.635  1.1688 -1.1605  0.9142
   29MOL   H10110237   3.319   3.434   2.731 -3.0481  0.7831 -1.2835
   29MOL   H10210238   3.505   3.223   2.644 -0.3908  1.2035 -1.1669
   29MOL   H10310239   3.846   3.242   2.928  0.2492 -0.3440  1.6153
   29MOL   H10410240   3.795   3.398   2.897  1.2477 -0.7144  0.5139
   29MOL   H10510241   3.627   3.362   3.103 -1.6966 -0.6719 -1.7489
   29MOL   H10610242   3.700   3.210   3.120 -1.5330  1.4381  1.3183
   29MOL   H10710243   3.895   3.443   3.131  1.6655  0.6301  3.1335
   29MOL   H10810244   3.911   3.294   3.199 -0.1573  0.2745  2.0885
   29MOL   H10910245   3.801   3.401   3.278  1.3915 -1.6571  0.3265
   29MOL   C11010246   3.388   3.147   2.810  0.9210 -0.1274 -0.3902
   29MOL   C11110247   3.320   3.169   2.951 -0.8313  0.1495  0.1911
   29MOL   C11210248   3.214   3.276   2.955 -0.3138  0.2917  0.0582
   29MOL   O11310249   3.245   3.382   3.014 -0.3689  0.4822 -0.3687
   29MOL   O11410250   3.088   3.237   2.920  0.3081  0.3341 -0.0124
   29MOL   C11510251   2.982   3.328   2.944 -0.3315 -0.0587 -0.1992
   29MOL   C11610252   2.849   3.247   2.961 -0.2971  0.1709  0.1086
   29MOL   C11710253   2.817   3.167   3.089 -0.1070  0.4447  0.4922
   29MOL   H11810254   3.470   3.079   2.832 -0.5004 -1.3623  1.2003
   29MOL   H11910255   3.316   3.089   2.753  1.2290  0.0175 -0.9357
   29MOL   H12010256   3.404   3.197   3.014  0.7134  0.4366 -1.9146
   29MOL   H12110257   3.000   3.390   3.032  2.1423 -1.0866  0.0686
   29MOL   H12210258   2.972   3.396   2.860  0.6125  0.9721  0.4958
   29MOL   H12310259   2.766   3.318   2.963 -1.1510 -0.8295  0.6057
   29MOL   H12410260   2.834   3.172   2.883 -1.0121 -0.7677  1.1327
   29MOL   H12510261   2.713   3.134   3.092  0.1379 -0.3362  0.5031
   29MOL   H12610262   2.832   3.213   3.187  2.4141 -2.6749  1.6657
   29MOL   H12710263   2.879   3.077   3.085  0.7757  1.1220 -2.2423
   29MOL   C12810264   3.265   3.042   3.020  0.3900  0.2289  0.0453
   29MOL   C12910265   3.217   3.043   3.172  0.1049 -0.2367 -0.0795
   29MOL   C13010266   3.158   2.907   3.211 -0.6076  0.1061  0.5322
   29MOL   O13110267   3.037   2.896   3.228  0.0525 -0.0857  0.0785
   29MOL   O13210268   3.248   2.812   3.203 -0.0981 -0.3922 -0.0394
   29MOL   C13310269   3.217   2.674   3.217  0.2372 -0.0004  0.1105
   29MOL   C13410270   3.310   2.626   3.329 -0.8032  0.2050 -0.1325
   29MOL   C13510271   3.282   2.702   3.459  0.4088 -0.3683  0.1504
   29MOL   H13610272   3.348   2.971   3.012  0.4222  0.0948  1.3366
   29MOL   H13710273   3.181   3.013   2.956 -1.0435  1.2145  1.4378
   29MOL   H13810274   3.129   3.107   3.168  0.3773  0.3348  2.3343
   29MOL   H13910275   3.110   2.661   3.235  0.5525 -2.3134  0.5787
   29MOL   H14010276   3.237   2.609   3.132 -1.6248 -0.8355  0.2723
   29MOL   H14110277   3.295   2.520   3.350  0.7930 -0.2457 -1.2393
   29MOL   H14210278   3.412   2.645   3.297 -0.4042 -1.1320  0.3360
   29MOL   H14310279   3.328   2.801   3.465 -0.3649  0.0333 -0.4068
   29MOL   H14410280   3.318   2.638   3.539  2.6974  0.8846  0.1821
   29MOL   H14510281   3.174   2.716   3.468  0.0604 -1.9550 -1.3212
   29MOL   C14610282   3.325   3.093   3.273 -0.0913 -0.0464  0.6577
   29MOL   C14710283   3.272   3.204   3.361  0.6169 -0.4182 -0.3120
   29MOL   C14810284   3.163   3.164   3.459  0.7334  0.2542 -0.2206
   29MOL   O14910285   3.061   3.239   3.472  0.3989  0.0778  0.6386
   29MOL   O15010286   3.184   3.044   3.526 -0.2155 -0.0854 -0.3250
   29MOL   C15110287   3.086   2.989   3.616  0.0816 -0.7123 -1.3765
   29MOL   C15210288   3.133   2.890   3.724 -0.1606  0.2143 -0.1886
   29MOL   C15310289   3.265   2.935   3.798  0.0670 -1.0076  0.5838
   29MOL   H15410290   3.413   3.127   3.218 -1.0980  2.6401  0.6222
   29MOL   H15510291   3.350   3.015   3.344 -1.1993  0.4688  1.6372
   29MOL   H15610292   3.216   3.276   3.302 -1.6839 -1.8378  0.1021
   29MOL   H15710293   3.017   3.064   3.655 -0.9443 -1.1557 -2.2901
   29MOL   H15810294   3.020   2.928   3.554  0.0756 -1.1825 -0.9116
   29MOL   H15910295   3.049   2.880   3.793 -0.1427  0.8684 -0.0714
   29MOL   H16010296   3.155   2.794   3.677 -0.2241 -0.3927  1.0005
   29MOL   H16110297   3.239   3.000   3.882 -0.9006 -2.3342  1.3165
   29MOL   H16210298   3.333   2.989   3.731 -0.5842  1.1006  1.5775
   29MOL   H16310299   3.304   2.848   3.850 -1.3256 -1.2902  1.1590
   29MOL   C16410300   3.380   3.292   3.432  0.2397  0.1565  0.0183
   29MOL   C16510301   3.460   3.213   3.540 -0.1231  0.5778  0.5076
   29MOL   C16610302   3.595   3.185   3.483 -0.5340 -0.2141  0.4807
   29MOL   O16710303   3.684   3.263   3.492 -0.1845 -0.4162  0.1745
   29MOL   O16810304   3.599   3.075   3.413  0.1553 -0.0550  0.7836
   29MOL   C16910305   3.716   3.035   3.342 -0.1158 -0.4908 -0.1344
   29MOL   C17010306   3.673   2.950   3.223 -0.0452  0.8440  0.1043
   29MOL   C17110307   3.792   2.864   3.172  0.2833 -0.5329 -0.2910
   29MOL   H17210308   3.327   3.373   3.483  1.7308 -0.8078  3.2151
   29MOL   H17310309   3.445   3.341   3.359  1.3445 -0.8557  0.3132
   29MOL   H17410310   3.409   3.120   3.563  0.6998  0.1192  0.5165
   29MOL   H17510311   3.764   3.118   3.290 -2.4120  1.3885  0.6553
   29MOL   H17610312   3.789   3.003   3.415 -0.5195  1.8686  1.3444
   29MOL   H17710313   3.589   2.889   3.256 -0.0507  0.1483 -1.1643
   29MOL   H17810314   3.631   3.001   3.137  1.4487 -2.3069 -2.5865
   29MOL   H17910315   3.870   2.927   3.128 -1.4314  0.9742 -1.2735
   29MOL   H18010316   3.758   2.798   3.093  0.8144 -0.2874 -0.7330
   29MOL   H18110317   3.830   2.816   3.262  1.7843 -1.8772 -1.6074
   29MOL   C18210318   3.469   3.298   3.674  0.3641  0.3864  0.6448
   29MOL   C18310319   3.511   3.242   3.809 -0.6962 -0.3330  0.0014
   29MOL   C18410320   3.631   3.148   3.814  0.1394 -0.5693 -0.0210
   29MOL   O18510321   3.741   3.180   3.859 -0.2096 -0.3556  0.0819
   29MOL   O18610322   3.608   3.032   3.763  0.3521  0.1447 -0.0110
   29MOL   C18710323   3.713   2.935   3.763  0.1126 -0.0565 -0.5596
   29MOL   C18810324   3.654   2.794   3.768  0.5399 -0.2754 -0.5206
   29MOL   C18910325   3.565   2.762   3.651  0.6129 -0.0038 -0.3609
   29MOL   H19010326   3.371   3.345   3.687  0.0349  0.1744 -0.8835
   29MOL   H19110327   3.532   3.386   3.659 -1.1836  1.3131 -0.6468
   29MOL   H19210328   3.429   3.173   3.829 -0.5998 -0.7674 -1.0413
   29MOL   H19310329   3.767   2.957   3.671  0.2333  1.6832 -0.0877
   29MOL   H19410330   3.789   2.947   3.840 -3.0067 -0.2027  2.6640
   29MOL   H19510331   3.741   2.728   3.757  0.4334 -0.5479  0.2250
   29MOL   H19610332   3.600   2.776   3.861 -0.1228  1.1795 -0.6222
   29MOL   H19710333   3.626   2.761   3.561 -0.2454 -0.7679 -0.9471
   29MOL   H19810334   3.489   2.838   3.632 -0.1594 -0.7568 -0.3556
   29MOL   H19910335   3.518   2.664   3.661 -1.5542  0.8083 -2.0258
   29MOL   C20010336   3.516   3.350   3.922 -0.8575 -0.1137 -0.3024
   29MOL   C20110337   3.526   3.295   4.068  0.3244 -0.4736  0.2294
   29MOL   C20210338   3.543   3.411   4.169  0.3738  0.2709 -0.1856
   29MOL   O20310339   3.460   3.501   4.172  0.1957 -0.2384 -0.2786
   29MOL   O20410340   3.650   3.403   4.251  0.1756  0.1446  0.2581
   29MOL   C20510341   3.676   3.499   4.343  0.3558  0.2131  0.0148
   29MOL   C20610342   3.721   3.433   4.476 -0.2714 -0.1167 -0.0108
   29MOL   C20710343   3.800   3.529   4.566  0.3725  0.0795  0.5125
   29MOL   H20810344   3.427   3.413   3.916 -0.2006  1.1004  1.8838
   29MOL   H20910345   3.608   3.407   3.909 -0.2460 -1.2173 -0.9010
   29MOL   H21010346   3.610   3.227   4.082  0.4701 -0.2799  0.3004
   29MOL   H21110347   3.747   3.567   4.296  0.2415  1.1650  1.2099
   29MOL   H21210348   3.593   3.568   4.357  2.2144  2.6135 -0.4502
   29MOL   H21310349   3.633   3.391   4.524 -0.4943  0.5245  0.1436
   29MOL   H21410350   3.767   3.335   4.458 -1.9177 -0.9065  0.0313
   29MOL   H21510351   3.734   3.607   4.603  2.0044  1.6215  0.2350
   29MOL   H21610352   3.892   3.574   4.528 -0.2307  2.1896  1.4832
   29MOL   H21710353   3.830   3.475   4.655  0.6161 -1.0456 -0.2399
   29MOL   C21810354   3.394   3.226   4.112  0.1964 -1.3551  0.1025
   29MOL   C21910355   3.402   3.125   4.222 -0.0471 -0.2015 -1.2541
   29MOL   C22010356   3.258   3.096   4.282  0.0638 -0.6901 -0.2543
   29MOL   O22110357   3.157   3.104   4.221  0.9026 -0.4809 -0.0923
   29MOL   O22210358   3.265   3.064   4.409  0.5471  0.1674 -0.0061
   29MOL   C22310359   3.155   3.011   4.479  0.9077  0.2197 -0.4854
   29MOL   C22410360   3.121   2.860   4.446 -0.1430 -0.1735  0.0504
   29MOL   C22510361   3.230   2.766   4.472 -0.1655 -0.1924  0.0224
   29MOL   H22610362   3.353   3.183   4.020 -0.1803  2.4557 -1.6122
   29MOL   H22710363   3.318   3.300   4.138  0.3671 -1.2186  0.2113
   29MOL   H22810364   3.454   3.178   4.301 -0.8829 -1.4658  0.1763
   29MOL   H22910365   3.180   3.021   4.584  1.3336 -2.7398 -0.2600
   29MOL   H23010366   3.074   3.080   4.454 -0.4329 -1.1141  0.1253
   29MOL   H23110367   3.024   2.834   4.490  1.7786 -2.3005  3.2349
   29MOL   H23210368   3.106   2.847   4.339 -1.9488  2.0966 -0.0081
   29MOL   H23310369   3.200   2.666   4.441  0.6334 -1.3163  2.7214
   29MOL   H23410370   3.262   2.758   4.576  0.9641 -1.0411 -0.3779
   29MOL   H23510371   3.322   2.777   4.414  0.6269 -0.9316  1.1055
   29MOL   C23610372   3.481   2.997   4.180  0.1979 -0.5093 -0.0992
   29MOL   C23710373   3.570   2.942   4.286 -0.0950 -0.6088 -0.2363
   29MOL   C23810374   3.576   2.792   4.278  0.0279 -0.0571 -1.0587
   29MOL   O23910375   3.586   2.728   4.178  0.4660 -0.2779 -0.1396
   29MOL   O24010376   3.583   2.749   4.399  0.5929  0.0737 -0.2679
   29MOL   C24110377   3.560   2.610   4.416 -0.0417 -0.7710  1.0523
   29MOL   C24210378   3.561   2.568   4.562  0.7498  0.5749 -0.0672
   29MOL   C24310379   3.683   2.622   4.647  0.0792  1.0304  0.3698
   29MOL   H24410380   3.552   3.018   4.100  0.7162 -0.8857  0.2633
   29MOL   H24510381   3.410   2.924   4.141  1.1070 -0.2515 -2.2979
   29MOL   H24610382   3.516   2.962   4.379 -0.5902 -0.6903 -0.5076
   29MOL   H24710383   3.465   2.586   4.370 -0.5802  1.3238  1.0578
   29MOL   H24810384   3.636   2.547   4.369 -0.5552 -0.8062  0.2793
   29MOL   H24910385   3.472   2.608   4.611  1.7297  0.4109  1.8902
   29MOL   H25010386   3.560   2.459   4.569  0.3743  0.7302  2.8846
   29MOL   H25110387   3.669   2.730   4.655 -0.8952  0.9339  0.0867
   29MOL   H25210388   3.776   2.604   4.593 -0.3027 -1.4275  0.4596
   29MOL   H25310389   3.682   2.569   4.742 -1.1929  0.7248  0.1982
   29MOL   C25410390   3.707   3.026   4.292  0.1123  0.6499 -0.0685
   29MOL   C25510391   3.799   3.007   4.415  0.1840  0.8367 -0.1035
   29MOL   C25610392   3.751   3.058   4.547  0.3094  0.5532  0.1236
   29MOL   O25710393   3.645   3.116   4.547 -0.1880  0.1133  0.6529
   29MOL   O25810394   3.828   3.028   4.650  0.6962  0.4060 -0.2359
   29MOL   C25910395   3.785   3.077   4.775  0.0724  0.1156  0.2034
   29MOL   C26010396   3.896   3.051   4.880  0.4131 -0.3788 -0.3857
   29MOL   C26110397   3.862   3.123   5.009 -0.4535  0.1062 -0.2912
   29MOL   H26210398   3.681   3.132   4.288  0.4441  0.6833 -1.4835
   29MOL   H26310399   3.768   2.992   4.208 -0.4237  2.2177 -1.1135
   29MOL   H26410400   3.879   3.080   4.402  0.7933  0.9381  3.6467
   29MOL   H26510401   3.753   3.181   4.773 -1.0654 -0.2439 -2.1362
   29MOL   H26610402   3.708   3.003   4.800 -1.3243  2.2568  2.4726
   29MOL   H26710403   3.912   2.943   4.883 -2.4826 -0.8386 -0.2618
   29MOL   H26810404   3.991   3.091   4.845 -0.3524  1.1254 -0.7731
   29MOL   H26910405   3.774   3.069   5.046 -1.0912  1.5984  0.4151
   29MOL   H27010406   3.843   3.229   4.990  1.2940  0.2470 -1.3443
   29MOL   H27110407   3.931   3.105   5.091  0.0802  2.4148 -0.1958
   29MOL   C27210408   3.869   2.866   4.423 -0.2959  0.3647  0.5399
   29MOL   C27310409   4.016   2.851   4.383 -0.1176  0.3387 -0.1102
   29MOL   C27410410   4.102   2.910   4.499  0.6250 -0.0282 -0.1115
   29MOL   O27510411   4.147   2.841   4.586 -0.5302 -0.1190  0.9638
   29MOL   O27610412   4.122   3.041   4.486  0.0986 -0.5677 -0.2781
   29MOL   C27710413   4.231   3.103   4.558  0.3128 -0.2882  0.4928
   29MOL   C27810414   4.222   3.256   4.541  0.0037 -0.6923 -0.1017
   29MOL   C27910415   4.092   3.317   4.590 -0.1544 -0.5545 -0.4644
   29MOL   H28010416   3.816   2.795   4.359  2.6445 -1.0500 -0.4280
   29MOL   H28110417   3.857   2.822   4.522 -0.9269 -0.2325  0.2093
   29MOL   H28210418   4.041   2.914   4.297 -0.7604 -0.2259 -0.7094
   29MOL   H28310419   4.222   3.087   4.665 -2.8065 -0.9478  0.1805
   29MOL   H28410420   4.329   3.084   4.514 -0.1326 -1.3738 -0.0345
   29MOL   H28510421   4.309   3.304   4.586 -1.4143  0.1234  1.8464
   29MOL   H28610422   4.215   3.272   4.433 -0.2725 -1.5317 -0.2140
   29MOL   H28710423   4.086   3.425   4.599  1.8220 -0.3694 -1.0612
   29MOL   H28810424   4.077   3.281   4.691  0.6484 -0.0983 -0.1726
   29MOL   H28910425   4.009   3.287   4.526 -1.9965  0.8883  1.1764
   29MOL   C29010426   4.057   2.705   4.349 -0.3091  0.2009 -0.2276
   29MOL   C29110427   3.996   2.656   4.214 -0.1155  0.1695 -0.0498
   29MOL   C29210428   4.049   2.749   4.109 -0.9582  0.2718 -0.3216
   29MOL   O29310429   3.974   2.833   4.062  0.0740  0.2534 -0.0634
   29MOL   O29410430   4.174   2.728   4.073  0.0541  0.2145  0.1996
   29MOL   C29510431   4.229   2.817   3.979  0.4409 -0.2176 -0.2946
   29MOL   C29610432   4.185   2.795   3.832 -0.3677 -0.6575  0.3351
   29MOL   C29710433   4.256   2.659   3.794 -0.1555  0.3207  1.0604
   29MOL   H29810434   4.021   2.635   4.424  0.9713  2.2949  2.4291
   29MOL   H29910435   4.165   2.690   4.353 -0.1853  1.0307 -0.2831
   29MOL   H30010436   3.888   2.664   4.222  0.0738  0.9076  2.3379
   29MOL   H30110437   4.199   2.917   4.011 -0.6486 -0.6426  0.0337
   29MOL   H30210438   4.338   2.819   3.989  0.2786  1.3715  1.4219
   29MOL   H30310439   4.077   2.780   3.819 -0.7970  1.0719  1.7131
   29MOL   H30410440   4.215   2.881   3.773 -0.2299 -1.7344 -1.1849
   29MOL   H30510441   4.278   2.656   3.687 -0.2669 -4.9278  1.0585
   29MOL   H30610442   4.201   2.567   3.815  0.5232 -0.8968 -2.1402
   29MOL   H30710443   4.350   2.669   3.848  1.6536  0.4353 -1.9883
   29MOL   C30810444   4.031   2.512   4.184 -0.5348 -0.3575 -0.1964
   29MOL   C30910445   3.930   2.400   4.222 -0.1720 -0.7366  0.1400
   29MOL   C31010446   3.812   2.407   4.123  0.5102  0.7097 -0.0046
   29MOL   O31110447   3.695   2.386   4.166 -1.0164 -0.2093 -0.0573
   29MOL   O31210448   3.839   2.429   3.996 -0.3545 -0.1055  0.1863
   29MOL   C31310449   3.737   2.458   3.907 -0.1196  0.5781  0.8121
   29MOL   C31410450   3.661   2.345   3.835 -0.3789 -0.0633  0.0036
   29MOL   C31510451   3.570   2.396   3.722  0.0143  0.4234  0.6464
   29MOL   H31610452   4.120   2.495   4.245  1.1516  1.2138 -2.1555
   29MOL   H31710453   4.039   2.505   4.076 -1.0162  0.7834 -0.3161
   29MOL   H31810454   3.875   2.422   4.313 -0.6304 -0.3477 -0.2277
   29MOL   H31910455   3.664   2.527   3.948  0.3546  0.3972  1.9745
   29MOL   H32010456   3.787   2.520   3.833 -0.2372  0.2835  0.4843
   29MOL   H32110457   3.738   2.278   3.795  0.2778  2.2058 -2.6899
   29MOL   H32210458   3.608   2.285   3.910 -1.5742  0.6900 -0.2313
   29MOL   H32310459   3.491   2.448   3.777 -0.0583  0.8496  0.1433
   29MOL   H32410460   3.630   2.458   3.655 -1.8283 -0.0323 -1.4748
   29MOL   H32510461   3.529   2.313   3.664  1.4192  0.6636 -0.7310
   29MOL   C32610462   3.990   2.260   4.220  0.6455 -0.3963  0.2475
   29MOL   C32710463   4.050   2.223   4.351 -0.4498 -0.5362  0.7979
   29MOL   C32810464   3.963   2.243   4.471  0.4408  0.1394  0.2183
   29MOL   O32910465   3.984   2.333   4.548 -0.1131 -0.0208  0.5487
   29MOL   O33010466   3.854   2.163   4.477 -0.0207  0.0518 -0.0979
   29MOL   C33110467   3.749   2.190   4.575  0.9047  0.3686  0.0217
   29MOL   C33210468   3.626   2.113   4.532 -0.6275  0.3578 -0.2285
   29MOL   C33310469   3.555   2.177   4.412 -0.1281 -0.1606 -0.1512
   29MOL   H33410470   4.071   2.259   4.147  0.1006  0.3271 -0.3809
   29MOL   H33510471   3.911   2.189   4.192  0.7194 -1.0582  1.7103
   29MOL   H33610472   4.132   2.292   4.368  1.0178 -1.8935 -0.5381
   29MOL   H33710473   3.791   2.166   4.673  0.3638  0.7962  0.3635
   29MOL   H33810474   3.734   2.297   4.587  3.1455  0.7407 -0.2842
   29MOL   H33910475   3.646   2.006   4.527 -1.8678  0.0589  0.7218
   29MOL   H34010476   3.554   2.125   4.614 -1.3615 -2.5554 -0.3936
   29MOL   H34110477   3.618   2.157   4.326  2.7065  0.8431  1.6024
   29MOL   H34210478   3.458   2.128   4.402  0.5927 -1.3667 -1.2462
   29MOL   H34310479   3.538   2.283   4.434  1.9179  0.3635 -0.9736
   29MOL   C34410480   4.131   2.093   4.361 -0.0395 -0.1735  0.0956
   29MOL   C34510481   4.225   2.085   4.486 -0.9990 -0.2299 -0.2959
   29MOL   C34610482   4.284   1.946   4.494 -0.1788 -0.6109 -0.3012
   29MOL   O34710483   4.404   1.928   4.494 -0.0828  0.3345  0.0010
   29MOL   O34810484   4.190   1.844   4.489 -0.0706  0.4179  0.1075
   29MOL   C34910485   4.223   1.707   4.493  0.0917  0.5269  0.2009
   29MOL   C35010486   4.119   1.608   4.444 -0.3930 -0.3032  0.0545
   29MOL   C35110487   4.180   1.468   4.427 -0.4828 -0.5900 -0.7441
   29MOL   H35210488   4.198   2.088   4.275 -0.8371 -1.7074 -0.4528
   29MOL   H35310489   4.070   2.003   4.360 -1.3404  0.6908 -0.6771
   29MOL   H35410490   4.181   2.114   4.582 -0.5686 -1.9820  0.4595
   29MOL   H35510491   4.318   1.692   4.443  0.5878  0.4841  1.1273
   29MOL   H35610492   4.243   1.694   4.600  2.0431  1.3359 -0.0538
   29MOL   H35710493   4.040   1.615   4.519 -0.0491  0.0076  0.3893
   29MOL   H35810494   4.068   1.638   4.353  1.7128  1.4731 -0.5864
   29MOL   H35910495   4.252   1.467   4.345  0.2157  2.3404 -0.2020
   29MOL   H36010496   4.239   1.436   4.512 -0.2403  1.5083 -0.0999
   29MOL   H36110497   4.095   1.400   4.415 -0.1537 -0.9572 -1.0114
   29MOL   H36210498   4.309   2.154   4.472  0.2848 -1.2388  2.0953
   30MOL     C110499   1.345   6.407   0.758  0.0262 -0.7862 -0.4443
   30MOL     C210500   1.203   6.464   0.784 -0.3355  0.1430 -0.9045
   30MOL     C310501   1.140   6.502   0.652  0.4077 -0.0235  0.7534
   30MOL     O410502   1.121   6.620   0.632 -0.4306  0.0698  0.1458
   30MOL     O510503   1.120   6.403   0.572  0.6158  0.4170  0.1055
   30MOL     C610504   1.062   6.410   0.443  0.2540 -0.1757 -0.5823
   30MOL     C710505   1.181   6.402   0.343 -0.2403 -0.0395 -0.7387
   30MOL     C810506   1.242   6.263   0.339  0.0451  0.2726  0.3877
   30MOL     H910507   1.417   6.477   0.715 -0.9989  0.3101 -0.4138
   30MOL    H1010508   1.370   6.362   0.854 -1.6536  1.7121  1.2450
   30MOL    H1110509   1.198   6.557   0.841  0.2878 -0.2609 -0.1651
   30MOL    H1210510   0.988   6.332   0.423  0.2988 -0.9952  2.3365
   30MOL    H1310511   1.015   6.508   0.449  0.8056  0.0176  0.7081
   30MOL    H1410512   1.155   6.429   0.240  0.0241  2.0387 -0.2796
   30MOL    H1510513   1.255   6.478   0.368 -0.6553  0.8359 -2.0781
   30MOL    H1610514   1.276   6.208   0.426  0.5173  0.4780  0.3334
   30MOL    H1710515   1.167   6.196   0.296 -0.4675  0.3052  1.2206
   30MOL    H1810516   1.327   6.256   0.271 -0.5143 -0.6881 -0.2274
   30MOL    H1910517   1.333   6.321   0.692 -2.0116  0.6790 -2.0615
   30MOL    C2010518   1.116   6.357   0.854  0.4086 -0.1119 -0.3819
   30MOL    C2110519   1.110   6.354   1.005  0.1123 -0.6878 -0.0881
   30MOL    C2210520   1.049   6.486   1.058 -0.4308  0.3062  0.3337
   30MOL    O2310521   0.933   6.499   1.086  0.2237  0.1702  0.2942
   30MOL    O2410522   1.138   6.584   1.065  0.2885  0.0929  0.4696
   30MOL    C2510523   1.108   6.700   1.136 -0.0540  0.0034 -0.1076
   30MOL    C2610524   1.207   6.816   1.101 -0.2088  0.0636 -0.1990
   30MOL    C2710525   1.169   6.866   0.955  0.3527  0.4129 -0.1281
   30MOL    H2810526   1.137   6.255   0.820  0.0698 -1.2975  2.7699
   30MOL    H2910527   1.012   6.369   0.825  0.7671  0.5588 -1.3956
   30MOL    H3010528   1.214   6.362   1.036  0.6886 -0.9377 -1.8934
   30MOL    H3110529   1.002   6.729   1.135  0.1331  0.7389  0.8124
   30MOL    H3210530   1.123   6.679   1.241 -2.0029 -1.1916 -0.0456
   30MOL    H3310531   1.188   6.903   1.164  0.9317 -0.9154  1.5300
   30MOL    H3410532   1.312   6.791   1.114 -0.1576  0.5474  0.3281
   30MOL    H3510533   1.220   6.960   0.934  2.6256 -0.4220  1.4673
   30MOL    H3610534   1.062   6.858   0.935  1.0368 -0.9932 -3.5834
   30MOL    H3710535   1.202   6.788   0.887 -2.5460 -2.2613  1.3722
   30MOL    C3810536   1.024   6.234   1.065  0.2320  0.2464 -0.1754
   30MOL    C3910537   1.062   6.180   1.203  0.2345  0.4251  0.6521
   30MOL    C4010538   1.020   6.272   1.314  0.2608 -0.3105  0.0592
   30MOL    O4110539   1.109   6.326   1.388 -0.0570  0.0138 -0.4101
   30MOL    O4210540   0.882   6.285   1.330  0.2267  0.4017 -0.1328
   30MOL    C4310541   0.844   6.354   1.449  0.5807 -0.6454 -0.6123
   30MOL    C4410542   0.700   6.310   1.485  0.4562  0.3028  0.0095
   30MOL    C4510543   0.602   6.375   1.392  0.7775 -0.6663 -0.2836
   30MOL    H4610544   1.034   6.145   1.003  3.9066  1.1662 -1.0295
   30MOL    H4710545   0.918   6.247   1.044  0.1516 -1.1259 -0.7126
   30MOL    H4810546   1.171   6.175   1.205  0.1629 -1.8496  0.6334
   30MOL    H4910547   0.899   6.331   1.540  0.3554 -0.5144 -0.4432
   30MOL    H5010548   0.856   6.461   1.431  3.4707 -1.1421 -1.7934
   30MOL    H5110549   0.693   6.202   1.486  0.6950  0.2959  0.8753
   30MOL    H5210550   0.679   6.353   1.583 -0.2718  4.3481 -1.8051
   30MOL    H5310551   0.636   6.386   1.289  0.9369 -2.7245 -0.4769
   30MOL    H5410552   0.585   6.476   1.431 -2.8556 -0.8734 -1.1505
   30MOL    H5510553   0.507   6.322   1.391 -0.2927  1.0451  2.6113
   30MOL    C5610554   1.010   6.033   1.217  0.3594 -0.1946 -0.3297
   30MOL    C5710555   1.027   5.965   1.355 -0.7128 -0.2826 -0.0452
   30MOL    C5810556   0.967   5.826   1.363  0.3563  0.2941 -0.2131
   30MOL    O5910557   0.851   5.798   1.401  0.3156  0.1174  0.0480
   30MOL    O6010558   1.049   5.732   1.313 -0.2438  0.0304  0.1794
   30MOL    C6110559   0.998   5.595   1.307  0.2260 -0.1782 -0.4314
   30MOL    C6210560   1.003   5.527   1.442  0.3665 -0.2037  1.2613
   30MOL    C6310561   0.994   5.374   1.439  0.6399 -0.8025  0.1614
   30MOL    H6410562   1.077   5.970   1.158  3.5181  2.7202 -0.0330
   30MOL    H6510563   0.906   6.030   1.184 -0.0502  1.5821  0.7619
   30MOL    H6610564   0.967   6.014   1.432  0.2977 -0.0366  0.5867
   30MOL    H6710565   0.903   5.589   1.253 -0.1534 -2.1356  0.4003
   30MOL    H6810566   1.060   5.551   1.229  2.8854  1.8314  0.4864
   30MOL    H6910567   1.096   5.560   1.489  1.0253 -0.0770 -0.1306
   30MOL    H7010568   0.922   5.570   1.501  1.6931  3.3302  0.6202
   30MOL    H7110569   1.015   5.323   1.533  3.5932 -0.1296 -0.0893
   30MOL    H7210570   1.065   5.332   1.368  1.9761  2.8864 -0.7855
   30MOL    H7310571   0.895   5.334   1.413 -0.9118  2.1923  1.1867
   30MOL    C7410572   1.176   5.973   1.406 -0.6260 -0.4568  0.1612
   30MOL    C7510573   1.183   5.991   1.566  0.5834  0.1955  0.5989
   30MOL    C7610574   1.188   5.853   1.641 -1.2286 -0.3733  0.5893
   30MOL    O7710575   1.235   5.752   1.588  0.3521  0.6966  0.2666
   30MOL    O7810576   1.137   5.863   1.761 -0.0989 -0.5444  0.0388
   30MOL    C7910577   1.152   5.758   1.857  0.6901  0.0015  0.6090
   30MOL    C8010578   1.041   5.732   1.957  0.0446  0.1173  0.6026
   30MOL    C8110579   0.914   5.662   1.904 -0.4254  0.0333  0.0596
   30MOL    H8210580   1.224   6.059   1.359  1.2835 -1.1771  0.7503
   30MOL    H8310581   1.236   5.888   1.372 -0.1236 -0.5244  1.1806
   30MOL    H8410582   1.091   6.045   1.591  0.7629  1.0468 -0.5398
   30MOL    H8510583   1.176   5.670   1.796  0.1262 -0.0192  0.4170
   30MOL    H8610584   1.247   5.777   1.906 -0.1177 -0.0225  2.1881
   30MOL    H8710585   1.084   5.686   2.047  0.7987  0.7864  0.5899
   30MOL    H8810586   1.004   5.829   1.988 -1.4334  0.0188 -0.7890
   30MOL    H8910587   0.844   5.724   1.849 -0.0955 -0.5542 -1.0306
   30MOL    H9010588   0.863   5.603   1.980  1.8650 -0.2852  1.4060
   30MOL    H9110589   0.936   5.584   1.831  0.7624 -0.0625  0.5028
   30MOL    C9210590   1.308   6.079   1.617 -0.3709 -0.2583 -0.0257
   30MOL    C9310591   1.328   6.114   1.765  0.8726  0.0726  0.8105
   30MOL    C9410592   1.407   6.013   1.846 -0.0427  0.4797 -0.2810
   30MOL    O9510593   1.388   5.994   1.967 -0.4269 -0.1799 -0.1075
   30MOL    O9610594   1.512   5.962   1.781  0.1702  0.3520  0.2141
   30MOL    C9710595   1.605   5.870   1.842 -0.0517  0.1009  0.0320
   30MOL    C9810596   1.752   5.906   1.812  0.6467  0.1230 -0.4483
   30MOL    C9910597   1.803   6.038   1.864  0.2953 -0.2311  0.1313
   30MOL   H10010598   1.318   6.168   1.554 -1.4751  0.0274  0.1998
   30MOL   H10110599   1.401   6.035   1.582  1.6972  0.9251  3.6585
   30MOL   H10210600   1.231   6.112   1.815  0.9901 -0.7873  1.0070
   30MOL   H10310601   1.593   5.831   1.943  2.3075  1.5240  0.9045
   30MOL   H10410602   1.596   5.785   1.774  0.7808  1.3857 -1.7584
   30MOL   H10510603   1.813   5.825   1.851  0.6122  0.5197  0.4371
   30MOL   H10610604   1.770   5.900   1.705 -0.9809  1.6492 -0.8456
   30MOL   H10710605   1.908   6.052   1.839  0.4735 -1.0558  0.3845
   30MOL   H10810606   1.780   6.045   1.970 -0.5934 -2.2603  0.0948
   30MOL   H10910607   1.756   6.113   1.802  0.6384 -0.6690 -0.6680
   30MOL   C11010608   1.384   6.259   1.793 -0.1800 -0.0900 -0.0899
   30MOL   C11110609   1.287   6.371   1.758  0.0505 -0.8502  0.3282
   30MOL   C11210610   1.172   6.375   1.865 -0.6671 -0.1046 -0.7273
   30MOL   O11310611   1.176   6.300   1.966  0.0630  0.5546  0.1053
   30MOL   O11410612   1.080   6.471   1.843 -0.2062 -0.0589  0.1016
   30MOL   C11510613   0.968   6.482   1.931 -0.1370  0.0130 -0.7487
   30MOL   C11610614   0.865   6.586   1.881 -0.1772 -0.1265 -0.2983
   30MOL   C11710615   0.839   6.581   1.734 -0.2724 -0.3149 -0.0265
   30MOL   H11810616   1.472   6.275   1.731  0.5112 -1.2084  0.5561
   30MOL   H11910617   1.408   6.274   1.899  1.8539  0.3166 -0.5939
   30MOL   H12010618   1.236   6.348   1.665  0.6314 -1.4755  0.1624
   30MOL   H12110619   0.926   6.381   1.928 -1.1371  0.2176  3.3744
   30MOL   H12210620   1.014   6.507   2.026  2.0205 -1.6922 -1.3030
   30MOL   H12310621   0.771   6.569   1.934 -0.0730  1.0694  0.2692
   30MOL   H12410622   0.895   6.684   1.917 -3.0607 -0.3863  3.0096
   30MOL   H12510623   0.788   6.487   1.712  0.0273 -0.7998  1.3203
   30MOL   H12610624   0.940   6.584   1.691  0.1614  2.3888  1.0819
   30MOL   H12710625   0.774   6.660   1.697 -0.8238  0.9156  3.4600
   30MOL   C12810626   1.345   6.514   1.739 -0.4671  0.2017 -0.2122
   30MOL   C12910627   1.386   6.596   1.871 -0.4679 -0.2674  0.3248
   30MOL   C13010628   1.504   6.514   1.935  0.2411 -0.8097  0.8072
   30MOL   O13110629   1.493   6.471   2.054  0.2303  0.0694  1.0184
   30MOL   O13210630   1.615   6.506   1.860 -0.0847 -0.1076  0.0211
   30MOL   C13310631   1.720   6.416   1.891  1.0810 -0.2632  0.6993
   30MOL   C13410632   1.813   6.382   1.768  0.3428  0.3217 -0.2379
   30MOL   C13510633   1.882   6.516   1.729 -0.3470  0.2345 -0.8443
   30MOL   H13610634   1.279   6.578   1.681  0.0389 -0.7424 -1.8646
   30MOL   H13710635   1.435   6.503   1.679 -1.0801 -0.0060 -1.1152
   30MOL   H13810636   1.313   6.597   1.952 -0.6866  0.6000  0.1166
   30MOL   H13910637   1.792   6.455   1.963  1.6701 -0.2278  0.0999
   30MOL   H14010638   1.687   6.327   1.945  0.0622 -0.8759 -0.8982
   30MOL   H14110639   1.882   6.306   1.805 -2.7538 -3.1154 -1.1987
   30MOL   H14210640   1.751   6.355   1.683 -0.3193  0.1017  0.3125
   30MOL   H14310641   1.962   6.492   1.658  0.9011  0.3691  0.4793
   30MOL   H14410642   1.941   6.559   1.811 -2.0897  0.5082  0.2793
   30MOL   H14510643   1.815   6.589   1.683 -2.6212 -0.4224  1.3118
   30MOL   C14610644   1.423   6.744   1.840 -0.4707  0.1422  0.6828
   30MOL   C14710645   1.307   6.847   1.836 -0.4837  0.2607 -0.2326
   30MOL   C14810646   1.241   6.867   1.971  0.4475 -0.6708 -0.3590
   30MOL   O14910647   1.119   6.860   1.985 -0.1476  0.1158 -0.9236
   30MOL   O15010648   1.330   6.907   2.064  0.0736  0.2467 -0.0551
   30MOL   C15110649   1.294   6.947   2.195 -0.6856  0.2909 -0.3448
   30MOL   C15210650   1.365   6.860   2.302 -0.0169 -0.2928  0.9055
   30MOL   C15310651   1.326   6.719   2.304  0.7633 -0.8244  0.1112
   30MOL   H15410652   1.471   6.741   1.742  0.3385 -1.8315  1.1081
   30MOL   H15510653   1.511   6.784   1.890  0.4916  1.2851 -1.8204
   30MOL   H15610654   1.227   6.798   1.780 -1.5976  0.2578  1.3057
   30MOL   H15710655   1.308   7.055   2.194 -1.2653  0.3758  0.0812
   30MOL   H15810656   1.188   6.939   2.218 -0.7302  3.2503  0.5871
   30MOL   H15910657   1.473   6.874   2.294  0.2395 -2.1718  0.8054
   30MOL   H16010658   1.355   6.898   2.404 -0.2621 -0.4308  0.9340
   30MOL   H16110659   1.343   6.671   2.207 -0.0925  1.4384 -1.1889
   30MOL   H16210660   1.220   6.697   2.322  0.0957  1.8664 -0.4156
   30MOL   H16310661   1.361   6.665   2.392  0.0673 -0.7912  0.4175
   30MOL   C16410662   1.344   6.986   1.769 -0.0911 -0.2202  0.0931
   30MOL   C16510663   1.369   6.979   1.616  0.8286 -0.2789 -0.2518
   30MOL   C16610664   1.247   6.974   1.525  0.3455 -0.4237  0.1275
   30MOL   O16710665   1.250   6.932   1.410 -0.0654  0.7742 -0.4563
   30MOL   O16810666   1.130   7.030   1.577 -0.1847  0.2446  0.4696
   30MOL   C16910667   1.014   7.036   1.496 -0.0347  0.5790  0.3549
   30MOL   C17010668   0.918   6.912   1.512  0.5005  0.2545 -0.7537
   30MOL   C17110669   0.940   6.790   1.428  0.6664 -0.0054 -0.0609
   30MOL   H17210670   1.433   7.015   1.825 -0.9199  0.9030  0.8640
   30MOL   H17310671   1.272   7.065   1.789  0.4944  0.1942  0.6141
   30MOL   H17410672   1.414   6.882   1.593 -1.4818 -1.6895  1.0443
   30MOL   H17510673   0.958   7.125   1.525  0.2918  0.6887  0.6576
   30MOL   H17610674   1.038   7.048   1.390 -1.0052  0.7412  0.1534
   30MOL   H17710675   0.920   6.897   1.620  1.3867  0.8455 -0.6803
   30MOL   H17810676   0.816   6.946   1.496 -0.1283 -0.5729  1.2695
   30MOL   H17910677   0.873   6.708   1.457 -1.1972  1.4990 -0.0483
   30MOL   H18010678   1.043   6.757   1.443  0.2680 -1.2197  0.0897
   30MOL   H18110679   0.934   6.820   1.324  0.2039  1.6427  0.4354
   30MOL   C18210680   1.464   7.088   1.566 -0.1432 -0.4823  0.1866
   30MOL   C18310681   1.583   7.055   1.477  0.3091 -0.0487  1.0889
   30MOL   C18410682   1.672   6.957   1.545  0.7235 -0.1876 -0.2721
   30MOL   O18510683   1.673   6.839   1.520  0.2589 -0.3443 -0.1257
   30MOL   O18610684   1.756   7.017   1.630  0.5188 -0.2503 -0.0358
   30MOL   C18710685   1.855   6.939   1.684  0.0209 -0.3740  0.2514
   30MOL   C18810686   1.803   6.844   1.798 -0.7640  0.3984 -0.3829
   30MOL   C18910687   1.762   6.908   1.926  0.6848  0.2384 -0.2531
   30MOL   H19010688   1.507   7.137   1.653  0.6103  0.0316 -0.4736
   30MOL   H19110689   1.410   7.171   1.522  1.0139  0.8265  1.1620
   30MOL   H19210690   1.641   7.147   1.478 -0.4680  0.4469  0.9577
   30MOL   H19310691   1.905   6.882   1.605  0.4261  1.2446 -0.6970
   30MOL   H19410692   1.936   7.005   1.716 -1.0512  1.1441 -0.1242
   30MOL   H19510693   1.724   6.780   1.758  0.3794 -0.9730 -0.4874
   30MOL   H19610694   1.890   6.786   1.828 -1.4380 -1.1845 -1.4011
   30MOL   H19710695   1.737   6.825   1.991 -1.4967  1.4557  0.5195
   30MOL   H19810696   1.671   6.967   1.913  0.1796 -0.6842 -0.9446
   30MOL   H19910697   1.832   6.966   1.986  1.1236 -0.0194 -0.5188
   30MOL   C20010698   1.543   7.012   1.336 -0.7998  0.4793  0.5284
   30MOL   C20110699   1.668   7.008   1.233  0.1504 -0.1689 -0.6513
   30MOL   C20210700   1.603   6.968   1.102  0.4677 -0.1248 -0.1194
   30MOL   O20310701   1.503   7.022   1.057 -0.4756  0.1290 -0.2051
   30MOL   O20410702   1.669   6.866   1.050  0.2571 -0.1372 -0.7831
   30MOL   C20510703   1.641   6.822   0.922 -0.5299  0.2556 -0.1813
   30MOL   C20610704   1.720   6.688   0.901 -0.0256 -0.0593 -0.4045
   30MOL   C20710705   1.645   6.565   0.964 -0.1058 -0.1950  0.2004
   30MOL   H20810706   1.464   7.080   1.305 -0.4862  0.3307 -0.6314
   30MOL   H20910707   1.487   6.918   1.335 -1.4857  0.8720  1.6094
   30MOL   H21010708   1.732   6.924   1.260 -0.4813 -0.0325  1.3488
   30MOL   H21110709   1.535   6.798   0.915 -0.5440  0.1599  0.3410
   30MOL   H21210710   1.652   6.897   0.844 -1.5394  1.0309  0.4161
   30MOL   H21310711   1.749   6.679   0.797 -0.8116 -0.0323 -0.6233
   30MOL   H21410712   1.812   6.683   0.961  0.4718  0.5837 -1.1055
   30MOL   H21510713   1.609   6.578   1.066 -1.5626 -0.6761 -0.2538
   30MOL   H21610714   1.705   6.474   0.962 -0.9110 -0.8078  2.2302
   30MOL   H21710715   1.554   6.533   0.914 -0.5205  0.6289  0.4261
   30MOL   C21810716   1.737   7.143   1.226  0.2082 -0.3972 -0.2660
   30MOL   C21910717   1.860   7.159   1.306 -0.6897  0.1872  0.5419
   30MOL   C22010718   1.976   7.081   1.249  0.1296  1.1547 -0.3055
   30MOL   O22110719   2.024   6.990   1.310  0.1267 -0.7216 -0.0840
   30MOL   O22210720   2.025   7.132   1.135  0.5422 -0.0656  0.1340
   30MOL   C22310721   2.129   7.072   1.065 -0.3517 -0.3770 -0.4394
   30MOL   C22410722   2.189   7.181   0.981  0.5155 -0.2793 -0.3201
   30MOL   C22510723   2.285   7.120   0.881  0.6114  0.1423  0.0173
   30MOL   H22610724   1.670   7.221   1.261  2.2323  0.2569  2.3180
   30MOL   H22710725   1.756   7.176   1.124  1.5318  2.1332  0.7562
   30MOL   H22810726   1.849   7.118   1.406  0.5562  2.4015  1.6224
   30MOL   H22910727   2.204   7.029   1.132 -1.1301  0.1151  0.7609
   30MOL   H23010728   2.097   6.990   1.000 -1.0548  0.3212 -0.9907
   30MOL   H23110729   2.104   7.223   0.927  0.4120  1.0721  0.8770
   30MOL   H23210730   2.223   7.261   1.047 -0.3253 -0.8946  0.8975
   30MOL   H23310731   2.365   7.188   0.851  0.8214 -0.9696 -2.0039
   30MOL   H23410732   2.232   7.102   0.787 -0.0159 -0.5720  0.5130
   30MOL   H23510733   2.339   7.033   0.918  1.0761 -1.0822 -3.3284
   30MOL   C23610734   1.899   7.308   1.327 -0.1394 -0.2264  0.1762
   30MOL   C23710735   1.858   7.370   1.463 -0.1608  0.3016 -0.2456
   30MOL   C23810736   1.943   7.315   1.578 -0.2523  0.6108  0.5034
   30MOL   O23910737   1.897   7.290   1.687  0.5133 -0.5419 -1.2107
   30MOL   O24010738   2.066   7.304   1.542 -0.9603 -0.3191 -0.1401
   30MOL   C24110739   2.170   7.277   1.633  0.3731  0.1660  0.4773
   30MOL   C24210740   2.313   7.278   1.564  0.0856  0.7160 -0.3028
   30MOL   C24310741   2.346   7.169   1.461 -0.2199  0.0058 -0.4135
   30MOL   H24410742   1.845   7.363   1.250 -0.4687 -1.1019 -0.2273
   30MOL   H24510743   2.001   7.335   1.303  0.4308 -0.0150  2.6751
   30MOL   H24610744   1.757   7.336   1.486  0.0014  0.0202  0.0498
   30MOL   H24710745   2.155   7.356   1.707  0.6856 -1.2474  2.0625
   30MOL   H24810746   2.148   7.181   1.679  2.4101  0.0246  1.2097
   30MOL   H24910747   2.315   7.381   1.530  2.2914  0.5335 -0.8004
   30MOL   H25010748   2.370   7.275   1.658  0.8550  0.9422 -0.7577
   30MOL   H25110749   2.369   7.077   1.514 -0.3528  0.3984  0.3397
   30MOL   H25210750   2.442   7.174   1.409  0.4748 -1.7696  0.6394
   30MOL   H25310751   2.259   7.153   1.398 -0.4215  0.0344 -0.1461
   30MOL   C25410752   1.856   7.535   1.469 -0.4396  0.2339 -0.1291
   30MOL   C25510753   1.714   7.586   1.448  0.8826 -0.5212 -0.2184
   30MOL   C25610754   1.620   7.575   1.576  0.0385 -0.5902 -0.1940
   30MOL   O25710755   1.528   7.497   1.583  0.3029  0.5303  0.1976
   30MOL   O25810756   1.662   7.663   1.670 -0.0309 -0.5217  0.1871
   30MOL   C25910757   1.585   7.675   1.785 -0.4599  0.0170  0.0932
   30MOL   C26010758   1.567   7.825   1.800  0.0094  0.6861 -0.1311
   30MOL   C26110759   1.475   7.859   1.919  0.2959  0.1774 -0.2858
   30MOL   H26210760   1.926   7.583   1.402 -0.2516 -0.4936 -0.4592
   30MOL   H26310761   1.890   7.569   1.567 -1.4455  2.8637 -0.6351
   30MOL   H26410762   1.664   7.526   1.372 -0.7797  0.5504  0.0155
   30MOL   H26510763   1.495   7.614   1.780 -0.2850 -0.4504  2.2781
   30MOL   H26610764   1.642   7.645   1.873  1.8677 -2.2281 -2.1225
   30MOL   H26710765   1.667   7.865   1.819  0.2115  0.3382 -0.4392
   30MOL   H26810766   1.529   0.001   1.715 -1.1016  0.4331  0.1863
   30MOL   H26910767   1.478   0.087   1.908 -1.0629  0.1605 -0.8473
   30MOL   H27010768   1.517   7.823   2.013  1.0667  2.0692  0.1064
   30MOL   H27110769   1.369   7.837   1.905 -0.2417  2.6073 -0.2993
   30MOL   C27210770   1.718   7.732   1.385  0.4031 -0.1969 -0.1151
   30MOL   C27310771   1.585   7.777   1.322  0.0543  0.1667  0.3004
   30MOL   C27410772   1.531   0.020   1.395 -0.5904  0.5704  0.1123
   30MOL   O27510773   1.423   0.015   1.451  0.0665 -0.1343  0.7964
   30MOL   O27610774   1.612   0.134   1.399 -0.3364 -0.4470  0.2864
   30MOL   C27710775   1.557   0.246   1.486 -0.3469  0.2819  0.2058
   30MOL   C27810776   1.641   0.377   1.472 -0.2479  0.3527  0.4732
   30MOL   C27910777   1.633   0.438   1.331  0.9973  0.3726  0.5228
   30MOL   H28010778   1.801   7.738   1.314 -0.0064 -0.5707 -0.6324
   30MOL   H28110779   1.755   7.803   1.459  0.7504 -1.0752  0.5641
   30MOL   H28210780   1.510   7.698   1.332 -0.4585  0.3269 -2.0336
   30MOL   H28310781   1.454   0.258   1.451 -0.2026 -2.0565 -1.0870
   30MOL   H28410782   1.563   0.221   1.592 -0.0721  1.5806  0.5118
   30MOL   H28510783   1.610   0.444   1.552 -1.6141 -1.0654  1.1765
   30MOL   H28610784   1.743   0.352   1.503 -1.1137 -2.4333  1.2906
   30MOL   H28710785   1.658   0.544   1.327 -1.8755  1.0601 -0.1460
   30MOL   H28810786   1.535   0.425   1.286  1.7998  1.8361 -1.7056
   30MOL   H28910787   1.702   0.381   1.269 -0.1622  0.0039 -0.4520
   30MOL   C29010788   1.604   7.799   1.172 -0.2576  0.2624  0.1196
   30MOL   C29110789   1.623   7.671   1.091  0.7382  0.0242 -0.0114
   30MOL   C29210790   1.498   7.573   1.107 -0.9602  0.0057 -0.5498
   30MOL   O29310791   1.387   7.606   1.057 -0.1395 -0.2293 -0.0149
   30MOL   O29410792   1.534   7.446   1.141  0.0284 -0.6566 -0.0670
   30MOL   C29510793   1.441   7.343   1.149  0.3965 -0.2257  0.1629
   30MOL   C29610794   1.364   7.341   1.279 -0.5221 -0.6826 -0.2788
   30MOL   C29710795   1.241   7.244   1.263  0.2371  0.0629 -0.5281
   30MOL   H29810796   1.696   7.852   1.148  0.4206 -0.5461  0.8810
   30MOL   H29910797   1.520   7.854   1.129 -0.7030 -0.2588  0.3130
   30MOL   H30010798   1.700   7.620   1.148  0.2752 -2.3968 -1.4660
   30MOL   H30110799   1.373   7.358   1.066 -1.5991 -1.3805  1.5388
   30MOL   H30210800   1.491   7.248   1.130  1.3117  0.3635 -0.3960
   30MOL   H30310801   1.430   7.334   1.365 -0.8977 -0.4090  0.0315
   30MOL   H30410802   1.332   7.443   1.297  1.4839 -0.1269  0.2464
   30MOL   H30510803   1.165   7.306   1.216  0.6035  1.3526  0.5778
   30MOL   H30610804   1.202   7.202   1.356  0.6607  0.9882  0.0733
   30MOL   H30710805   1.259   7.159   1.196 -0.8312 -0.2038 -0.4943
   30MOL   C30810806   1.672   7.710   0.944 -0.3228 -0.2708  0.5784
   30MOL   C30910807   1.760   7.604   0.868 -0.0982 -0.1167 -0.4458
   30MOL   C31010808   1.904   7.608   0.923  0.1013 -0.7205  0.5128
   30MOL   O31110809   1.943   7.536   1.012 -0.2161  0.5427  0.0834
   30MOL   O31210810   1.969   7.713   0.869 -0.1155 -0.4942 -0.1022
   30MOL   C31310811   2.102   7.750   0.911  0.3732  0.3820  0.8745
   30MOL   C31410812   2.128   0.021   0.868  0.4445  0.5164  0.4808
   30MOL   C31510813   2.200   0.043   0.735  0.1033 -0.2699  0.3848
   30MOL   H31610814   1.731   7.801   0.934  1.3615 -1.2856  0.9934
   30MOL   H31710815   1.583   7.728   0.884  0.2378 -1.4409 -0.6381
   30MOL   H31810816   1.771   7.645   0.767  2.2046 -0.2252 -0.2631
   30MOL   H31910817   2.119   7.741   1.018 -0.4644 -1.3817  0.8858
   30MOL   H32010818   2.168   7.684   0.856  2.1255  2.9783 -0.2278
   30MOL   H32110819   2.038   0.082   0.865  0.1073  0.0963  1.6854
   30MOL   H32210820   2.177   0.073   0.951  0.0609 -2.5881  2.7534
   30MOL   H32310821   2.240   0.144   0.746 -1.2267  0.0958  2.1466
   30MOL   H32410822   2.286   7.860   0.713  0.8121  1.0295 -0.6704
   30MOL   H32510823   2.126   0.044   0.655  0.8261  0.0188 -0.2918
   30MOL   C32610824   1.708   7.456   0.858  0.0322 -0.0532  0.2287
   30MOL   C32710825   1.564   7.442   0.797  0.8234 -0.4360 -0.7040
   30MOL   C32810826   1.545   7.496   0.650 -0.6821  0.4351  0.0924
   30MOL   O32910827   1.479   7.593   0.633  0.1892 -0.0402 -0.6321
   30MOL   O33010828   1.607   7.417   0.556  0.4185 -0.1610 -0.3187
   30MOL   C33110829   1.611   7.451   0.419 -1.2325 -0.2599  0.2338
   30MOL   C33210830   1.508   7.360   0.348  0.3312  0.0674  0.0979
   30MOL   C33310831   1.373   7.425   0.329  0.0353 -0.5817  0.4549
   30MOL   H33410832   1.709   7.427   0.964 -0.3838 -1.2468 -0.0819
   30MOL   H33510833   1.779   7.386   0.815  1.2574  2.1118 -1.3806
   30MOL   H33610834   1.502   7.508   0.858 -0.0503 -2.9229  1.1881
   30MOL   H33710835   1.570   7.552   0.409  1.0563  0.5417 -1.8731
   30MOL   H33810836   1.705   7.448   0.363 -1.7104 -1.8704 -0.4961
   30MOL   H33910837   1.538   7.320   0.251  0.6595 -0.4321  0.4027
   30MOL   H34010838   1.478   7.274   0.409  1.0536  1.4671  2.4727
   30MOL   H34110839   1.313   7.438   0.420 -0.4467 -1.5744  0.2891
   30MOL   H34210840   1.386   7.524   0.286 -1.2117 -0.3227  0.6508
   30MOL   H34310841   1.308   7.369   0.262 -0.0775 -0.2526  0.2872
   30MOL   C34410842   1.519   7.294   0.822 -0.1178 -0.7171  0.3383
   30MOL   C34510843   1.381   7.256   0.774 -0.3074 -0.1140 -0.1989
   30MOL   C34610844   1.258   7.340   0.827 -0.4510  0.6520  0.3954
   30MOL   O34710845   1.163   7.277   0.883 -0.0516  0.3204 -0.3471
   30MOL   O34810846   1.261   7.470   0.792  0.1244  0.8173 -0.7837
   30MOL   C34910847   1.154   7.554   0.825 -0.2298 -0.0996 -0.8935
   30MOL   C35010848   1.178   7.684   0.748 -0.0054  0.5595 -0.0913
   30MOL   C35110849   1.158   7.667   0.599 -0.1886  0.2724 -0.1256
   30MOL   H35210850   1.530   7.264   0.926 -3.0182  0.7677  1.1120
   30MOL   H35310851   1.585   7.231   0.763  0.6450 -3.1228  3.6281
   30MOL   H35410852   1.360   7.155   0.809  0.4534  0.5036  2.1539
   30MOL   H35510853   1.060   7.504   0.803 -0.5783 -0.3411  1.0829
   30MOL   H35610854   1.165   7.574   0.931 -3.2926 -1.6836 -0.2291
   30MOL   H35710855   1.113   7.764   0.783 -1.6358 -1.2751  1.2109
   30MOL   H35810856   1.276   7.731   0.760  0.4906 -0.4236 -0.3005
   30MOL   H35910857   1.098   7.581   0.570 -2.9812  2.3335 -0.7039
   30MOL   H36010858   1.104   7.756   0.566 -1.9937  1.0535  4.5920
   30MOL   H36110859   1.254   7.665   0.547 -0.7122 -0.5111 -1.0827
   30MOL   H36210860   1.383   7.274   0.667  0.8364  4.4550  0.5137
   31MOL     C110861   1.577   1.754   7.074 -0.2644  0.2668  0.7435
   31MOL     C210862   1.649   1.616   7.075  0.6870 -0.4630  0.6961
   31MOL     C310863   1.740   1.591   6.953  0.3543 -0.5544  0.3652
   31MOL     O410864   1.849   1.640   6.949 -0.3805  0.2986 -0.0322
   31MOL     O510865   1.686   1.502   6.867 -0.5506  0.4787  0.1356
   31MOL     C610866   1.753   1.472   6.740  0.0429  0.5236 -0.1064
   31MOL     C710867   1.848   1.354   6.741 -0.1155 -0.6088 -0.2642
   31MOL     C810868   1.788   1.216   6.778 -0.4859  0.6981  0.2987
   31MOL     H910869   1.507   1.771   6.992 -0.4815 -0.3264  0.8016
   31MOL    H1010870   1.514   1.762   7.163 -0.8967 -1.4655  0.4826
   31MOL    H1110871   1.577   1.533   7.076  2.0699 -1.7624 -2.0491
   31MOL    H1210872   1.678   1.443   6.667  0.0801 -0.0238  0.0712
   31MOL    H1310873   1.784   1.565   6.692  0.5242 -0.0034 -0.8308
   31MOL    H1410874   1.906   1.355   6.649  0.7660 -2.1381  0.2403
   31MOL    H1510875   1.924   1.378   6.816  1.1071 -0.9523 -1.3867
   31MOL    H1610876   1.728   1.230   6.868 -2.3000  0.6588 -0.8806
   31MOL    H1710877   1.716   1.176   6.706  0.0022  0.6304 -0.1535
   31MOL    H1810878   1.856   1.132   6.786 -0.7753 -0.0435 -3.8358
   31MOL    H1910879   1.653   1.831   7.077 -1.2705  1.2509  1.2131
   31MOL    C2010880   1.719   1.590   7.205  0.9751 -0.0885  0.2510
   31MOL    C2110881   1.809   1.465   7.214 -0.7522  0.0052 -0.2107
   31MOL    C2210882   1.896   1.479   7.337 -0.1458  0.2771 -0.3217
   31MOL    O2310883   1.862   1.457   7.448 -0.3435 -0.2451  0.6969
   31MOL    O2410884   2.018   1.531   7.306 -0.1712  0.1678  0.3479
   31MOL    C2510885   2.108   1.585   7.408 -0.3840 -0.2569 -0.2449
   31MOL    C2610886   2.224   1.656   7.333 -0.6606 -0.5888  0.1233
   31MOL    C2710887   2.194   1.774   7.241 -0.1104 -0.0940  0.8422
   31MOL    H2810888   1.638   1.583   7.278  0.2282  1.5088 -0.3867
   31MOL    H2910889   1.768   1.682   7.239 -0.2157  1.3387 -1.8161
   31MOL    H3010890   1.881   1.464   7.133  1.6403 -0.4001  1.8529
   31MOL    H3110891   2.057   1.642   7.485  1.0366 -0.9599  1.2429
   31MOL    H3210892   2.153   1.513   7.476 -0.0308  1.0650  0.9558
   31MOL    H3310893   2.284   1.703   7.411 -0.7467  0.1412 -0.2522
   31MOL    H3410894   2.285   1.585   7.278  0.0008 -0.7868  1.1015
   31MOL    H3510895   2.262   1.789   7.157 -0.3591 -0.2631  0.6106
   31MOL    H3610896   2.186   1.867   7.297 -0.3206  1.4339 -1.6425
   31MOL    H3710897   2.103   1.749   7.187  0.8229 -1.6221 -0.0558
   31MOL    C3810898   1.727   1.340   7.206 -0.4572 -0.5083 -0.2413
   31MOL    C3910899   1.805   1.207   7.234 -0.2952  0.0967 -0.2195
   31MOL    C4010900   1.703   1.095   7.245 -0.2827 -0.0305  0.3523
   31MOL    O4110901   1.663   1.055   7.353 -1.0115  0.7608 -0.3755
   31MOL    O4210902   1.660   1.055   7.131 -0.3462  0.4350  0.7301
   31MOL    C4310903   1.545   0.974   7.120  0.4641 -0.2493 -0.3237
   31MOL    C4410904   1.516   0.974   6.973  1.0459  1.0020 -0.5546
   31MOL    C4510905   1.613   0.885   6.899  0.1226  0.2780 -0.1444
   31MOL    H4610906   1.687   1.334   7.104 -1.8810  1.4850  0.1659
   31MOL    H4710907   1.640   1.341   7.271 -0.0662 -2.2905  0.3370
   31MOL    H4810908   1.859   1.218   7.328 -1.0641 -1.4794  0.4327
   31MOL    H4910909   1.559   0.874   7.160 -1.0311 -0.6284 -0.7153
   31MOL    H5010910   1.469   1.029   7.175  1.8071  0.9623  0.3654
   31MOL    H5110911   1.417   0.933   6.952  1.0589  0.2368  0.8588
   31MOL    H5210912   1.507   1.074   6.930 -0.4308  1.1632  0.0857
   31MOL    H5310913   1.615   0.776   6.907  0.8030  0.1698 -1.8191
   31MOL    H5410914   1.715   0.912   6.926  1.0097 -2.1940 -0.9418
   31MOL    H5510915   1.606   0.907   6.793 -0.4630  1.6654  0.1661
   31MOL    C5610916   1.915   1.177   7.128 -0.1672 -0.5144 -0.0063
   31MOL    C5710917   2.069   1.207   7.157  0.3183 -0.3085 -0.2545
   31MOL    C5810918   2.118   1.145   7.291 -0.3257 -0.3113 -0.1300
   31MOL    O5910919   2.147   1.220   7.390 -0.0864 -0.3555  0.1149
   31MOL    O6010920   2.136   1.008   7.295 -0.2597  0.0602  0.0692
   31MOL    C6110921   2.177   0.939   7.410  0.5358 -0.7075 -0.2764
   31MOL    C6210922   2.327   0.973   7.436 -0.2051 -0.0026 -0.4154
   31MOL    C6310923   2.408   0.896   7.329 -0.5390  0.0194  0.0310
   31MOL    H6410924   1.877   1.211   7.032 -0.0750 -0.6013 -0.0744
   31MOL    H6510925   1.916   1.069   7.109 -1.6246 -0.6163  0.4577
   31MOL    H6610926   2.080   1.314   7.174  1.6563 -0.5253  0.3114
   31MOL    H6710927   2.111   0.962   7.493  0.8885  1.6696 -0.5942
   31MOL    H6810928   2.156   0.836   7.384  1.5745 -1.5715  2.1960
   31MOL    H6910929   2.350   1.080   7.441  0.8221 -0.2703  1.0328
   31MOL    H7010930   2.345   0.935   7.537 -2.1751  0.9597  0.3379
   31MOL    H7110931   2.387   0.790   7.338 -0.9094  0.1187  0.3979
   31MOL    H7210932   2.514   0.907   7.350 -0.3997 -1.1474 -0.0277
   31MOL    H7310933   2.388   0.942   7.232  1.7490  0.5195 -0.2304
   31MOL    C7410934   2.155   1.165   7.038  0.3734  0.1812 -0.4445
   31MOL    C7510935   2.309   1.184   7.055  0.8887  0.0576  0.0875
   31MOL    C7610936   2.384   1.097   6.952 -0.0313  0.9842  0.0664
   31MOL    O7710937   2.466   1.016   6.994 -0.1485 -0.1460 -0.0085
   31MOL    O7810938   2.351   1.125   6.825  0.2008 -0.0814 -0.8705
   31MOL    C7910939   2.410   1.050   6.713 -0.8097  0.3770 -0.0291
   31MOL    C8010940   2.562   1.091   6.703  0.0107 -0.1978  0.3476
   31MOL    C8110941   2.642   1.001   6.609  0.6611 -0.1966 -0.3585
   31MOL    H8210942   2.127   1.217   6.946  1.1712 -1.6225 -1.7368
   31MOL    H8310943   2.125   1.062   7.019 -2.3734  0.8981 -0.2134
   31MOL    H8410944   2.331   1.142   7.153  0.7328 -0.2505 -0.0107
   31MOL    H8510945   2.407   0.945   6.743  0.4560  0.6143  0.9688
   31MOL    H8610946   2.354   1.066   6.621  0.2552  0.1649 -0.7238
   31MOL    H8710947   2.572   1.192   6.663 -0.8789 -0.4973 -0.6494
   31MOL    H8810948   2.615   1.083   6.798 -0.1332  0.2132  0.4627
   31MOL    H8910949   2.741   1.045   6.594  0.1268  0.8406 -0.8689
   31MOL    H9010950   2.594   1.015   6.512 -0.0856 -0.1661  0.0104
   31MOL    H9110951   2.646   0.895   6.632  0.4322 -0.1822 -0.2452
   31MOL    C9210952   2.352   1.328   7.068  0.5256 -0.5209  0.1730
   31MOL    C9310953   2.505   1.349   7.091  0.3037  0.5117  0.5256
   31MOL    C9410954   2.563   1.493   7.092  0.1608  0.0130  0.1569
   31MOL    O9510955   2.635   1.532   7.004 -0.3393  0.2451  0.2354
   31MOL    O9610956   2.523   1.577   7.191 -0.4824  0.3389 -0.6757
   31MOL    C9710957   2.567   1.711   7.217  0.1639 -0.0084  0.7610
   31MOL    C9810958   2.697   1.697   7.302  0.0857  0.6514  0.0511
   31MOL    C9910959   2.677   1.622   7.438 -0.0627 -0.3223  0.1018
   31MOL   H10010960   2.294   1.381   7.144  0.6746 -0.5506  0.3078
   31MOL   H10110961   2.325   1.366   6.969 -0.0697  0.3450  0.6597
   31MOL   H10210962   2.549   1.301   7.004 -2.0828  2.5271 -1.8706
   31MOL   H10310963   2.603   1.760   7.127  1.1372 -0.1619  1.0545
   31MOL   H10410964   2.494   1.768   7.275  1.6543  1.8533  0.8534
   31MOL   H10510965   2.774   1.646   7.243  2.1057  1.6512  1.7881
   31MOL   H10610966   2.727   1.798   7.329 -0.4949  0.9474 -0.3973
   31MOL   H10710967   2.767   1.630   7.499  1.0142 -1.0464 -1.3556
   31MOL   H10810968   2.656   1.515   7.429 -0.9902 -0.1590  0.2791
   31MOL   H10910969   2.594   1.661   7.497  0.8327  0.9643  0.5317
   31MOL   C11010970   2.560   1.265   7.203 -0.4367 -0.5739 -0.3803
   31MOL   C11110971   2.715   1.283   7.233 -1.1155 -0.4495 -0.2201
   31MOL   C11210972   2.755   1.222   7.372 -0.9413 -0.0886 -0.1933
   31MOL   O11310973   2.687   1.134   7.428  0.3840 -0.2326  0.0113
   31MOL   O11410974   2.865   1.278   7.417 -0.1626  0.7108  0.5806
   31MOL   C11510975   2.923   1.225   7.531 -0.2821 -0.6940 -0.0188
   31MOL   C11610976   3.033   1.320   7.594  0.3789 -0.2497 -0.6570
   31MOL   C11710977   2.986   1.462   7.622  0.4558  0.9186 -0.4712
   31MOL   H11810978   2.539   1.159   7.195  1.3100 -0.9829  0.2205
   31MOL   H11910979   2.503   1.279   7.295 -0.1383  0.6027 -0.3597
   31MOL   H12010980   2.745   1.388   7.234 -0.2930 -0.6729 -0.6988
   31MOL   H12110981   2.844   1.221   7.606  0.4155 -1.0804  0.6973
   31MOL   H12210982   2.948   1.121   7.513 -1.1493 -1.3737  2.4448
   31MOL   H12310983   3.078   1.282   7.685 -2.0506  0.0219  0.7079
   31MOL   H12410984   3.115   1.321   7.522  1.2589 -0.1088  0.3349
   31MOL   H12510985   2.929   1.506   7.540  1.3223  1.6725 -0.6681
   31MOL   H12610986   3.066   1.531   7.645  0.6485  0.0695  1.5070
   31MOL   H12710987   2.927   1.454   7.713 -1.3234  0.8428 -1.6029
   31MOL   C12810988   2.795   1.212   7.115  0.1340 -0.3254 -0.2250
   31MOL   C12910989   2.941   1.256   7.104  0.5840  0.0602 -0.4248
   31MOL   C13010990   3.028   1.144   7.046  0.4354 -0.3308 -0.3464
   31MOL   O13110991   3.112   1.078   7.114 -0.2903  0.4173  0.0410
   31MOL   O13210992   2.991   1.108   6.925  0.2595 -0.4127 -0.1021
   31MOL   C13310993   3.044   0.993   6.856 -0.2269  0.1640  0.5000
   31MOL   C13410994   2.976   0.953   6.725  0.3282  0.0163  0.2775
   31MOL   C13510995   3.034   0.828   6.650  0.0794  0.0134 -0.0311
   31MOL   H13610996   2.753   1.229   7.016  2.2062  0.4974 -0.9932
   31MOL   H13710997   2.786   1.105   7.129  0.2118 -0.2606  0.3690
   31MOL   H13810998   2.963   1.271   7.210 -1.8093 -0.5124  0.1862
   31MOL   H13910999   3.151   0.999   6.834  0.4304 -1.5972  2.9677
   31MOL   H14011000   3.036   0.908   6.923  1.4307 -1.7257 -1.6310
   31MOL   H14111001   2.873   0.929   6.754 -0.3924  0.8459 -1.4927
   31MOL   H14211002   2.969   1.031   6.648 -1.4336 -1.4811 -1.1369
   31MOL   H14311003   3.143   0.832   6.658  0.2448 -2.8311 -0.2311
   31MOL   H14411004   3.001   0.840   6.547 -0.7615 -0.8684  0.1200
   31MOL   H14511005   2.993   0.734   6.688  2.2851 -1.2808 -0.7748
   31MOL   C14611006   2.952   1.398   7.048  0.0676  0.1472 -0.0190
   31MOL   C14711007   3.092   1.460   7.070 -0.4505  0.0806 -0.0589
   31MOL   C14811008   3.121   1.582   6.989  0.0378  0.1708 -0.9057
   31MOL   O14911009   3.210   1.593   6.905 -0.2718  0.0895 -0.6830
   31MOL   O15011010   3.041   1.686   7.033  0.4059 -0.3170  0.1493
   31MOL   C15111011   3.062   1.816   6.972  0.0036 -0.3095 -0.6017
   31MOL   C15211012   2.967   1.913   7.042 -0.2798  0.0228  0.1467
   31MOL   C15311013   2.985   1.930   7.193  0.2827  0.2358 -0.2603
   31MOL   H15411014   2.881   1.458   7.105  0.7884  0.3899  0.6315
   31MOL   H15511015   2.926   1.409   6.942  0.2986  0.9696  0.0069
   31MOL   H15611016   3.158   1.383   7.029  0.2665 -0.0119  1.2342
   31MOL   H15711017   3.160   1.856   6.996 -0.0109 -0.7943  0.2776
   31MOL   H15811018   3.049   1.808   6.864  0.7677  1.2304 -0.8174
   31MOL   H15911019   2.999   2.011   7.008  1.3073 -0.2270  0.9067
   31MOL   H16011020   2.859   1.904   7.029 -0.1551 -0.2617 -0.7280
   31MOL   H16111021   2.983   1.834   7.244 -2.8190  0.6891  0.5870
   31MOL   H16211022   2.914   2.000   7.237 -0.8844 -1.6957  0.9990
   31MOL   H16311023   3.081   1.978   7.209  0.3486  0.1917 -0.5289
   31MOL   C16411024   3.122   1.482   7.228 -0.5502  0.0104  0.2434
   31MOL   C16511025   3.265   1.503   7.267  0.4022  0.8783  0.0250
   31MOL   C16611026   3.291   1.581   7.390 -0.7879 -0.5244 -0.0787
   31MOL   O16711027   3.368   1.540   7.476  0.4204 -0.2329 -0.2821
   31MOL   O16811028   3.232   1.704   7.404 -0.2222  0.2799  0.0588
   31MOL   C16911029   3.267   1.790   7.521 -0.5087  1.0218  0.8438
   31MOL   C17011030   3.167   1.900   7.541 -0.3745  0.0881  0.6243
   31MOL   C17111031   3.027   1.838   7.567  0.2222 -0.0403  0.4501
   31MOL   H17211032   3.077   1.404   7.290 -2.2072 -0.5606 -1.6543
   31MOL   H17311033   3.076   1.573   7.266  0.9665 -0.2047  2.7165
   31MOL   H17411034   3.311   1.561   7.187  2.7796 -2.1590 -0.8740
   31MOL   H17511035   3.276   1.732   7.613  0.5831 -0.9745 -0.4811
   31MOL   H17611036   3.363   1.827   7.484 -0.6623  0.2587 -0.3280
   31MOL   H17711037   3.196   1.949   7.634 -0.4538  1.3240  0.0047
   31MOL   H17811038   3.180   1.982   7.471  0.0897  0.6631  1.3646
   31MOL   H17911039   2.947   1.912   7.576  1.9352  2.1574 -1.8497
   31MOL   H18011040   3.035   1.786   7.662 -0.0334  1.4955  1.3151
   31MOL   H18111041   3.007   1.775   7.480 -1.9228  0.8436  0.2797
   31MOL   C18211042   3.325   1.356   7.274 -0.0062  0.5818 -0.2750
   31MOL   C18311043   3.478   1.330   7.284  0.2583  0.3806  0.3149
   31MOL   C18411044   3.509   1.186   7.333  0.4833 -0.0067 -0.9560
   31MOL   O18511045   3.531   1.157   7.449  0.3822 -0.0729 -0.0855
   31MOL   O18611046   3.506   1.097   7.233  0.0014 -0.8636  0.0580
   31MOL   C18711047   3.555   0.965   7.261 -0.1724  0.0376 -0.5068
   31MOL   C18811048   3.530   0.877   7.136  0.1831 -0.3617 -0.7704
   31MOL   C18911049   3.552   0.735   7.154  0.0742 -0.1722 -0.2243
   31MOL   H19011050   3.290   1.295   7.191 -1.5897 -0.1705  0.9079
   31MOL   H19111051   3.279   1.309   7.361  1.5484 -2.6548 -1.1286
   31MOL   H19211052   3.528   1.390   7.360 -0.1999  0.9701  0.1581
   31MOL   H19311053   3.660   0.962   7.291  0.4001  1.5809 -2.2860
   31MOL   H19411054   3.495   0.938   7.348 -0.1646  1.7550  0.0536
   31MOL   H19511055   3.433   0.903   7.093 -0.7688 -1.8514  0.3976
   31MOL   H19611056   3.593   0.924   7.061  0.7893  1.7904  1.0446
   31MOL   H19711057   3.540   0.689   7.056 -1.0502  0.0961 -0.2239
   31MOL   H19811058   3.479   0.704   7.230 -0.9618 -0.1653 -1.1976
   31MOL   H19911059   3.654   0.709   7.182  0.2157  0.6394  0.0348
   31MOL   C20011060   3.557   1.362   7.154  0.0239 -0.8446  0.1230
   31MOL   C20111061   3.575   1.509   7.116 -0.0327  0.5887  0.8767
   31MOL   C20211062   3.710   1.571   7.160  0.0436  0.2422 -0.4317
   31MOL   O20311063   3.809   1.497   7.182 -0.3340 -0.3930 -0.0570
   31MOL   O20411064   3.700   1.702   7.163  0.0901  0.3998  0.0359
   31MOL   C20511065   3.805   1.784   7.216  0.9507  0.0705 -0.0235
   31MOL   C20611066   3.755   1.920   7.214  0.1819  0.4692  0.3281
   31MOL   C20711067   3.616   1.939   7.290 -0.2792  0.0325 -0.5006
   31MOL   H20811068   3.499   1.319   7.072  0.5377 -1.8654  0.2846
   31MOL   H20911069   3.648   1.302   7.151  2.8455  3.1681  1.2769
   31MOL   H21011070   3.509   1.571   7.176 -0.0706  2.7334 -1.2659
   31MOL   H21111071   3.848   1.757   7.313 -0.3618  1.9212  1.1214
   31MOL   H21211072   3.886   1.778   7.144 -0.0029  0.5474 -1.1593
   31MOL   H21311073   3.835   1.988   7.241  0.2031 -0.4963  2.7773
   31MOL   H21411074   3.744   1.934   7.106  2.7594 -2.0011 -0.3001
   31MOL   H21511075   3.540   1.877   7.243 -0.8556  0.5882 -0.3069
   31MOL   H21611076   3.581   2.042   7.286  0.1652  0.3307  2.4167
   31MOL   H21711077   3.629   1.908   7.394  2.7850 -1.1793 -1.1809
   31MOL   C21811078   3.544   1.537   6.961  0.0822 -0.3137 -0.4652
   31MOL   C21911079   3.644   1.507   6.845  0.0269 -0.1153 -0.3370
   31MOL   C22011080   3.681   1.357   6.849 -1.2220 -0.2141  0.9318
   31MOL   O22111081   3.799   1.316   6.864  0.6277 -0.4089  0.6305
   31MOL   O22211082   3.575   1.287   6.827 -0.0529 -0.0251  0.1821
   31MOL   C22311083   3.578   1.147   6.800  0.0481 -0.1282 -0.7762
   31MOL   C22411084   3.438   1.089   6.778 -0.7631 -0.1190  0.1996
   31MOL   C22511085   3.375   1.130   6.641 -0.2658 -0.2220  0.6366
   31MOL   H22611086   3.521   1.643   6.948 -2.5497 -0.5798  1.5037
   31MOL   H22711087   3.447   1.494   6.941 -0.3254 -0.3114  1.3777
   31MOL   H22811088   3.738   1.557   6.868  0.7818 -1.6019 -0.1214
   31MOL   H22911089   3.626   1.134   6.703  1.1594  0.2892 -0.2931
   31MOL   H23011090   3.630   1.089   6.876  1.8465  0.4948 -1.4992
   31MOL   H23111091   3.445   0.982   6.798  1.7167  0.0818  0.4913
   31MOL   H23211092   3.375   1.119   6.862 -1.6530 -1.6225  0.0977
   31MOL   H23311093   3.414   1.077   6.554  0.8334  1.3296  0.1800
   31MOL   H23411094   3.382   1.238   6.632  0.9797 -0.4457 -1.5353
   31MOL   H23511095   3.266   1.122   6.639 -0.3548  0.8652 -1.7881
   31MOL   C23611096   3.605   1.555   6.712  0.3919 -0.2944 -0.6790
   31MOL   C23711097   3.710   1.600   6.613 -0.0742  0.0100 -0.4788
   31MOL   C23811098   3.792   1.725   6.663  0.0254  0.9668 -0.5456
   31MOL   O23911099   3.759   1.839   6.634  0.6435  0.2599 -0.1066
   31MOL   O24011100   3.896   1.696   6.747  0.8806 -0.5904 -0.2180
   31MOL   C24111101   3.989   1.800   6.778  0.8326  0.0834 -0.3262
   31MOL   C24211102   4.082   1.757   6.887  0.1488 -0.2528 -0.0674
   31MOL   C24311103   4.174   1.875   6.931 -0.2430  0.1839 -0.3839
   31MOL   H24411104   3.543   1.643   6.726 -0.4854 -0.9701 -0.2482
   31MOL   H24511105   3.536   1.489   6.658  1.1070 -0.6557 -1.1671
   31MOL   H24611106   3.653   1.624   6.523 -1.5799  2.9104  1.1625
   31MOL   H24711107   4.042   1.832   6.689  1.2404 -0.9750 -0.4706
   31MOL   H24811108   3.920   1.876   6.815  2.7834 -0.0159  3.8680
   31MOL   H24911109   4.029   1.713   6.972 -2.7343  1.8441 -0.7170
   31MOL   H25011110   4.139   1.679   6.838 -0.3519 -0.6637  0.0065
   31MOL   H25111111   4.225   1.911   6.842 -2.7476  0.1580 -1.8895
   31MOL   H25211112   4.255   1.847   6.998 -0.0971  0.6603 -0.3606
   31MOL   H25311113   4.116   1.957   6.972 -1.7558 -0.6763 -0.7564
   31MOL   C25411114   3.808   1.492   6.563  0.0104 -0.0090  0.2191
   31MOL   C25511115   3.882   1.529   6.431  0.7331 -0.4395 -0.2406
   31MOL   C25611116   4.033   1.500   6.450  0.2199  1.2715  0.0902
   31MOL   O25711117   4.115   1.587   6.481 -0.5546 -0.0059 -0.1342
   31MOL   O25811118   4.076   1.373   6.424  0.0140  0.3241 -0.1055
   31MOL   C25911119   4.218   1.345   6.417 -0.2269 -0.5785 -0.2596
   31MOL   C26011120   4.273   1.365   6.270  0.0363 -0.3491 -0.4045
   31MOL   C26111121   4.301   1.508   6.239  0.3827  0.4921 -0.1286
   31MOL   H26211122   3.751   1.403   6.538 -1.2172  0.5484  1.0174
   31MOL   H26311123   3.882   1.479   6.642  0.1154 -0.7574  0.0038
   31MOL   H26411124   3.878   1.634   6.404  2.0813 -0.9518 -2.6418
   31MOL   H26511125   4.273   1.408   6.486 -0.5970 -0.8290  0.2737
   31MOL   H26611126   4.227   1.238   6.438  0.9912 -0.5850 -0.8004
   31MOL   H26711127   4.358   1.309   6.231 -1.3190 -1.4980 -1.7714
   31MOL   H26811128   4.195   1.332   6.201 -1.9046  0.2883  1.4141
   31MOL   H26911129   4.207   1.561   6.226 -0.5145 -1.1301 -0.4239
   31MOL   H27011130   4.346   1.507   6.140 -1.1493 -0.5197 -0.8424
   31MOL   H27111131   4.360   1.565   6.312 -1.9791  2.0256  0.6339
   31MOL   C27211132   3.812   1.457   6.317  0.3243  0.0809 -0.1341
   31MOL   C27311133   3.842   1.491   6.166  0.1442  0.4481  0.2992
   31MOL   C27411134   3.808   1.369   6.083 -0.3228 -0.4341 -0.9812
   31MOL   O27511135   3.893   1.279   6.057 -0.1053 -0.3942  0.0034
   31MOL   O27611136   3.675   1.364   6.050 -0.1584 -0.2963  0.0403
   31MOL   C27711137   3.620   1.281   5.944  0.0666  0.3594 -0.4243
   31MOL   C27811138   3.515   1.368   5.868  0.1768  0.3047 -0.0209
   31MOL   C27911139   3.458   1.304   5.740 -0.7672 -0.2380 -0.3284
   31MOL   H28011140   3.704   1.465   6.333  0.4506 -0.1606  0.8683
   31MOL   H28111141   3.818   1.350   6.332  2.0474 -0.0924 -1.9477
   31MOL   H28211142   3.948   1.517   6.163  0.5452 -1.1387  0.4067
   31MOL   H28311143   3.702   1.253   5.877  0.6490  2.1217 -0.4784
   31MOL   H28411144   3.574   1.203   6.005  1.6321 -0.8956 -0.8095
   31MOL   H28511145   3.443   1.416   5.935 -0.5776 -2.5722  1.2930
   31MOL   H28611146   3.575   1.450   5.829  0.5431 -0.4088 -0.9463
   31MOL   H28711147   3.409   1.381   5.679  0.8145 -0.8565 -2.4493
   31MOL   H28811148   3.390   1.219   5.746 -2.9465  1.4370 -0.4211
   31MOL   H28911149   3.538   1.279   5.671 -0.3627  1.3413 -0.4436
   31MOL   C29011150   3.770   1.614   6.104 -0.2394  0.2835  0.2539
   31MOL   C29111151   3.788   1.757   6.162 -0.5200  0.1071  1.1769
   31MOL   C29211152   3.940   1.796   6.154  0.4288  0.0448 -0.5200
   31MOL   O29311153   4.009   1.771   6.058 -0.1897  0.3775  0.5071
   31MOL   O29411154   3.969   1.870   6.264 -0.3100  0.3243 -0.3207
   31MOL   C29511155   4.105   1.893   6.297 -0.2157 -0.0812  0.6745
   31MOL   C29611156   4.102   1.994   6.411  0.0284  0.3891 -0.0333
   31MOL   C29711157   4.046   2.135   6.378 -0.1308  0.3895  0.4019
   31MOL   H29811158   3.661   1.600   6.107 -0.1314 -0.8074 -0.6008
   31MOL   H29911159   3.806   1.621   6.002  1.6202  2.3575  1.0183
   31MOL   H30011160   3.773   1.753   6.270 -3.6055  0.9212  0.8012
   31MOL   H30111161   4.172   1.810   6.320  1.1859  0.5955 -0.8814
   31MOL   H30211162   4.148   1.939   6.208  0.2785 -3.4168 -0.8879
   31MOL   H30311163   4.054   1.938   6.491 -0.9687 -1.8935 -2.1551
   31MOL   H30411164   4.206   2.011   6.441  0.1931  0.7807 -0.8025
   31MOL   H30511165   4.073   2.196   6.464 -1.4327  0.2719  0.9036
   31MOL   H30611166   3.938   2.143   6.365 -0.1481 -0.6677 -0.1190
   31MOL   H30711167   4.097   2.175   6.291  0.2741  1.4267  1.0989
   31MOL   C30811168   3.692   1.857   6.095  0.6751  0.3299 -0.7450
   31MOL   C30911169   3.556   1.868   6.166 -0.8046 -0.4318  0.0166
   31MOL   C31011170   3.566   1.916   6.312  0.5551 -0.4231 -0.6632
   31MOL   O31111171   3.518   1.846   6.404 -0.1298  0.2240 -0.2765
   31MOL   O31211172   3.626   2.034   6.327 -0.3093  0.2124 -0.2081
   31MOL   C31311173   3.674   2.086   6.454  0.5079 -0.3442 -0.0194
   31MOL   C31411174   3.660   2.241   6.444  0.3919  0.7044  0.2779
   31MOL   C31511175   3.710   2.308   6.582 -0.5994 -0.1611 -0.2296
   31MOL   H31611176   3.679   1.826   5.991 -1.5965 -0.5504 -0.2324
   31MOL   H31711177   3.748   1.950   6.090  1.2465 -0.0774 -2.4791
   31MOL   H31811178   3.518   1.767   6.178 -0.5263 -0.7943 -1.9264
   31MOL   H31911179   3.613   2.049   6.536 -0.3979  0.9705 -0.0778
   31MOL   H32011180   3.778   2.066   6.481  0.7723  0.4747 -0.4214
   31MOL   H32111181   3.714   2.288   6.362  1.0987 -0.8989 -0.1977
   31MOL   H32211182   3.555   2.271   6.432  0.5997  2.1505  1.8783
   31MOL   H32311183   3.695   2.415   6.576 -0.4678 -0.2307 -2.4142
   31MOL   H32411184   3.645   2.266   6.658 -1.1492  1.7962  0.4059
   31MOL   H32511185   3.814   2.280   6.600 -0.8940 -0.3830  1.1586
   31MOL   C32611186   3.453   1.941   6.083  0.5324 -0.1981  0.2778
   31MOL   C32711187   3.401   1.886   5.949  0.0056  0.0378  0.8688
   31MOL   C32811188   3.329   1.745   5.954 -0.5286 -0.3676 -0.0600
   31MOL   O32911189   3.341   1.663   5.863  0.0298 -0.5513 -0.0745
   31MOL   O33011190   3.247   1.723   6.058 -0.1870  0.6158 -0.5716
   31MOL   C33111191   3.164   1.612   6.075  0.3034  0.4283 -0.6176
   31MOL   C33211192   3.201   1.557   6.214 -0.8184 -0.4417  0.5954
   31MOL   C33311193   3.347   1.513   6.241 -0.1019  0.3365 -0.9587
   31MOL   H33411194   3.482   2.045   6.068  0.7175 -0.4103 -0.8892
   31MOL   H33511195   3.375   1.959   6.157  1.7611  1.3575  1.2046
   31MOL   H33611196   3.481   1.872   5.876 -2.2517 -0.1642 -1.6837
   31MOL   H33711197   3.065   1.646   6.048 -0.3531  0.5776  1.8005
   31MOL   H33811198   3.183   1.528   6.008 -2.1173  0.5802 -1.5110
   31MOL   H33911199   3.185   1.641   6.282 -0.3833  1.0397 -1.1062
   31MOL   H34011200   3.136   1.476   6.246 -0.1099 -0.6935  1.4187
   31MOL   H34111201   3.375   1.476   6.339  2.0528  3.7485 -0.2038
   31MOL   H34211202   3.360   1.444   6.157 -0.7768 -0.9536 -0.0156
   31MOL   H34311203   3.417   1.592   6.213  0.7743 -0.0485  0.1084
   31MOL   C34411204   3.298   1.991   5.887 -0.6476 -0.0682 -0.1969
   31MOL   C34511205   3.261   1.952   5.743  0.9502 -0.0177  1.0971
   31MOL   C34611206   3.219   2.068   5.664 -0.0544  0.2658 -0.0240
   31MOL   O34711207   3.295   2.105   5.574  0.3854  0.0456  0.1964
   31MOL   O34811208   3.100   2.122   5.687 -0.5486 -0.1310  0.0372
   31MOL   C34911209   3.059   2.237   5.616  0.7717  0.1050  0.5010
   31MOL   C35011210   3.080   2.370   5.701 -0.1099  0.9089  0.1688
   31MOL   C35111211   2.987   2.389   5.818 -0.7165 -0.2329 -0.2862
   31MOL   H35211212   3.342   2.090   5.898 -0.7172 -0.3996  3.9260
   31MOL   H35311213   3.207   1.992   5.948 -0.6285  1.3443 -0.1956
   31MOL   H35411214   3.191   1.868   5.745 -1.1379  1.6230 -0.3915
   31MOL   H35511215   3.120   2.258   5.529  0.4470  2.6372  0.8302
   31MOL   H35611216   2.954   2.228   5.587  0.7745 -0.8829  0.7786
   31MOL   H35711217   3.184   2.363   5.734 -1.4061 -1.8829  3.9672
   31MOL   H35811218   3.072   2.455   5.633  3.6225  0.8919 -0.4040
   31MOL   H35911219   3.025   2.469   5.881  2.2967 -2.0032  0.2091
   31MOL   H36011220   2.893   2.432   5.783 -0.0963 -0.6358 -2.5189
   31MOL   H36111221   2.955   2.301   5.874 -1.0490 -1.3014 -2.1244
   31MOL   H36211222   3.347   1.920   5.686 -0.8121 -0.8090 -1.1773
   32MOL     C111223   5.114   3.806   5.367  0.0603  0.3064  0.2868
   32MOL     C211224   5.015   3.719   5.460  0.0306 -0.3102 -0.3401
   32MOL     C311225   5.046   3.567   5.453  0.1202 -0.4738 -0.4987
   32MOL     O411226   5.153   3.524   5.405  0.0555 -0.6604  0.3001
   32MOL     O511227   4.948   3.475   5.495 -0.3587  0.2150  0.3227
   32MOL     C611228   4.980   3.333   5.498  0.6806 -0.2704  0.1014
   32MOL     C711229   4.954   3.276   5.358  0.2949 -0.0486 -0.2104
   32MOL     C811230   4.809   3.269   5.313  0.2670  0.6597 -0.1562
   32MOL     H911231   5.206   3.818   5.424  0.5696 -2.7856  0.2027
   32MOL    H1011232   5.135   3.765   5.268  1.8904 -0.3188  0.9120
   32MOL    H1111233   4.919   3.733   5.410 -0.5528  0.5674  1.0051
   32MOL    H1211234   5.085   3.327   5.525  0.8969  2.3632  0.0050
   32MOL    H1311235   4.917   3.277   5.567  0.8052  1.2705  1.5167
   32MOL    H1411236   5.018   3.309   5.277  1.0669 -1.0741 -0.0208
   32MOL    H1511237   4.977   3.170   5.360 -3.7282 -0.9634  1.1692
   32MOL    H1611238   4.789   3.203   5.229  0.9310  2.5670 -1.8656
   32MOL    H1711239   4.740   3.231   5.388  0.6548 -0.5883 -0.4261
   32MOL    H1811240   4.770   3.368   5.291  1.1850  1.3465  1.1859
   32MOL    H1911241   5.064   3.901   5.352  0.6163  0.3505 -1.3423
   32MOL    C2011242   5.004   3.765   5.609 -0.1460 -0.2119  0.7552
   32MOL    C2111243   4.981   3.911   5.638  0.4598 -0.0764 -0.7526
   32MOL    C2211244   4.854   3.973   5.575  0.3350 -0.4493 -0.0050
   32MOL    O2311245   4.862   4.039   5.470  0.0480 -0.8719  0.3274
   32MOL    O2411246   4.743   3.947   5.643 -0.0406 -0.0596  0.1607
   32MOL    C2511247   4.619   4.005   5.604  0.1412 -0.1086 -0.4043
   32MOL    C2611248   4.613   4.157   5.628 -0.5657 -0.2275  0.3170
   32MOL    C2711249   4.613   4.192   5.775  0.4847  0.4103 -0.9123
   32MOL    H2811250   5.100   3.736   5.653  0.5331  0.3564 -0.3487
   32MOL    H2911251   4.934   3.696   5.656  0.5954 -1.0565  0.6412
   32MOL    H3011252   5.060   3.972   5.594 -0.9140  1.5011 -1.0762
   32MOL    H3111253   4.602   3.984   5.499 -1.4877 -0.9906  0.0186
   32MOL    H3211254   4.541   3.954   5.661  2.7779 -2.1612  1.4611
   32MOL    H3311255   4.700   4.196   5.575 -0.4857 -1.2091 -0.2834
   32MOL    H3411256   4.522   4.200   5.587  0.8465  3.6308  0.9736
   32MOL    H3511257   4.707   4.158   5.818  0.0337  0.7143  0.3102
   32MOL    H3611258   4.554   4.120   5.831  0.7705 -0.9447 -2.2893
   32MOL    H3711259   4.588   4.293   5.807 -0.2239 -0.4012  1.1672
   32MOL    C3811260   4.996   3.925   5.795 -0.1183 -0.2600  0.3810
   32MOL    C3911261   5.135   3.896   5.858  0.3482 -0.2312  0.6551
   32MOL    C4011262   5.238   4.003   5.813  0.3489 -0.7387 -0.2097
   32MOL    O4111263   5.250   4.108   5.872  0.0676 -0.3346  0.1241
   32MOL    O4211264   5.286   3.970   5.691 -0.3803 -0.3215 -0.4505
   32MOL    C4311265   5.370   4.072   5.635 -0.8660  0.1127 -0.6447
   32MOL    C4411266   5.299   4.149   5.517  0.8844 -0.4756 -0.3842
   32MOL    C4511267   5.184   4.237   5.575  0.1425 -0.2199 -0.3170
   32MOL    H4611268   4.921   3.864   5.844  0.9801 -3.4507 -1.7570
   32MOL    H4711269   4.969   4.028   5.821  2.6743  0.4354  0.6788
   32MOL    H4811270   5.167   3.796   5.828 -2.2678 -1.4189  1.6721
   32MOL    H4911271   5.405   4.146   5.707 -0.8153  2.3173 -2.8618
   32MOL    H5011272   5.456   4.019   5.594 -0.1762  1.4194 -0.9211
   32MOL    H5111273   5.373   4.211   5.466  1.7260 -1.3030 -0.1828
   32MOL    H5211274   5.269   4.074   5.443  0.1067 -1.2294  0.6731
   32MOL    H5311275   5.099   4.271   5.516  0.8410  3.7168  0.8211
   32MOL    H5411276   5.222   4.323   5.630 -0.6958  0.9269 -1.5029
   32MOL    H5511277   5.138   4.175   5.652 -2.1109  0.8250 -0.8064
   32MOL    C5611278   5.134   3.902   6.017 -0.2465 -0.1548  0.0022
   32MOL    C5711279   5.073   3.782   6.091  0.0440  0.3553  0.3710
   32MOL    C5811280   5.163   3.658   6.065  0.7788  0.3159  0.3590
   32MOL    O5911281   5.254   3.619   6.136  0.4494  0.2834  0.3003
   32MOL    O6011282   5.109   3.586   5.965  0.5495  0.2876 -0.3050
   32MOL    C6111283   5.192   3.482   5.913  0.0550 -0.2483  0.1394
   32MOL    C6211284   5.110   3.387   5.826 -0.3366 -0.8967 -0.0114
   32MOL    C6311285   5.063   3.273   5.912 -0.1568 -0.4747 -0.7346
   32MOL    H6411286   5.084   3.997   6.036 -1.1692  0.0021 -2.8471
   32MOL    H6511287   5.235   3.911   6.058  0.8249 -2.7653 -1.9278
   32MOL    H6611288   4.974   3.766   6.048  0.3246  0.7079 -0.4029
   32MOL    H6711289   5.278   3.526   5.861 -0.6099 -2.0098 -2.5354
   32MOL    H6811290   5.233   3.425   5.996 -2.1631  0.5004  1.7759
   32MOL    H6911291   5.029   3.439   5.776 -0.4377 -1.7730 -0.7529
   32MOL    H7011292   5.167   3.355   5.739 -2.0252 -1.7951 -0.8116
   32MOL    H7111293   5.012   3.314   5.999 -0.8538  0.3999 -1.5452
   32MOL    H7211294   5.137   3.202   5.949  0.1530  0.4095  0.3819
   32MOL    H7311295   5.001   3.211   5.847 -0.0505 -0.8627 -0.4684
   32MOL    C7411296   5.048   3.806   6.243 -0.1276 -0.4205 -0.8042
   32MOL    C7511297   4.947   3.704   6.301 -0.4304 -0.5003 -0.5303
   32MOL    C7611298   5.018   3.617   6.402 -0.8189  0.2088 -0.7745
   32MOL    O7711299   5.029   3.649   6.522 -0.2732  0.5555  0.6712
   32MOL    O7811300   5.078   3.510   6.351  0.0658  0.5270 -0.1620
   32MOL    C7911301   5.155   3.428   6.439 -0.7183 -0.1810 -0.2332
   32MOL    C8011302   5.222   3.321   6.345  0.0935 -0.0327 -1.1496
   32MOL    C8111303   5.313   3.233   6.428 -1.0156  0.3374 -0.5004
   32MOL    H8211304   5.016   3.910   6.258  0.4638 -0.4172  0.5348
   32MOL    H8311305   5.144   3.808   6.294 -0.7706  1.0267  0.3974
   32MOL    H8411306   4.927   3.633   6.221  0.3135 -1.5951  0.2316
   32MOL    H8511307   5.231   3.485   6.491  0.7115 -1.6374 -0.6821
   32MOL    H8611308   5.088   3.378   6.509  3.2742 -2.1524  2.3816
   32MOL    H8711309   5.156   3.265   6.280 -1.3907 -1.3739  1.4407
   32MOL    H8811310   5.291   3.369   6.275 -0.0716  1.5635 -0.2507
   32MOL    H8911311   5.253   3.165   6.489 -0.5649  0.0998 -0.3246
   32MOL    H9011312   5.379   3.285   6.497  0.6432 -2.3748  0.0379
   32MOL    H9111313   5.364   3.170   6.355 -0.6673 -1.1909  1.0423
   32MOL    C9211314   4.811   3.761   6.353 -0.2863 -0.2798 -0.4162
   32MOL    C9311315   4.710   3.797   6.247 -0.6610  0.4957  0.8677
   32MOL    C9411316   4.740   3.914   6.154 -1.0442  0.2334 -0.9313
   32MOL    O9511317   4.761   3.907   6.031 -0.0687  0.4887 -0.0603
   32MOL    O9611318   4.765   4.024   6.229 -0.1611  0.0796  0.0716
   32MOL    C9711319   4.781   4.148   6.163 -0.7057  0.0999 -0.6937
   32MOL    C9811320   4.815   4.254   6.264  0.6486  0.0437  0.5404
   32MOL    C9911321   4.944   4.242   6.344  0.2501  0.1829  0.2239
   32MOL   H10011322   4.828   3.852   6.411 -0.2909 -1.7909  2.0463
   32MOL   H10111323   4.763   3.699   6.429 -0.4860 -1.3880 -1.4229
   32MOL   H10211324   4.622   3.824   6.306 -1.1576  1.1790 -0.1764
   32MOL   H10311325   4.852   4.148   6.080 -0.6081  1.6180 -0.6267
   32MOL   H10411326   4.690   4.179   6.113 -0.1764  0.3894 -1.4949
   32MOL   H10511327   4.806   4.351   6.216 -1.0595 -0.4299 -0.1564
   32MOL   H10611328   4.728   4.265   6.329  0.9328  1.1724  0.7327
   32MOL   H10711329   4.961   4.319   6.420 -3.6508  0.4852  0.8703
   32MOL   H10811330   5.022   4.239   6.268  0.0266  0.6317 -0.0265
   32MOL   H10911331   4.940   4.149   6.401 -0.7247  0.7418  1.0747
   32MOL   C11011332   4.660   3.673   6.162  0.0229  0.7556  0.0057
   32MOL   C11111333   4.534   3.602   6.218 -0.3474 -0.2389  0.0841
   32MOL   C11211334   4.404   3.679   6.201 -0.4784  0.4834  0.3248
   32MOL   O11311335   4.322   3.683   6.293 -0.3699  0.7035 -0.1399
   32MOL   O11411336   4.399   3.727   6.076 -0.3933 -0.0204 -0.3430
   32MOL   C11511337   4.303   3.820   6.035  0.1622  0.3776  0.6928
   32MOL   C11611338   4.366   3.905   5.927  0.6692 -0.1680  0.6203
   32MOL   C11711339   4.267   3.995   5.854 -0.1827  0.0767 -0.1920
   32MOL   H11811340   4.741   3.601   6.149 -0.6689 -0.3183  1.5596
   32MOL   H11911341   4.637   3.698   6.058 -0.2762  1.2182  0.1806
   32MOL   H12011342   4.553   3.607   6.325  0.9945 -1.4535 -0.0744
   32MOL   H12111343   4.216   3.771   5.992 -0.3030  1.1915  0.6966
   32MOL   H12211344   4.260   3.884   6.112 -0.0741  0.2025  0.7033
   32MOL   H12311345   4.445   3.971   5.962  0.3312  0.1951  0.7039
   32MOL   H12411346   4.415   3.829   5.866  0.7381  0.4598 -0.1135
   32MOL   H12511347   4.193   3.941   5.795 -0.9739  0.3210  0.5486
   32MOL   H12611348   4.313   4.073   5.793 -1.1620  0.4316 -0.4902
   32MOL   H12711349   4.212   4.053   5.928  1.1230 -0.4439  1.2139
   32MOL   C12811350   4.516   3.451   6.175  0.4308  0.9173  0.6711
   32MOL   C12911351   4.603   3.340   6.235  0.0151 -0.4196  0.2207
   32MOL   C13011352   4.600   3.333   6.390 -0.8508  0.1617 -0.1913
   32MOL   O13111353   4.707   3.346   6.455  0.2457  0.4705 -0.1450
   32MOL   O13211354   4.477   3.317   6.445  0.8274 -0.4155 -0.3040
   32MOL   C13311355   4.456   3.308   6.588 -0.2710  0.3442 -0.0211
   32MOL   C13411356   4.375   3.426   6.644 -0.2934 -0.1259 -1.0964
   32MOL   C13511357   4.234   3.428   6.590 -0.0280 -0.2353 -0.9657
   32MOL   H13611358   4.521   3.442   6.067  5.1521 -0.9068  0.9129
   32MOL   H13711359   4.410   3.429   6.185  0.7706 -2.9013 -2.8053
   32MOL   H13811360   4.708   3.363   6.220  0.0621  0.0645  1.2790
   32MOL   H13911361   4.406   3.215   6.613 -0.2937  0.9623  2.3233
   32MOL   H14011362   4.555   3.301   6.632 -0.4787 -0.7021  0.2920
   32MOL   H14111363   4.386   3.416   6.752 -0.3958  2.1056 -0.8518
   32MOL   H14211364   4.428   3.519   6.627 -0.3433  0.5329  2.0605
   32MOL   H14311365   4.230   3.434   6.482 -2.2246  0.2739 -0.8705
   32MOL   H14411366   4.192   3.517   6.637  2.7828  0.3181  0.6229
   32MOL   H14511367   4.164   3.350   6.621 -0.9462  0.5808 -0.9648
   32MOL   C14611368   4.574   3.193   6.172  0.2010  0.1091 -0.9104
   32MOL   C14711369   4.712   3.114   6.150 -0.4545 -0.2794 -0.3498
   32MOL   C14811370   4.802   3.090   6.274  0.5573  0.7398  0.4034
   32MOL   O14911371   4.922   3.098   6.269  0.5866 -0.0570  0.2312
   32MOL   O15011372   4.732   3.041   6.379  0.2728  0.3363 -0.7828
   32MOL   C15111373   4.801   3.013   6.502 -0.0425 -0.1716  0.2015
   32MOL   C15211374   4.843   2.868   6.505 -0.0442  0.3377  0.3487
   32MOL   C15311375   4.735   2.765   6.481  0.3666 -0.5914  0.4953
   32MOL   H15411376   4.529   3.209   6.074  0.0021  1.5717 -0.5991
   32MOL   H15511377   4.501   3.134   6.226  0.6503 -0.3780 -0.8285
   32MOL   H15611378   4.770   3.185   6.091 -0.8579 -1.1139 -1.7697
   32MOL   H15711379   4.888   3.077   6.514 -1.5359  2.3384 -1.9699
   32MOL   H15811380   4.732   3.040   6.582 -1.0370  0.1182 -0.7430
   32MOL   H15911381   4.912   2.862   6.422 -2.3709 -0.2283 -1.5944
   32MOL   H16011382   4.890   2.829   6.596  0.3653 -0.6184 -0.2674
   32MOL   H16111383   4.782   2.668   6.495 -0.3363 -1.1890 -1.2558
   32MOL   H16211384   4.706   2.782   6.378  1.6978 -1.7418 -0.0794
   32MOL   H16311385   4.656   2.768   6.556 -0.6566  0.2838 -0.6017
   32MOL   C16411386   4.695   2.970   6.090 -0.7302 -0.6973  0.1834
   32MOL   C16511387   4.801   2.929   5.983  0.0895 -0.5595 -0.1460
   32MOL   C16611388   4.939   2.887   6.034 -0.1704 -0.4709  0.2166
   32MOL   O16711389   5.043   2.954   6.012  0.1205  0.4689 -0.2653
   32MOL   O16811390   4.937   2.771   6.100  0.5560 -0.5939 -0.2873
   32MOL   C16911391   5.058   2.708   6.136 -0.0368 -0.1202  0.3494
   32MOL   C17011392   5.034   2.583   6.223 -0.1933 -0.4537 -0.6544
   32MOL   C17111393   4.968   2.471   6.135 -0.3381 -0.5525 -0.4340
   32MOL   H17211394   4.597   2.979   6.044  0.7033 -2.9423 -3.5500
   32MOL   H17311395   4.687   2.896   6.170 -1.9785 -1.8581 -0.9993
   32MOL   H17411396   4.802   3.012   5.912 -0.9141  0.1646  0.6819
   32MOL   H17511397   5.098   2.675   6.040  0.9178  0.3833  0.5631
   32MOL   H17611398   5.115   2.787   6.186 -2.1247  2.0031 -0.5625
   32MOL   H17711399   5.132   2.545   6.254 -1.0135 -3.0616 -1.1210
   32MOL   H17811400   4.976   2.605   6.312  0.4762 -1.2154 -0.0224
   32MOL   H17911401   4.949   2.376   6.185 -0.7899 -0.2024  0.0752
   32MOL   H18011402   5.018   2.459   6.039 -1.9457  1.9078 -1.6328
   32MOL   H18111403   4.864   2.494   6.112 -0.1126  0.8909 -0.0775
   32MOL   C18211404   4.747   2.817   5.900  0.2212 -0.2026 -0.3498
   32MOL   C18311405   4.631   2.850   5.796 -0.6826 -0.4082  0.2673
   32MOL   C18411406   4.669   2.952   5.690 -0.1862 -0.2704  0.5822
   32MOL   O18511407   4.607   3.057   5.670 -0.5388  0.0023 -0.3884
   32MOL   O18611408   4.780   2.922   5.629  0.1049 -0.0181 -0.3436
   32MOL   C18711409   4.836   3.008   5.539 -0.3362  0.1966  0.2569
   32MOL   C18811410   4.974   2.945   5.521  1.0000  0.2720  0.6454
   32MOL   C18911411   5.078   2.999   5.616 -0.1644 -0.1211  0.0171
   32MOL   H19011412   4.703   2.750   5.974  0.2690 -0.7329 -0.7940
   32MOL   H19111413   4.823   2.761   5.845 -1.7978 -1.9119 -1.4562
   32MOL   H19211414   4.542   2.883   5.849 -0.1958  2.6014 -0.6575
   32MOL   H19311415   4.772   3.003   5.451  0.3202  0.9302 -0.2642
   32MOL   H19411416   4.846   3.108   5.580  1.1373  0.0373  0.3199
   32MOL   H19511417   4.975   2.837   5.531  1.9253  0.3574  1.5650
   32MOL   H19611418   5.009   2.943   5.418  0.0013 -0.1982  0.3071
   32MOL   H19711419   5.051   2.971   5.718  0.5555 -2.8680 -0.5222
   32MOL   H19811420   5.085   3.108   5.614 -0.4642 -0.0809  0.8721
   32MOL   H19911421   5.176   2.958   5.593  0.1321  0.0425  0.9833
   32MOL   C20011422   4.594   2.714   5.735  0.3319 -0.0866  0.3488
   32MOL   C20111423   4.512   2.622   5.825 -0.8130 -0.5806 -0.7625
   32MOL   C20211424   4.370   2.679   5.838  0.3912  0.6233  0.4338
   32MOL   O20311425   4.283   2.660   5.754  0.6637 -0.1210 -0.1861
   32MOL   O20411426   4.361   2.753   5.947 -0.4257 -0.8357 -0.7025
   32MOL   C20511427   4.238   2.817   5.977 -0.4724 -0.4937 -0.7640
   32MOL   C20611428   4.247   2.972   5.967 -0.5084  0.3124  0.2258
   32MOL   C20711429   4.286   3.027   5.831  0.3749  0.5422  0.2368
   32MOL   H20811430   4.673   2.658   5.684 -0.6385  0.5495 -1.9108
   32MOL   H20911431   4.529   2.727   5.649  0.5451 -0.5134  0.1182
   32MOL   H21011432   4.552   2.627   5.926 -0.7255 -1.2322 -0.7621
   32MOL   H21111433   4.153   2.779   5.921 -0.5440 -0.6918 -0.5187
   32MOL   H21211434   4.211   2.799   6.081  0.5066 -0.9267 -0.5831
   32MOL   H21311435   4.147   3.007   5.993 -0.4135  0.2758  0.6434
   32MOL   H21411436   4.313   3.009   6.046 -0.0501  1.6867 -0.7927
   32MOL   H21511437   4.264   3.133   5.819  0.3210  0.6156  0.9700
   32MOL   H21611438   4.224   2.989   5.749  0.0189 -0.1291  0.7989
   32MOL   H21711439   4.392   3.013   5.809  0.5979  0.3094  1.4270
   32MOL   C21811440   4.509   2.474   5.777  0.1422  0.5596 -0.1222
   32MOL   C21911441   4.605   2.374   5.852  0.2511  0.1906 -0.4025
   32MOL   C22011442   4.568   2.355   5.997  0.1024 -0.4048  0.0520
   32MOL   O22111443   4.643   2.353   6.092 -0.2533  0.1960 -0.1636
   32MOL   O22211444   4.442   2.338   6.014  0.7351 -0.1978  0.1462
   32MOL   C22311445   4.388   2.322   6.147  1.2113  0.1365  0.2343
   32MOL   C22411446   4.376   2.444   6.233 -0.2918 -0.4431 -0.2213
   32MOL   C22511447   4.317   2.413   6.364  0.0397 -0.0358  0.9671
   32MOL   H22611448   4.511   2.457   5.669  1.1959  1.2571 -0.2095
   32MOL   H22711449   4.407   2.438   5.795  0.2672  0.7742  1.0231
   32MOL   H22811450   4.700   2.426   5.858 -0.1633  0.7469  1.6668
   32MOL   H22911451   4.291   2.276   6.130  1.2478 -0.2832  1.1400
   32MOL   H23011452   4.445   2.258   6.215 -1.3874 -2.0005  0.4733
   32MOL   H23111453   4.475   2.489   6.241  0.2776 -1.3074 -2.1455
   32MOL   H23211454   4.307   2.513   6.186 -1.8331 -0.3184  2.1291
   32MOL   H23311455   4.324   2.488   6.442 -1.0440 -0.0447  1.0820
   32MOL   H23411456   4.360   2.321   6.404  0.7026 -0.0500  0.2354
   32MOL   H23511457   4.210   2.408   6.340  0.2278  0.8450 -0.1148
   32MOL   C23611458   4.609   2.237   5.781  0.0018 -0.4051 -0.4491
   32MOL   C23711459   4.680   2.232   5.640  0.6041 -0.5195 -0.0649
   32MOL   C23811460   4.832   2.265   5.645 -0.0545 -0.1860 -0.5178
   32MOL   O23911461   4.921   2.178   5.650 -0.3236  0.3950  0.0389
   32MOL   O24011462   4.856   2.393   5.634  0.2033  0.2352 -0.1417
   32MOL   C24111463   4.987   2.452   5.650 -0.0423 -1.2367 -0.1383
   32MOL   C24211464   4.985   2.588   5.727 -0.0825 -0.0629 -0.5442
   32MOL   C24311465   5.112   2.667   5.721 -0.6111  0.0640 -0.0420
   32MOL   H24411466   4.510   2.196   5.763 -0.2573  0.1586 -0.3335
   32MOL   H24511467   4.669   2.168   5.841 -1.4038 -0.4867  0.8998
   32MOL   H24611468   4.626   2.310   5.585 -1.6514 -2.2287 -0.3574
   32MOL   H24711469   5.060   2.385   5.695 -0.9432 -2.4246 -0.4272
   32MOL   H24811470   4.998   2.476   5.544 -2.3332  0.1762 -0.0781
   32MOL   H24911471   4.901   2.643   5.683 -1.5678 -1.5882  0.3051
   32MOL   H25011472   4.950   2.579   5.830 -0.3684  1.1492 -0.5324
   32MOL   H25111473   5.204   2.616   5.751  0.0979  0.3872 -1.6326
   32MOL   H25211474   5.098   2.760   5.776 -0.2511 -0.8224  1.5791
   32MOL   H25311475   5.125   2.699   5.618  3.8419  0.5378  0.5634
   32MOL   C25411476   4.655   2.103   5.563 -0.7927  0.2731 -0.2907
   32MOL   C25511477   4.700   2.100   5.417  1.2640 -0.4428 -0.7413
   32MOL   C25611478   4.745   1.955   5.370 -0.3590 -0.1158  0.4591
   32MOL   O25711479   4.859   1.940   5.315 -0.1711 -0.3562  0.4078
   32MOL   O25811480   4.661   1.859   5.395  0.0824  0.2703 -1.1209
   32MOL   C25911481   4.695   1.731   5.365  0.2240 -0.3418 -0.1844
   32MOL   C26011482   4.667   1.643   5.485 -0.0055 -0.0235  0.3265
   32MOL   C26111483   4.693   1.497   5.440 -0.1388 -0.2048 -0.3485
   32MOL   H26211484   4.549   2.082   5.578 -0.3612 -0.8599  1.2551
   32MOL   H26311485   4.703   2.015   5.605 -2.3015 -0.8848 -0.9271
   32MOL   H26411486   4.783   2.170   5.411  2.4470 -1.7908 -0.2548
   32MOL   H26511487   4.636   1.703   5.278  0.2555  0.6406 -0.5373
   32MOL   H26611488   4.802   1.727   5.344  0.3272 -0.1195  0.2925
   32MOL   H26711489   4.725   1.672   5.572 -0.1168  0.5889  0.1977
   32MOL   H26811490   4.566   1.666   5.520  0.0367 -0.2687  0.6112
   32MOL   H26911491   4.793   1.481   5.400 -1.0697 -0.8260 -2.4707
   32MOL   H27011492   4.623   1.463   5.364  0.0519 -0.5761 -0.3601
   32MOL   H27111493   4.680   1.438   5.531  0.5472  2.0356  1.2349
   32MOL   C27211494   4.589   2.161   5.328  0.1652  0.1131 -0.1032
   32MOL   C27311495   4.639   2.218   5.191 -0.0313  1.0333 -0.8158
   32MOL   C27411496   4.541   2.209   5.076  0.2075  0.2251  0.2259
   32MOL   O27511497   4.423   2.169   5.094  0.2547  0.9485 -0.6610
   32MOL   O27611498   4.595   2.255   4.958 -0.0453  0.7357  0.0294
   32MOL   C27711499   4.509   2.299   4.857  0.1312 -0.3081 -0.4037
   32MOL   C27811500   4.497   2.183   4.753 -0.3920  0.2713 -0.6002
   32MOL   C27911501   4.620   2.168   4.659  0.5004 -0.5732 -0.3329
   32MOL   H28011502   4.528   2.243   5.366  0.8641  0.1506  0.9424
   32MOL   H28111503   4.512   2.085   5.317  0.6074 -0.1119 -1.7149
   32MOL   H28211504   4.711   2.144   5.156 -0.4925 -0.6172  1.5952
   32MOL   H28311505   4.411   2.327   4.893  0.9373  2.4888 -0.2709
   32MOL   H28411506   4.560   2.375   4.797 -0.3935  0.5076  0.1784
   32MOL   H28511507   4.477   2.084   4.795 -0.7918  0.8512  0.6075
   32MOL   H28611508   4.416   2.210   4.685 -0.0622 -0.6447 -1.3561
   32MOL   H28711509   4.599   2.097   4.580  1.9141 -0.3148 -0.9717
   32MOL   H28811510   4.705   2.149   4.725 -0.1963 -3.3736 -0.2149
   32MOL   H28911511   4.650   2.259   4.606  3.9700  0.5896  3.3115
   32MOL   C29011512   4.715   2.346   5.197 -0.8810 -0.2090  0.0526
   32MOL   C29111513   4.648   2.483   5.197 -0.9288  0.0785  0.5382
   32MOL   C29211514   4.557   2.506   5.315  1.1030 -0.1431  0.6601
   32MOL   O29311515   4.592   2.498   5.429  0.2581  0.0049  0.0323
   32MOL   O29411516   4.427   2.534   5.278 -0.2018 -0.6900  0.1875
   32MOL   C29511517   4.326   2.554   5.374 -0.0285 -0.2392 -0.9016
   32MOL   C29611518   4.193   2.573   5.309  0.4938  0.5800  0.4893
   32MOL   C29711519   4.161   2.462   5.212 -0.1567 -0.6651 -0.1391
   32MOL   H29811520   4.786   2.326   5.118 -0.5128 -0.7064  0.5080
   32MOL   H29911521   4.777   2.344   5.287 -1.5297 -2.0569  0.4736
   32MOL   H30011522   4.579   2.477   5.113 -1.5232  1.5070  0.8981
   32MOL   H30111523   4.323   2.469   5.443 -0.6228  1.0527  0.6889
   32MOL   H30211524   4.344   2.645   5.431  1.3967 -0.2115 -1.3731
   32MOL   H30311525   4.117   2.556   5.386  0.4964  0.2248  0.4157
   32MOL   H30411526   4.186   2.669   5.259 -0.1169  0.8894  1.1519
   32MOL   H30511527   4.149   2.365   5.259  2.3993 -0.4709  0.9799
   32MOL   H30611528   4.237   2.442   5.135 -1.9917 -3.7147 -1.2481
   32MOL   H30711529   4.069   2.485   5.159  1.4611  2.1403 -1.8462
   32MOL   C30811530   4.747   2.603   5.177  0.1134 -0.2642  0.1569
   32MOL   C30911531   4.675   2.725   5.107 -0.1997 -0.0826 -0.5241
   32MOL   C31011532   4.752   2.858   5.135  0.0578  0.2007 -0.3155
   32MOL   O31111533   4.701   2.958   5.186  0.0365 -0.0200 -0.7307
   32MOL   O31211534   4.876   2.857   5.086 -0.0289 -0.2613  0.0308
   32MOL   C31311535   4.958   2.974   5.095 -0.0797  0.5967  0.0311
   32MOL   C31411536   4.917   3.083   4.992  0.2519  0.0521  0.1231
   32MOL   C31511537   4.971   3.055   4.846 -0.5840 -0.2166 -0.1795
   32MOL   H31611538   4.832   2.577   5.113 -0.7077  1.4579 -1.6668
   32MOL   H31711539   4.779   2.622   5.279  1.5745 -2.4933  0.1480
   32MOL   H31811540   4.583   2.738   5.163 -0.0867 -0.1748 -0.3146
   32MOL   H31911541   4.965   3.016   5.195 -0.1079  0.8887 -0.0879
   32MOL   H32011542   5.058   2.934   5.085 -0.2548  0.1329  0.1040
   32MOL   H32111543   4.809   3.095   4.988  0.0845 -1.5517 -0.3502
   32MOL   H32211544   4.969   3.174   5.021  3.4933 -0.9957 -2.0527
   32MOL   H32311545   5.076   3.028   4.839 -0.2751  0.5903  1.1185
   32MOL   H32411546   4.916   2.983   4.785 -1.0773 -0.5885  0.6987
   32MOL   H32511547   4.967   3.150   4.792 -1.2705 -1.3142 -2.1029
   32MOL   C32611548   4.628   2.703   4.957 -0.4071 -0.0463  0.1961
   32MOL   C32711549   4.527   2.814   4.912  0.0227 -1.0484 -0.0731
   32MOL   C32811550   4.514   2.817   4.761  0.1504  0.0840 -0.0164
   32MOL   O32911551   4.538   2.915   4.691  0.1966 -0.0060  0.6702
   32MOL   O33011552   4.480   2.702   4.724 -0.3305  0.1543  1.0116
   32MOL   C33111553   4.457   2.682   4.581  0.5975 -0.1340  0.5507
   32MOL   C33211554   4.425   2.535   4.541 -0.2173  0.4793 -0.2415
   32MOL   C33311555   4.318   2.481   4.627 -0.4780  0.0473  0.0949
   32MOL   H33411556   4.572   2.610   4.949  1.3458 -1.0130 -1.2151
   32MOL   H33511557   4.719   2.692   4.897  0.0213 -1.1505  1.0169
   32MOL   H33611558   4.573   2.905   4.949  2.4249 -2.2382 -0.0284
   32MOL   H33711559   4.372   2.749   4.569 -1.7219 -2.5474  2.9505
   32MOL   H33811560   4.530   2.715   4.507 -1.7824 -0.1280 -1.9022
   32MOL   H33911561   4.405   2.534   4.434 -0.1845 -0.4811 -0.2412
   32MOL   H34011562   4.514   2.475   4.560  0.3900  0.9635 -1.4976
   32MOL   H34111563   4.348   2.481   4.732  1.5576  0.2409 -0.4723
   32MOL   H34211564   4.222   2.530   4.614 -0.8054 -0.5284  0.3264
   32MOL   H34311565   4.304   2.378   4.594  0.2026 -0.0098 -0.0262
   32MOL   C34411566   4.388   2.805   4.981  0.2530 -0.2001  0.3876
   32MOL   C34511567   4.283   2.912   4.937 -0.2996  0.0915 -0.0343
   32MOL   C34611568   4.322   3.048   4.994 -0.9802  0.2414  0.3191
   32MOL   O34711569   4.380   3.135   4.931 -0.2117  0.3689  0.3109
   32MOL   O34811570   4.299   3.058   5.126  0.0596  0.5125 -0.6522
   32MOL   C34911571   4.339   3.172   5.200 -0.1219 -0.5663  0.1382
   32MOL   C35011572   4.372   3.142   5.349  0.4423 -0.5498  0.2992
   32MOL   C35111573   4.270   3.049   5.409 -0.0643  0.5471  0.6391
   32MOL   H35211574   4.406   2.808   5.088  0.1942  1.5025  0.3676
   32MOL   H35311575   4.338   2.710   4.967 -1.3659  0.8645 -1.3312
   32MOL   H35411576   4.187   2.878   4.979 -0.1093 -0.4406 -0.0260
   32MOL   H35511577   4.431   3.212   5.156  0.8967 -2.7185  0.2587
   32MOL   H35611578   4.263   3.250   5.207  1.5410  1.2034 -0.8988
   32MOL   H35711579   4.473   3.105   5.366  0.6803 -0.0515 -0.0421
   32MOL   H35811580   4.359   3.243   5.388 -0.9515  0.8929 -3.6651
   32MOL   H35911581   4.174   3.091   5.381 -0.2299 -1.0362 -1.2300
   32MOL   H36011582   4.287   2.949   5.371  2.1179  1.1340  0.0175
   32MOL   H36111583   4.265   3.052   5.518  2.8012  1.1485  0.8107
   32MOL   H36211584   4.278   2.915   4.828  3.6079 -2.9545 -0.3869
   33MOL     C111585   6.884   7.050   6.030 -0.2867 -0.0088  0.1435
   33MOL     C211586   6.933   6.899   6.011  0.4292 -0.4441  0.0831
   33MOL     C311587   7.057   6.865   6.093 -0.6035 -0.7924 -0.1719
   33MOL     O411588   7.119   6.764   6.070 -0.2222 -0.2318  0.1902
   33MOL     O511589   7.083   6.943   6.197  0.2335 -0.0890 -0.4530
   33MOL     C611590   7.188   6.906   6.285  0.0867 -0.2881  0.5814
   33MOL     C711591   7.172   6.983   6.419 -0.3455  0.2495  0.2068
   33MOL     C811592   7.198   7.136   6.409  0.0016  0.1821  0.3100
   33MOL     H911593   6.780   7.062   6.000 -0.4545 -0.2240  0.6274
   33MOL    H1011594   6.901   7.082   6.133 -1.6065 -0.5624  0.5369
   33MOL    H1111595   6.954   6.885   5.905 -0.0195  0.2598 -0.0943
   33MOL    H1211596   7.192   6.798   6.298 -0.4610 -0.7101 -2.4296
   33MOL    H1311597   7.281   6.941   6.241 -0.6359  1.2321  0.2111
   33MOL    H1411598   7.076   6.962   6.467  0.3530 -1.4316  0.9040
   33MOL    H1511599   7.241   6.927   6.482 -1.3842 -0.8402  0.3930
   33MOL    H1611600   7.131   7.179   6.484  1.2609 -0.1116  1.6194
   33MOL    H1711601   7.305   7.150   6.426  0.3426 -1.7319 -0.1523
   33MOL    H1811602   7.168   7.177   6.313  2.2371 -0.0154 -0.4904
   33MOL    H1911603   6.942   7.122   5.973 -2.4886  1.2134 -0.5866
   33MOL    C2011604   6.824   6.803   6.070  0.7889 -0.5213  0.1534
   33MOL    C2111605   6.709   6.787   5.975  0.0506 -0.1223  0.5716
   33MOL    C2211606   6.740   6.701   5.850  0.2937 -0.7806  0.1464
   33MOL    O2311607   6.776   6.753   5.744  0.5584 -0.1329  0.1836
   33MOL    O2411608   6.743   6.572   5.880  0.1182  0.1095  0.6152
   33MOL    C2511609   6.791   6.481   5.787 -0.7186 -0.5888 -0.2858
   33MOL    C2611610   6.930   6.435   5.839  0.4941 -0.0748  0.6577
   33MOL    C2711611   6.930   6.339   5.961  0.4660  0.1292  0.3900
   33MOL    H2811612   6.795   6.822   6.173 -1.0360  2.2600 -0.8128
   33MOL    H2911613   6.847   6.697   6.081  0.3107 -0.6031  0.3877
   33MOL    H3011614   6.694   6.885   5.930  2.6484  0.2963  0.5454
   33MOL    H3111615   6.726   6.394   5.782 -1.5440 -0.0291  0.6027
   33MOL    H3211616   6.801   6.524   5.687 -0.2335 -0.2884 -0.1110
   33MOL    H3311617   6.974   6.375   5.760 -0.5243  0.4992 -0.3573
   33MOL    H3411618   6.994   6.520   5.864  1.0541 -0.5528  0.8626
   33MOL    H3511619   6.845   6.272   5.949 -0.2203  1.0504 -0.0177
   33MOL    H3611620   6.896   6.393   6.050 -1.1593 -0.4825  0.1630
   33MOL    H3711621   7.021   6.282   5.974 -0.2227 -0.6473  1.9677
   33MOL    C3811622   6.579   6.747   6.053  0.1847  0.1761  0.4813
   33MOL    C3911623   6.517   6.870   6.125  0.3311  0.3297 -0.1068
   33MOL    C4011624   6.466   6.971   6.019 -0.2555 -0.7418 -0.1992
   33MOL    O4111625   6.446   6.941   5.903  0.4018  0.3044  0.2907
   33MOL    O4211626   6.437   7.088   6.072  0.3229 -0.4642  0.2171
   33MOL    C4311627   6.389   7.194   5.993  0.0598  0.1539 -0.2230
   33MOL    C4411628   6.328   7.301   6.082  0.3721  0.1108  0.3552
   33MOL    C4511629   6.222   7.248   6.183 -0.4769 -0.3025  0.3346
   33MOL    H4611630   6.603   6.670   6.126  1.8935  0.7811  0.5792
   33MOL    H4711631   6.519   6.711   5.970  2.2467 -0.9283 -0.5357
   33MOL    H4811632   6.599   6.915   6.182  1.1706 -1.1056 -0.1404
   33MOL    H4911633   6.461   7.238   5.923 -0.7233  0.0902 -1.0796
   33MOL    H5011634   6.309   7.156   5.929 -0.5236 -1.2775  1.3447
   33MOL    H5111635   6.408   7.358   6.131  1.4390 -0.0372 -1.1654
   33MOL    H5211636   6.274   7.363   6.010 -1.2842 -1.5023  0.1910
   33MOL    H5311637   6.158   7.328   6.221 -1.5716 -2.2971  2.8441
   33MOL    H5411638   6.266   7.191   6.265  1.5472 -0.9608 -1.1536
   33MOL    H5511639   6.166   7.181   6.117  0.5132 -1.7509  0.9537
   33MOL    C5611640   6.402   6.834   6.215 -0.1735  0.0208 -0.5715
   33MOL    C5711641   6.267   6.780   6.159 -0.0448  0.1709  0.0378
   33MOL    C5811642   6.257   6.631   6.173 -0.4298 -0.0517  0.5867
   33MOL    O5911643   6.270   6.562   6.072 -0.0733 -0.0074  0.2802
   33MOL    O6011644   6.225   6.597   6.300  0.4399 -0.0990  0.1876
   33MOL    C6111645   6.176   6.464   6.318 -0.6778 -0.2631  0.2331
   33MOL    C6211646   6.030   6.438   6.274 -1.1412  0.0201 -0.2329
   33MOL    C6311647   5.943   6.453   6.397  0.2247  0.1563 -0.1874
   33MOL    H6411648   6.389   6.924   6.276 -1.4317 -0.7076  0.2509
   33MOL    H6511649   6.451   6.764   6.282 -2.0451  1.2756  2.2161
   33MOL    H6611650   6.256   6.805   6.054  1.0246 -0.5066 -0.2533
   33MOL    H6711651   6.229   6.392   6.255 -0.3085 -0.2506  0.5316
   33MOL    H6811652   6.186   6.434   6.422 -2.3056  1.7153  1.0017
   33MOL    H6911653   6.002   6.502   6.191 -0.9380 -0.5133 -0.7229
   33MOL    H7011654   6.010   6.336   6.239 -2.6110  0.7867 -1.6482
   33MOL    H7111655   5.981   6.381   6.470  0.8522 -0.4040 -1.0534
   33MOL    H7211656   5.850   6.409   6.361 -0.5270 -0.0360  1.9508
   33MOL    H7311657   5.926   6.554   6.434 -3.9416 -1.6441  3.2132
   33MOL    C7411658   6.147   6.853   6.221 -0.0611 -0.2384 -0.2448
   33MOL    C7511659   6.012   6.825   6.156  0.0613  0.2090 -0.0011
   33MOL    C7611660   5.897   6.841   6.254 -0.2387 -0.5538  0.3920
   33MOL    O7711661   5.836   6.748   6.302 -0.5257  0.5768  0.1294
   33MOL    O7811662   5.864   6.976   6.269  0.2153 -0.5189  0.1585
   33MOL    C7911663   5.754   7.014   6.357  0.0124  0.2375 -0.2894
   33MOL    C8011664   5.628   7.020   6.269  0.1407 -0.0317  0.3669
   33MOL    C8111665   5.641   7.133   6.162  0.7233 -0.0966 -0.3877
   33MOL    H8211666   6.166   6.960   6.235  1.5238 -0.7450  1.6895
   33MOL    H8311667   6.136   6.834   6.328 -1.5363 -3.1337 -0.8769
   33MOL    H8411668   6.012   6.718   6.135 -0.2024 -0.5200  3.3215
   33MOL    H8511669   5.729   6.936   6.429 -1.8715  1.4575  0.4082
   33MOL    H8611670   5.772   7.109   6.408 -0.4926  0.6665 -0.9149
   33MOL    H8711671   5.607   6.928   6.215 -0.6752  0.0476  0.5364
   33MOL    H8811672   5.531   7.023   6.320  0.3526  0.5329  0.7395
   33MOL    H8911673   5.626   7.228   6.214 -0.5124 -1.3614  1.6464
   33MOL    H9011674   5.564   7.115   6.088 -0.1448  2.0174 -0.0194
   33MOL    H9111675   5.739   7.129   6.114  1.2916 -1.4997  0.8491
   33MOL    C9211676   5.992   6.901   6.024 -0.2192 -0.1891 -0.1555
   33MOL    C9311677   5.854   6.876   5.948  0.7082 -0.1632  0.9386
   33MOL    C9411678   5.829   6.977   5.834  0.8853  0.5045  0.0059
   33MOL    O9511679   5.744   7.063   5.829 -0.3587  0.0934 -0.8897
   33MOL    O9611680   5.928   6.960   5.741  0.0115 -0.2509  0.0547
   33MOL    C9711681   5.941   7.051   5.634  0.1051  0.1952 -0.2728
   33MOL    C9811682   5.951   6.972   5.497 -0.8364  0.2290 -0.7638
   33MOL    C9911683   6.071   6.881   5.488  0.6515  0.2953 -0.0640
   33MOL   H10011684   6.082   6.896   5.964 -0.3506 -0.7057 -0.3150
   33MOL   H10111685   5.987   7.009   6.038 -2.8687 -0.1891 -0.9053
   33MOL   H10211686   5.776   6.903   6.019  0.3109  0.3249  0.3207
   33MOL   H10311687   5.867   7.131   5.634 -0.7232 -0.5700  0.8702
   33MOL   H10411688   6.032   7.110   5.644  0.3460 -0.0889 -0.7415
   33MOL   H10511689   5.865   6.904   5.494 -0.7234  0.0150  0.6007
   33MOL   H10611690   5.953   7.045   5.415 -0.1819  3.1007  1.7391
   33MOL   H10711691   6.065   6.799   5.560  1.2673 -1.8622 -2.3725
   33MOL   H10811692   6.161   6.938   5.507 -0.7452  1.7568  2.5083
   33MOL   H10911693   6.077   6.825   5.394 -0.1445 -1.2266  0.7718
   33MOL   C11011694   5.842   6.724   5.906  0.5132 -0.6917  0.1341
   33MOL   C11111695   5.699   6.685   5.850  0.4627 -0.8528 -0.4185
   33MOL   C11211696   5.689   6.686   5.698 -0.1288 -0.7338  0.0133
   33MOL   O11311697   5.590   6.728   5.642  0.0330 -0.1543 -0.1283
   33MOL   O11411698   5.792   6.619   5.633  0.5280 -0.1846 -0.0930
   33MOL   C11511699   5.802   6.593   5.493 -0.6414 -0.0483  0.3351
   33MOL   C11611700   5.933   6.509   5.474 -0.4431 -0.2565 -0.4707
   33MOL   C11711701   5.889   6.361   5.451 -0.1521 -0.2399  0.3899
   33MOL   H11811702   5.856   6.674   6.002  1.8664  2.2278  1.5092
   33MOL   H11911703   5.915   6.694   5.830 -1.1237 -1.8709 -1.0144
   33MOL   H12011704   5.620   6.753   5.881  1.3234  1.1732 -2.4756
   33MOL   H12111705   5.708   6.542   5.473 -1.4219  1.2962  0.5854
   33MOL   H12211706   5.808   6.685   5.435 -2.2999 -0.0704  0.1114
   33MOL   H12311707   5.990   6.552   5.392  0.7235 -0.2118  0.3484
   33MOL   H12411708   5.999   6.518   5.561 -0.5894  2.2626 -0.5892
   33MOL   H12511709   5.848   6.343   5.352 -0.2839 -1.0855  0.5955
   33MOL   H12611710   5.813   6.339   5.526 -1.7864  0.5770 -0.9834
   33MOL   H12711711   5.971   6.290   5.442  1.0445  1.1124  0.4698
   33MOL   C12811712   5.658   6.549   5.906  0.7484  0.5438 -0.8795
   33MOL   C12911713   5.612   6.538   6.050  0.0444 -0.5535  0.1901
   33MOL   C13011714   5.460   6.583   6.063  0.5939 -0.2906 -0.1515
   33MOL   O13111715   5.378   6.551   5.971 -0.3127  0.7581 -0.1529
   33MOL   O13211716   5.439   6.658   6.174  0.5292 -0.3353 -1.0615
   33MOL   C13311717   5.320   6.727   6.185 -0.2766 -0.4720 -0.4448
   33MOL   C13411718   5.285   6.698   6.330 -1.1275  0.0211  0.0444
   33MOL   C13511719   5.390   6.738   6.438 -0.2269 -0.2830  0.0492
   33MOL   H13611720   5.742   6.480   5.895  0.3758  0.0800 -0.8211
   33MOL   H13711721   5.577   6.502   5.851  0.1802 -0.1004  0.4661
   33MOL   H13811722   5.668   6.598   6.122  0.6489 -3.2256  2.0524
   33MOL   H13911723   5.326   6.834   6.165 -1.2551 -0.1457  0.9413
   33MOL   H14011724   5.244   6.689   6.116 -0.4293  0.9909 -1.1015
   33MOL   H14111725   5.187   6.742   6.349 -1.6343 -1.2274  0.3966
   33MOL   H14211726   5.274   6.590   6.335 -0.6645 -0.0445 -0.3727
   33MOL   H14311727   5.375   6.696   6.538 -1.5200  0.2271  0.0763
   33MOL   H14411728   5.392   6.846   6.448  1.9734 -0.3949  1.3887
   33MOL   H14511729   5.493   6.719   6.406 -0.7823  0.9105 -2.5440
   33MOL   C14611730   5.640   6.406   6.122  0.1549  0.4440 -0.5431
   33MOL   C14711731   5.559   6.278   6.074 -0.4312 -0.2025 -0.1605
   33MOL   C14811732   5.610   6.222   5.941 -0.1307 -0.2172 -0.0905
   33MOL   O14911733   5.530   6.214   5.847 -0.2242 -0.0293  0.5513
   33MOL   O15011734   5.741   6.221   5.930  0.0197 -0.3465  0.4403
   33MOL   C15111735   5.797   6.200   5.802  0.1019 -0.1779  0.5750
   33MOL   C15211736   5.953   6.223   5.812  0.4669 -0.2306 -0.3933
   33MOL   C15311737   6.006   6.367   5.849  0.1897  0.0390 -0.0406
   33MOL   H15411738   5.625   6.436   6.226  0.2730 -1.5999  0.0882
   33MOL   H15511739   5.747   6.387   6.125 -0.1519 -1.1810  0.4958
   33MOL   H15611740   5.457   6.314   6.057 -0.5931 -1.3970 -1.7677
   33MOL   H15711741   5.780   6.095   5.775  1.5727 -0.9986  2.7055
   33MOL   H15811742   5.751   6.266   5.729  0.3574 -1.4137 -0.7382
   33MOL   H15911743   5.996   6.143   5.873 -1.9633 -1.8699 -0.7449
   33MOL   H16011744   5.986   6.193   5.712 -0.8894  1.2080 -1.2924
   33MOL   H16111745   6.115   6.362   5.847  0.1523 -0.4378 -1.6869
   33MOL   H16211746   5.963   6.408   5.941 -1.7230  1.1598 -1.3899
   33MOL   H16311747   5.976   6.430   5.765 -0.7944  0.1260  0.3744
   33MOL   C16411748   5.547   6.171   6.186 -1.2431  0.3332 -0.1935
   33MOL   C16511749   5.457   6.050   6.153 -0.3583  0.9239  0.4522
   33MOL   C16611750   5.502   5.952   6.049 -0.8220 -0.2957  0.3381
   33MOL   O16711751   5.439   5.927   5.945  0.0551 -0.0184 -0.2188
   33MOL   O16811752   5.612   5.891   6.084 -0.3849  0.5473  0.8654
   33MOL   C16911753   5.684   5.808   5.994  0.1682  0.1772  0.0762
   33MOL   C17011754   5.814   5.756   6.061  0.5080 -0.2755  0.4059
   33MOL   C17111755   5.897   5.674   5.971  0.9534 -0.3193 -0.3634
   33MOL   H17211756   5.522   6.207   6.286 -0.4063 -2.9970  1.2589
   33MOL   H17311757   5.648   6.137   6.205 -0.9585  0.5006 -1.3602
   33MOL   H17411758   5.359   6.084   6.118 -0.1649  1.1667  0.1411
   33MOL   H17511759   5.616   5.730   5.960  1.2842 -1.0734  0.6790
   33MOL   H17611760   5.713   5.870   5.909  1.0761 -1.1411 -0.5869
   33MOL   H17711761   5.871   5.843   6.094  0.8403 -0.4283  0.2384
   33MOL   H17811762   5.809   5.692   6.149  1.1499  1.2649  1.5865
   33MOL   H17911763   5.890   5.717   5.871 -1.6142 -0.1079 -0.1257
   33MOL   H18011764   5.852   5.577   5.953 -0.4362  0.4686 -1.2583
   33MOL   H18111765   6.003   5.675   5.998  0.6634  2.1590  0.8993
   33MOL   C18211766   5.422   5.967   6.285 -0.1709  0.0120  0.9863
   33MOL   C18311767   5.276   5.994   6.339 -0.4313  0.3052  0.5476
   33MOL   C18411768   5.258   6.139   6.377  0.0942 -0.0369 -0.7399
   33MOL   O18511769   5.166   6.207   6.330 -0.0757 -0.1637 -0.3340
   33MOL   O18611770   5.347   6.186   6.476 -0.0444 -0.2156 -0.3905
   33MOL   C18711771   5.319   6.311   6.537  0.5550  0.3775 -0.1957
   33MOL   C18811772   5.436   6.341   6.644  0.2168 -0.5556 -0.6450
   33MOL   C18911773   5.572   6.379   6.584 -0.0524 -0.8598 -0.0825
   33MOL   H19011774   5.501   5.981   6.358  0.4135 -1.1193  0.5846
   33MOL   H19111775   5.427   5.859   6.270  0.5811  0.1357  0.3228
   33MOL   H19211776   5.276   5.937   6.433 -0.1049 -0.0880  0.3148
   33MOL   H19311777   5.299   6.388   6.463  0.3191  0.3105 -0.2011
   33MOL   H19411778   5.215   6.300   6.569  0.9071  0.0426  0.8642
   33MOL   H19511779   5.405   6.423   6.710 -1.6873 -1.2460 -0.6442
   33MOL   H19611780   5.438   6.257   6.713 -1.3287 -1.0253 -1.1570
   33MOL   H19711781   5.556   6.454   6.506  1.6152  0.1058  0.4933
   33MOL   H19811782   5.635   6.307   6.533 -0.7424 -1.7312  0.2875
   33MOL   H19911783   5.631   6.419   6.666 -3.8114  1.2674  1.7704
   33MOL   C20011784   5.164   5.942   6.240 -0.3734 -0.1438 -0.2920
   33MOL   C20111785   5.140   5.786   6.230 -0.2550  0.5317 -0.2870
   33MOL   C20211786   5.100   5.728   6.363 -0.3521 -0.3698 -0.0085
   33MOL   O20311787   5.043   5.783   6.453  0.1405 -0.6934 -0.3814
   33MOL   O20411788   5.152   5.596   6.371  0.1354 -0.0986  1.0688
   33MOL   C20511789   5.121   5.522   6.484 -0.7763 -0.4761  0.0005
   33MOL   C20611790   5.181   5.380   6.465  0.1517  0.1136 -0.0279
   33MOL   C20711791   5.124   5.307   6.341 -0.3051 -0.2650  0.1875
   33MOL   H20811792   5.180   5.983   6.140 -0.9597 -1.0093 -0.7533
   33MOL   H20911793   5.075   5.990   6.281 -0.7025 -1.9102  1.1416
   33MOL   H21011794   5.230   5.732   6.200 -0.6544 -1.5266  2.0961
   33MOL   H21111795   5.162   5.566   6.575 -0.6738  0.5482 -0.5408
   33MOL   H21211796   5.014   5.515   6.504 -0.3962 -2.3916  1.5974
   33MOL   H21311797   5.290   5.381   6.473  0.0168  1.0662  2.3584
   33MOL   H21411798   5.151   5.329   6.557 -2.2050 -0.4218 -1.0523
   33MOL   H21511799   5.140   5.200   6.348 -0.4541 -0.3143 -0.1861
   33MOL   H21611800   5.161   5.342   6.244  0.8028 -3.5432 -0.6225
   33MOL   H21711801   5.017   5.325   6.330  0.2137  3.7398  0.9568
   33MOL   C21811802   5.041   5.761   6.115  0.2316 -0.0521  0.7772
   33MOL   C21911803   5.099   5.710   5.981 -0.3028 -0.0728 -0.0023
   33MOL   C22011804   5.163   5.570   5.983 -0.1685  0.1644 -0.4234
   33MOL   O22111805   5.092   5.469   5.955 -0.4412 -0.1222 -0.6220
   33MOL   O22211806   5.281   5.563   6.032  0.0961  0.0043  0.7390
   33MOL   C22311807   5.347   5.437   6.030 -0.2334 -0.0115  0.2296
   33MOL   C22411808   5.489   5.455   6.079  0.0192 -0.2710  0.0322
   33MOL   C22511809   5.484   5.520   6.218  0.2866 -0.2668 -0.2562
   33MOL   H22611810   4.990   5.852   6.083  1.3982  0.4808  0.4157
   33MOL   H22711811   4.959   5.692   6.138 -0.5050  0.2406 -0.8587
   33MOL   H22811812   5.180   5.780   5.962  1.3120 -1.7739  0.4503
   33MOL   H22911813   5.298   5.360   6.091  0.9989 -0.3957  0.7477
   33MOL   H23011814   5.366   5.405   5.928  0.5794  1.2974 -0.0326
   33MOL   H23111815   5.536   5.357   6.081 -0.2110 -0.3663  0.8060
   33MOL   H23211816   5.537   5.522   6.007 -2.3302 -0.5655 -1.8791
   33MOL   H23311817   5.450   5.453   6.297 -0.7207 -0.3028 -0.7053
   33MOL   H23411818   5.425   5.612   6.218  0.1305 -0.3532 -1.1386
   33MOL   H23511819   5.585   5.547   6.247  0.0643 -1.3780  1.6128
   33MOL   C23611820   4.991   5.720   5.862  0.1626  0.4724  0.3168
   33MOL   C23711821   4.969   5.864   5.808 -0.1513 -0.3481 -0.5744
   33MOL   C23811822   5.091   5.943   5.763 -0.2939  0.0579  0.4441
   33MOL   O23911823   5.188   5.880   5.725  0.4864  0.3338 -0.2535
   33MOL   O24011824   5.083   6.069   5.789  0.4448  0.7239  0.3549
   33MOL   C24111825   5.194   6.148   5.783 -0.3924  0.4782 -0.2653
   33MOL   C24211826   5.171   6.289   5.834  0.6271  0.4773 -0.4060
   33MOL   C24311827   5.089   6.287   5.971 -0.7752  0.2084 -0.0424
   33MOL   H24411828   4.898   5.664   5.865  0.8777 -0.6606  1.3116
   33MOL   H24511829   5.026   5.662   5.776 -2.0996 -1.5259  0.6932
   33MOL   H24611830   4.949   5.928   5.894  2.7285 -0.2522  0.0813
   33MOL   H24711831   5.273   6.111   5.850 -0.3351  0.9413 -0.0797
   33MOL   H24811832   5.247   6.140   5.688 -0.4545  1.6737 -0.4027
   33MOL   H24911833   5.262   6.344   5.852 -0.2250  0.9120  2.9372
   33MOL   H25011834   5.109   6.348   5.767 -1.2460 -1.4180 -0.4024
   33MOL   H25111835   4.981   6.299   5.965 -0.7852 -0.1906 -0.7039
   33MOL   H25211836   5.132   6.359   6.041  1.8486  0.7422 -2.1201
   33MOL   H25311837   5.098   6.189   6.017  2.3699  1.0341  1.2371
   33MOL   C25411838   4.852   5.892   5.711  0.5555  0.2402  0.8160
   33MOL   C25511839   4.865   5.820   5.574 -0.0515 -0.2718  0.1080
   33MOL   C25611840   4.783   5.682   5.569  0.2283  0.1776 -0.1084
   33MOL   O25711841   4.712   5.646   5.661 -0.3937  0.4626 -0.6851
   33MOL   O25811842   4.795   5.622   5.458 -0.2315  0.2496 -0.2392
   33MOL   C25911843   4.736   5.503   5.423  0.5674  0.2290  0.0714
   33MOL   C26011844   4.809   5.435   5.309 -0.2666  0.2823 -0.2468
   33MOL   C26111845   4.788   5.497   5.162  0.1313 -0.4343  0.3240
   33MOL   H26211846   4.844   6.000   5.699 -1.6851  0.1822  1.5687
   33MOL   H26311847   4.754   5.873   5.754 -1.4149 -0.2620 -3.5778
   33MOL   H26411848   4.967   5.794   5.548 -0.3242 -1.5647  0.2687
   33MOL   H26511849   4.728   5.432   5.506 -0.8559  0.9422  0.5726
   33MOL   H26611850   4.633   5.533   5.403  0.8915  0.8498 -0.7156
   33MOL   H26711851   4.917   5.424   5.323 -0.1295  1.6018 -0.2370
   33MOL   H26811852   4.788   5.328   5.301  0.1473  0.3280 -2.3360
   33MOL   H26911853   4.856   5.440   5.099 -0.3327 -0.1187 -0.4724
   33MOL   H27011854   4.812   5.603   5.167 -0.3392 -0.2087 -1.9865
   33MOL   H27111855   4.686   5.485   5.125 -0.7503  1.3852  2.0536
   33MOL   C27211856   4.830   5.911   5.462 -0.5061  0.3454  0.1939
   33MOL   C27311857   4.901   5.878   5.325  0.5762 -0.1699 -0.2798
   33MOL   C27411858   4.819   5.932   5.205  0.5423  0.2337  0.0223
   33MOL   O27511859   4.717   5.998   5.218  0.4649 -0.3078 -0.1130
   33MOL   O27611860   4.882   5.894   5.088  0.6097  0.1981  0.2852
   33MOL   C27711861   4.830   5.940   4.966  0.1657 -0.1612  0.6435
   33MOL   C27811862   4.917   6.052   4.909 -0.1135  0.1887 -0.4008
   33MOL   C27911863   5.066   6.019   4.897  0.5785  0.5454  0.9876
   33MOL   H28011864   4.858   6.015   5.478  1.7544  0.0674 -1.6963
   33MOL   H28111865   4.723   5.919   5.449 -0.4153  0.9874 -0.1318
   33MOL   H28211866   4.889   5.772   5.305 -2.6896  0.3812 -1.5004
   33MOL   H28311867   4.823   5.863   4.889 -1.7131  0.7711 -0.1458
   33MOL   H28411868   4.729   5.978   4.978  0.6095  1.2320 -0.0192
   33MOL   H28511869   4.868   6.068   4.813 -2.5568  1.6896  1.0291
   33MOL   H28611870   4.906   6.144   4.967  0.8841  0.4123 -0.5632
   33MOL   H28711871   5.123   6.026   4.990  1.2596 -0.3118  0.6460
   33MOL   H28811872   5.109   6.086   4.823  1.9063 -1.0356  0.2908
   33MOL   H28911873   5.076   5.919   4.854 -0.3086 -0.3044  2.6888
   33MOL   C29011874   5.048   5.931   5.322 -0.3578  0.4153 -0.3609
   33MOL   C29111875   5.160   5.823   5.316 -0.9696  0.3529  0.2799
   33MOL   C29211876   5.144   5.703   5.219  0.5865  0.4885 -0.6047
   33MOL   O29311877   5.109   5.590   5.252  0.6788 -0.6589 -0.1183
   33MOL   O29411878   5.149   5.748   5.094  0.1981  0.8116 -0.7632
   33MOL   C29511879   5.097   5.670   4.988  0.0617  0.2015  0.2443
   33MOL   C29611880   5.205   5.574   4.943  0.8816  0.1284  0.6411
   33MOL   C29711881   5.159   5.498   4.818 -0.4428 -0.2375 -0.0308
   33MOL   H29811882   5.060   5.988   5.414  2.7624 -1.6202  0.5642
   33MOL   H29911883   5.053   5.998   5.236 -1.8558 -0.7204 -1.3512
   33MOL   H30011884   5.133   5.774   5.410 -1.2824 -1.1746 -0.6013
   33MOL   H30111885   5.013   5.606   5.015  1.1544 -0.5678  1.8786
   33MOL   H30211886   5.054   5.725   4.905 -3.0061 -0.9490  0.9929
   33MOL   H30311887   5.296   5.631   4.924  1.0531  0.1015  1.3824
   33MOL   H30411888   5.231   5.505   5.024  2.9515 -0.6702 -0.6309
   33MOL   H30511889   5.239   5.430   4.792  0.6274  1.4371 -1.2187
   33MOL   H30611890   5.145   5.562   4.731  0.1625 -1.8718 -1.3419
   33MOL   H30711891   5.068   5.441   4.836 -0.7822  0.3775  0.2258
   33MOL   C30811892   5.303   5.893   5.328 -0.1623 -0.0940  0.0846
   33MOL   C30911893   5.345   5.981   5.200  0.2627  0.3278 -0.5226
   33MOL   C31011894   5.378   6.129   5.249  0.3881 -0.0649 -0.2365
   33MOL   O31111895   5.310   6.226   5.218  0.0006 -0.0376  0.2002
   33MOL   O31211896   5.480   6.122   5.335  0.2801 -0.3796  0.2715
   33MOL   C31311897   5.522   6.251   5.389  0.4520  0.3577  0.2232
   33MOL   C31411898   5.431   6.307   5.506 -0.1082 -0.2856 -0.0846
   33MOL   C31511899   5.492   6.427   5.575 -0.0359  0.5944  0.3731
   33MOL   H31611900   5.370   5.807   5.343 -1.9212 -1.2077  1.7573
   33MOL   H31711901   5.317   5.947   5.422  3.5150 -0.2369 -0.3060
   33MOL   H31811902   5.248   5.992   5.152 -1.0019  2.8654  2.4675
   33MOL   H31911903   5.620   6.229   5.431  0.3331 -0.0989  0.2563
   33MOL   H32011904   5.543   6.330   5.316  1.7034  0.6804  0.9257
   33MOL   H32111905   5.332   6.331   5.469 -0.4717  0.5851  1.4616
   33MOL   H32211906   5.426   6.216   5.567 -2.3872 -0.4462 -0.4847
   33MOL   H32311907   5.596   6.410   5.604 -0.0525  0.0863  0.1312
   33MOL   H32411908   5.486   6.523   5.523 -0.5175  0.6791  0.5852
   33MOL   H32511909   5.455   6.438   5.677 -0.2383 -1.1690  0.5117
   33MOL   C32611910   5.455   5.905   5.098  0.7485 -0.0818 -0.6014
   33MOL   C32711911   5.473   5.989   4.968  0.5458 -0.3161 -0.1635
   33MOL   C32811912   5.555   6.116   4.972 -0.1492 -0.1555 -0.1351
   33MOL   O32911913   5.517   6.214   4.910  0.6315 -0.0315 -0.0971
   33MOL   O33011914   5.661   6.114   5.051 -0.1698  0.3170  0.3073
   33MOL   C33111915   5.762   6.216   5.064 -0.1373  0.7294  0.9301
   33MOL   C33211916   5.903   6.148   5.066  0.8629 -0.5824 -0.9759
   33MOL   C33311917   5.911   6.029   4.974 -0.0354 -0.3250  0.2576
   33MOL   H33411918   5.416   5.806   5.075 -0.8196  0.2692  0.4270
   33MOL   H33511919   5.548   5.891   5.153  0.5580  0.9689 -0.0022
   33MOL   H33611920   5.376   6.021   4.931  0.5801 -0.9843 -0.8267
   33MOL   H33711921   5.760   6.293   4.987  0.1512  1.1018  1.2928
   33MOL   H33811922   5.740   6.260   5.161 -1.0011  0.8164  0.7003
   33MOL   H33911923   5.984   6.216   5.040  0.0422  0.2008 -1.4880
   33MOL   H34011924   5.932   6.118   5.166  0.9720 -1.4081 -1.2486
   33MOL   H34111925   6.015   6.005   4.953 -0.3730 -2.1726  0.6646
   33MOL   H34211926   5.868   5.937   5.012  0.5165 -1.4977 -1.8800
   33MOL   H34311927   5.875   6.045   4.872 -0.6170  0.2949  0.5565
   33MOL   C34411928   5.527   5.894   4.864 -0.8386  0.0183 -0.2760
   33MOL   C34511929   5.538   5.959   4.719  0.1754  0.6287 -0.4154
   33MOL   C34611930   5.495   5.871   4.600 -0.6274 -0.0059 -0.0089
   33MOL   O34711931   5.574   5.809   4.528 -0.4343 -0.3426 -0.5085
   33MOL   O34811932   5.360   5.874   4.571 -0.0028 -0.0887 -0.0706
   33MOL   C34911933   5.299   5.802   4.466  0.4884  0.1400 -0.0411
   33MOL   C35011934   5.177   5.885   4.415  0.3711 -0.0383  0.3702
   33MOL   C35111935   5.085   5.938   4.523  0.5706 -0.2986  0.1807
   33MOL   H35211936   5.458   5.809   4.864 -2.6929  1.5114  0.2492
   33MOL   H35311937   5.625   5.861   4.899 -1.2113  0.7898  1.5342
   33MOL   H35411938   5.636   6.003   4.701 -0.2494  1.2978 -1.0640
   33MOL   H35511939   5.371   5.772   4.390  0.7935 -0.9151  0.6557
   33MOL   H35611940   5.280   5.704   4.510 -0.9898  0.2447 -0.4352
   33MOL   H35711941   5.209   5.958   4.341  0.2186 -1.1332 -0.7888
   33MOL   H35811942   5.131   5.812   4.348  0.7775  1.4608 -1.5976
   33MOL   H35911943   5.126   6.011   4.592  1.8933 -0.1165 -0.7720
   33MOL   H36011944   4.989   5.972   4.484 -0.7534 -3.6333  0.4187
   33MOL   H36111945   5.063   5.851   4.584  1.4972  0.3872  1.5165
   33MOL   H36211946   5.462   6.037   4.718 -1.7593 -1.1525  2.0150
   34MOL     C111947   3.339   3.602   7.072  0.5349  0.1720  0.3352
   34MOL     C211948   3.245   3.497   7.015  0.5383 -0.1951  0.7095
   34MOL     C311949   3.268   3.360   7.069 -0.7097  0.4071 -0.9421
   34MOL     O411950   3.253   3.258   6.996 -0.6817  0.4504 -0.5654
   34MOL     O511951   3.285   3.356   7.204 -0.1237  0.1025 -0.2156
   34MOL     C611952   3.298   3.238   7.279 -0.1127  0.7530 -0.3155
   34MOL     C711953   3.167   3.183   7.339  0.0002 -0.0909 -0.2208
   34MOL     C811954   3.113   3.276   7.449 -0.0095  0.2778  0.1884
   34MOL     H911955   3.323   3.705   7.040  0.0704  0.1051  0.3524
   34MOL    H1011956   3.348   3.609   7.181  2.0142  1.0188  0.1778
   34MOL    H1111957   3.269   3.489   6.909  1.4634  0.4474  0.8652
   34MOL    H1211958   3.337   3.156   7.219 -2.4565 -0.9767  0.4770
   34MOL    H1311959   3.368   3.260   7.360 -0.0580 -1.5679  0.3028
   34MOL    H1411960   3.092   3.180   7.260 -1.7636  1.5813  1.3284
   34MOL    H1511961   3.169   3.076   7.362 -1.5107 -0.2334 -0.7113
   34MOL    H1611962   3.175   3.280   7.539 -0.1175 -0.4705  0.3004
   34MOL    H1711963   3.109   3.378   7.412 -1.7109  0.4884  0.9101
   34MOL    H1811964   3.019   3.235   7.486  0.5744  0.9776  2.4914
   34MOL    H1911965   3.440   3.583   7.037  0.8475 -1.6638  2.1455
   34MOL    C2011966   3.092   3.529   7.022  0.1285 -0.2873  0.5786
   34MOL    C2111967   3.029   3.638   6.922 -0.2757 -0.1989  0.9611
   34MOL    C2211968   3.068   3.614   6.775  0.6431 -0.3964 -0.0788
   34MOL    O2311969   3.035   3.514   6.720  0.4670 -0.0094  0.2103
   34MOL    O2411970   3.142   3.716   6.726  0.1570 -0.1899  0.3035
   34MOL    C2511971   3.208   3.704   6.602 -0.2370  0.0024  0.3971
   34MOL    C2611972   3.344   3.634   6.614  0.1246 -0.0701 -0.1143
   34MOL    C2711973   3.414   3.639   6.480  0.1326 -0.2714  0.1479
   34MOL    H2811974   3.073   3.561   7.124 -1.1504  3.1645 -0.6466
   34MOL    H2911975   3.031   3.441   7.002 -1.1808  0.6206  0.4850
   34MOL    H3011976   3.074   3.730   6.959 -0.4843  0.2334  0.1649
   34MOL    H3111977   3.139   3.657   6.532  0.3807 -1.8454  1.0082
   34MOL    H3211978   3.219   3.809   6.573  0.5892  0.5859  2.6743
   34MOL    H3311979   3.399   3.705   6.676 -0.8633  0.2635  0.3940
   34MOL    H3411980   3.343   3.537   6.665  0.9930  0.0082  0.0547
   34MOL    H3511981   3.353   3.589   6.405 -0.5957 -0.6681  0.9996
   34MOL    H3611982   3.504   3.578   6.479 -0.3190 -0.9425  0.3009
   34MOL    H3711983   3.430   3.744   6.453  0.2901 -0.5905 -1.0026
   34MOL    C3811984   2.877   3.664   6.930 -0.1606 -0.2838 -0.5358
   34MOL    C3911985   2.819   3.712   7.070  0.2268 -0.0623 -0.2650
   34MOL    C4011986   2.823   3.868   7.075  0.1560  0.8454  0.2287
   34MOL    O4111987   2.886   3.936   6.995  0.3191  0.2080  0.2160
   34MOL    O4211988   2.760   3.919   7.184 -0.4611 -0.0140 -0.7203
   34MOL    C4311989   2.757   4.056   7.207  0.7003  0.0117 -0.2635
   34MOL    C4411990   2.672   4.099   7.330 -0.5597 -0.1434  0.2337
   34MOL    C4511991   2.743   4.048   7.463 -0.0790 -0.3264 -0.6813
   34MOL    H4611992   2.825   3.571   6.907  0.1276 -0.4736 -0.4129
   34MOL    H4711993   2.847   3.732   6.849 -1.0557 -0.5572 -0.4364
   34MOL    H4811994   2.893   3.691   7.147  1.2572  0.2161 -1.1766
   34MOL    H4911995   2.857   4.099   7.212  0.3407  0.9514 -1.0355
   34MOL    H5011996   2.702   4.112   7.131 -1.4741 -1.4245  0.1983
   34MOL    H5111997   2.682   4.208   7.325 -0.4892 -0.1278  0.7040
   34MOL    H5211998   2.566   4.072   7.321 -0.6582  0.2055  0.3131
   34MOL    H5311999   2.717   4.113   7.547  0.6826  0.4037 -1.0057
   34MOL    H5412000   2.851   4.065   7.458  0.1205 -1.7979 -1.3963
   34MOL    H5512001   2.721   3.942   7.476  1.6913 -1.0089 -2.7994
   34MOL    C5612002   2.681   3.657   7.118  0.0338 -0.1753 -0.0149
   34MOL    C5712003   2.658   3.502   7.122 -0.8602  0.2317  0.0608
   34MOL    C5812004   2.745   3.446   7.231  0.9512 -0.4938 -0.0398
   34MOL    O5912005   2.848   3.385   7.210  0.3624 -0.6118  0.3210
   34MOL    O6012006   2.707   3.483   7.355  0.2546 -0.0761  0.0971
   34MOL    C6112007   2.791   3.443   7.466 -0.5807  0.2693 -0.2820
   34MOL    C6212008   2.893   3.555   7.486  0.3714  0.5153 -0.3502
   34MOL    C6312009   2.954   3.545   7.631 -0.0377  0.1639  0.3501
   34MOL    H6412010   2.602   3.699   7.054 -0.7625 -0.9316  0.4595
   34MOL    H6512011   2.657   3.701   7.215  1.2008 -0.7448  0.5326
   34MOL    H6612012   2.694   3.462   7.026 -3.2190  0.4498 -0.9451
   34MOL    H6712013   2.729   3.436   7.555 -3.6082  1.7554 -2.1788
   34MOL    H6812014   2.832   3.342   7.461 -2.8649 -0.6106 -2.1337
   34MOL    H6912015   2.975   3.558   7.413 -0.1527 -2.0878 -1.0925
   34MOL    H7012016   2.850   3.655   7.481  0.5732  0.6384  0.3153
   34MOL    H7112017   2.993   3.642   7.664  1.1675  0.3166 -1.4404
   34MOL    H7212018   3.035   3.473   7.633 -1.0777 -1.1634 -2.5548
   34MOL    H7312019   2.882   3.516   7.707 -0.2772  1.9697  0.8387
   34MOL    C7412020   2.514   3.454   7.134  1.1115  0.2363  0.0106
   34MOL    C7512021   2.498   3.302   7.151 -0.0898 -0.2560  1.2691
   34MOL    C7612022   2.408   3.275   7.273 -0.0680  0.3859 -0.2976
   34MOL    O7712023   2.452   3.233   7.380  0.2351 -0.2426  0.2825
   34MOL    O7812024   2.277   3.315   7.261 -0.2483  0.0521  0.6661
   34MOL    C7912025   2.194   3.327   7.378  0.4393  0.2260  0.1387
   34MOL    C8012026   2.085   3.440   7.367 -0.8055 -0.0923 -0.1697
   34MOL    C8112027   1.971   3.402   7.271 -0.4041  0.4673  0.0541
   34MOL    H8212028   2.449   3.496   7.058 -1.9544 -0.3277  2.2509
   34MOL    H8312029   2.474   3.513   7.217 -0.2937  1.4320 -1.4884
   34MOL    H8412030   2.594   3.254   7.169  0.8891  1.0698 -0.2637
   34MOL    H8512031   2.145   3.230   7.392  1.2446 -0.0890  0.8852
   34MOL    H8612032   2.259   3.329   7.466  1.5638  1.2038 -0.7079
   34MOL    H8712033   2.039   3.453   7.465 -0.9487 -1.3303 -0.0622
   34MOL    H8812034   2.123   3.537   7.336 -1.5929  0.5585  0.8579
   34MOL    H8912035   1.919   3.307   7.288 -1.1016  0.7529 -0.4519
   34MOL    H9012036   2.017   3.398   7.173 -0.3602  0.1124  0.0879
   34MOL    H9112037   1.880   3.462   7.269 -2.2636 -2.2450  0.2242
   34MOL    C9212038   2.432   3.234   7.030  0.0553  0.1602 -0.6206
   34MOL    C9312039   2.528   3.193   6.923 -0.6217 -1.3890 -0.2609
   34MOL    C9412040   2.631   3.082   6.951 -0.2177  0.2872 -0.2514
   34MOL    O9512041   2.592   2.966   6.960 -0.3153  0.3020 -0.3642
   34MOL    O9612042   2.749   3.124   6.989  0.0710 -0.4246  0.7265
   34MOL    C9712043   2.855   3.034   7.011 -0.5627  0.4882 -0.5198
   34MOL    C9812044   2.989   3.106   6.972  0.4296  0.4783 -1.2542
   34MOL    C9912045   3.019   3.102   6.818 -0.3825  0.1745 -0.3100
   34MOL   H10012046   2.351   3.301   7.002 -0.2990 -0.6774 -1.6212
   34MOL   H10112047   2.381   3.146   7.067  0.1472  0.4082  0.1057
   34MOL   H10212048   2.598   3.276   6.911 -2.3386  0.0745 -0.3778
   34MOL   H10312049   2.861   3.024   7.120 -0.6689  1.1232 -0.4545
   34MOL   H10412050   2.839   2.934   6.971 -0.7315  0.3607 -0.1404
   34MOL   H10512051   2.978   3.212   6.997  1.0619  0.5268 -1.1555
   34MOL   H10612052   3.075   3.082   7.034 -0.3142 -2.0154 -1.1561
   34MOL   H10712053   2.990   3.002   6.787 -0.5988  0.7687 -2.0497
   34MOL   H10812054   3.127   3.099   6.801 -0.4117  0.3705 -0.5273
   34MOL   H10912055   2.977   3.179   6.754  0.7013 -0.5786 -1.9590
   34MOL   C11012056   2.464   3.177   6.790 -0.1118 -0.6730  0.0359
   34MOL   C11112057   2.410   3.313   6.732 -0.1238  0.0622  0.2818
   34MOL   C11212058   2.517   3.421   6.710  0.4255 -0.1542 -0.5351
   34MOL   O11312059   2.511   3.532   6.761 -0.3646 -0.5150  0.2231
   34MOL   O11412060   2.618   3.382   6.624 -0.0687 -0.2544  0.1759
   34MOL   C11512061   2.728   3.471   6.593  0.1735 -0.1008 -0.5292
   34MOL   C11612062   2.728   3.536   6.455  0.2641  0.7174 -0.4521
   34MOL   C11712063   2.847   3.636   6.432 -0.3563 -0.2333  0.0959
   34MOL   H11812064   2.380   3.111   6.812 -0.5862  0.0684  0.4786
   34MOL   H11912065   2.517   3.125   6.710  2.7413 -0.0239  1.4337
   34MOL   H12012066   2.340   3.364   6.798  0.6715  0.7052  0.6377
   34MOL   H12112067   2.751   3.550   6.664 -2.1514  0.9621 -0.8951
   34MOL   H12212068   2.814   3.405   6.600 -0.3983 -0.8606 -0.6205
   34MOL   H12312069   2.732   3.453   6.384  3.2639  0.0193  0.4760
   34MOL   H12412070   2.635   3.594   6.452 -0.5473 -0.4028  1.6549
   34MOL   H12512071   2.826   3.695   6.343 -0.5484  2.0100  1.5876
   34MOL   H12612072   2.946   3.589   6.431 -0.8911 -1.4185  1.2801
   34MOL   H12712073   2.848   3.699   6.521  1.0772 -0.0386 -0.0386
   34MOL   C12812074   2.342   3.294   6.590 -0.4090  0.2711  0.0804
   34MOL   C12912075   2.205   3.224   6.579  0.5942 -0.6281  0.4341
   34MOL   C13012076   2.101   3.268   6.680 -0.6999 -0.4099 -0.3117
   34MOL   O13112077   2.086   3.204   6.784 -0.1114 -0.1835 -0.2227
   34MOL   O13212078   2.027   3.376   6.645  0.4241  0.6203  0.6822
   34MOL   C13312079   1.921   3.419   6.730 -0.0014  0.4599  0.0950
   34MOL   C13412080   1.944   3.562   6.777  0.4958 -0.5539  0.1555
   34MOL   C13512081   2.052   3.576   6.872 -0.2990  0.1601 -0.2327
   34MOL   H13612082   2.420   3.247   6.530  0.9827  1.6195  0.7969
   34MOL   H13712083   2.314   3.390   6.546 -0.1964 -0.0464 -0.7476
   34MOL   H13812084   2.230   3.121   6.605 -0.3392 -0.8423  0.5110
   34MOL   H13912085   1.830   3.436   6.674 -0.1300  1.7336  0.6770
   34MOL   H14012086   1.907   3.349   6.813  0.3237  1.1607  0.7461
   34MOL   H14112087   1.976   3.626   6.695 -1.6049  1.3196  0.7326
   34MOL   H14212088   1.853   3.600   6.825 -0.2027 -1.6346 -0.2821
   34MOL   H14312089   2.039   3.673   6.921  1.2434 -0.1415  0.8023
   34MOL   H14412090   2.151   3.566   6.829  0.0280  3.1705 -0.3460
   34MOL   H14512091   2.046   3.503   6.952  0.5249  1.8908  1.4620
   34MOL   C14612092   2.165   3.205   6.430 -0.6934  0.2138  0.3997
   34MOL   C14712093   2.144   3.332   6.347 -0.3491 -0.7912  0.0060
   34MOL   C14812094   2.255   3.360   6.245  0.1174  0.6080  0.2326
   34MOL   O14912095   2.345   3.438   6.268 -0.5451 -0.4116 -0.0875
   34MOL   O15012096   2.257   3.273   6.143 -0.2190 -0.7584 -0.6137
   34MOL   C15112097   2.363   3.286   6.052  0.6294  0.1765 -0.4951
   34MOL   C15212098   2.339   3.214   5.920 -0.0887 -0.0086 -0.5933
   34MOL   C15312099   2.222   3.270   5.847  0.0719  0.5567 -0.7540
   34MOL   H15412100   2.067   3.158   6.437 -1.0030  1.1311  3.2619
   34MOL   H15512101   2.235   3.135   6.385 -2.0041 -0.2775 -0.9217
   34MOL   H15612102   2.151   3.421   6.410 -0.7766 -0.4602 -0.4057
   34MOL   H15712103   2.368   3.389   6.016  3.7226  0.8227  1.5824
   34MOL   H15812104   2.459   3.259   6.095  1.2898  0.9096 -1.4727
   34MOL   H15912105   2.436   3.225   5.872 -0.3477  0.4902 -1.0050
   34MOL   H16012106   2.327   3.106   5.929  0.6639 -0.0157  0.5016
   34MOL   H16112107   2.123   3.268   5.895 -0.1166  0.0735 -1.1650
   34MOL   H16212108   2.205   3.240   5.744  1.7339  0.7255 -1.0794
   34MOL   H16312109   2.256   3.372   5.831  1.4445  0.6324  2.2079
   34MOL   C16412110   2.004   3.341   6.295  0.7623 -0.1293  0.4632
   34MOL   C16512111   1.939   3.475   6.226 -0.4299 -0.0877 -0.6105
   34MOL   C16612112   1.952   3.597   6.312 -0.7201 -0.4642  0.4134
   34MOL   O16712113   1.857   3.632   6.385 -0.4871  0.0461  0.2749
   34MOL   O16812114   2.078   3.650   6.316 -0.3269  0.0935 -0.5318
   34MOL   C16912115   2.087   3.771   6.392 -0.5297  0.0951  0.3091
   34MOL   C17012116   2.231   3.789   6.425  0.2185  0.0637 -0.1290
   34MOL   C17112117   2.266   3.696   6.550  0.4077  0.3323  0.1133
   34MOL   H17212118   1.931   3.327   6.375 -0.3809  2.1946 -0.1263
   34MOL   H17312119   1.988   3.255   6.230 -0.1442 -0.4022  1.0353
   34MOL   H17412120   1.832   3.461   6.218 -0.6567 -3.3515  5.3563
   34MOL   H17512121   2.051   3.852   6.327 -0.4498  0.5195  0.7921
   34MOL   H17612122   2.031   3.767   6.485 -1.1734  0.5242 -0.0534
   34MOL   H17712123   2.303   3.771   6.345 -1.2275 -1.3289 -1.1587
   34MOL   H17812124   2.264   3.890   6.449 -1.3985  0.4110  0.7040
   34MOL   H17912125   2.370   3.693   6.583  0.3027 -0.3265  0.4083
   34MOL   H18012126   2.241   3.591   6.535 -0.3062  0.4449  0.5279
   34MOL   H18112127   2.203   3.721   6.635 -1.9061 -1.4085 -1.0413
   34MOL   C18212128   1.998   3.503   6.088 -0.1576 -0.1099 -0.0828
   34MOL   C18312129   1.905   3.577   5.986  0.2776  0.0512 -0.0295
   34MOL   C18412130   1.970   3.713   5.949 -1.1289 -0.3325 -0.2750
   34MOL   O18512131   2.009   3.734   5.828  0.0934 -1.0302  0.1472
   34MOL   O18612132   1.982   3.805   6.054  0.6748  0.0439  0.2307
   34MOL   C18712133   2.078   3.908   6.047 -0.8149  0.0292 -0.5643
   34MOL   C18812134   2.007   4.048   6.063 -0.9040 -0.9398  0.4447
   34MOL   C18912135   2.106   4.164   6.041  0.0949  0.5626  0.2739
   34MOL   H19012136   2.020   3.409   6.039  0.7691  0.8799 -1.5874
   34MOL   H19112137   2.099   3.544   6.094 -0.3033  0.2247  0.1237
   34MOL   H19212138   1.815   3.600   6.042 -0.1912 -0.8784 -0.3970
   34MOL   H19312139   2.156   3.896   6.122  0.6967 -1.5088 -2.3354
   34MOL   H19412140   2.125   3.901   5.949 -1.9200  1.9395 -1.2668
   34MOL   H19512141   1.921   4.056   5.997 -1.7964 -0.5224  1.6323
   34MOL   H19612142   1.977   4.064   6.167  2.0297  1.8898  0.9271
   34MOL   H19712143   2.183   4.176   6.117  0.1047 -0.2672  0.3971
   34MOL   H19812144   2.066   4.265   6.051  0.8395  0.7723  1.1112
   34MOL   H19912145   2.149   4.156   5.941 -2.3848  1.4386 -0.9313
   34MOL   C20012146   1.870   3.493   5.857 -0.0267 -0.3486  0.5958
   34MOL   C20112147   1.805   3.350   5.877  0.4772 -0.2227  0.5069
   34MOL   C20212148   1.689   3.335   5.980  0.0880 -0.5332  0.6628
   34MOL   O20312149   1.622   3.433   6.003 -0.4335 -0.2117 -0.5892
   34MOL   O20412150   1.676   3.211   6.031  0.2357  0.6339 -0.0141
   34MOL   C20512151   1.577   3.179   6.120  0.1131  0.6408 -0.5442
   34MOL   C20612152   1.477   3.091   6.049 -0.3539  0.2663  0.4640
   34MOL   C20712153   1.550   2.958   6.020  0.0866 -0.0529 -0.0150
   34MOL   H20812154   1.963   3.483   5.801 -1.0924 -1.0406 -1.0802
   34MOL   H20912155   1.796   3.552   5.803 -0.3144 -2.5638 -1.4886
   34MOL   H21012156   1.877   3.275   5.909 -0.5814 -2.3685 -1.9235
   34MOL   H21112157   1.617   3.117   6.201  1.4135  2.8642  0.5542
   34MOL   H21212158   1.532   3.265   6.168 -1.1126 -1.4238  2.1633
   34MOL   H21312159   1.391   3.069   6.113  1.4361 -1.7774  2.2518
   34MOL   H21412160   1.441   3.148   5.964 -0.3578  1.4931  1.2812
   34MOL   H21512161   1.611   2.946   5.931  1.8428 -0.5014  1.2275
   34MOL   H21612162   1.468   2.888   6.006 -0.1069  0.0344  0.6391
   34MOL   H21712163   1.585   2.916   6.114 -0.7715 -0.1180  0.2802
   34MOL   C21812164   1.764   3.305   5.735 -0.2320  0.0031  0.1986
   34MOL   C21912165   1.763   3.151   5.723  0.5352 -0.1968 -0.2099
   34MOL   C22012166   1.660   3.106   5.618 -0.4177 -0.0762 -0.0106
   34MOL   O22112167   1.683   3.067   5.504 -0.1939 -0.2085 -0.5057
   34MOL   O22212168   1.536   3.136   5.672  0.0052 -0.4814  0.7446
   34MOL   C22312169   1.423   3.123   5.592  0.7308 -0.0079  0.4199
   34MOL   C22412170   1.339   3.251   5.604  0.5656 -0.3070 -0.6576
   34MOL   C22512171   1.397   3.366   5.516  1.2651  0.1479 -0.1174
   34MOL   H22612172   1.834   3.346   5.662  0.1117 -1.0871 -0.0988
   34MOL   H22712173   1.666   3.344   5.706 -0.6019 -0.5649  0.6738
   34MOL   H22812174   1.721   3.110   5.815  0.4315 -1.8315 -0.9656
   34MOL   H22912175   1.423   3.093   5.487  2.9027 -1.7137  0.8727
   34MOL   H23012176   1.370   3.041   5.641 -0.8632 -0.8502 -2.5709
   34MOL   H23112177   1.241   3.242   5.556 -0.2987  1.4071  0.7081
   34MOL   H23212178   1.323   3.275   5.709 -0.2391 -2.4880 -0.2542
   34MOL   H23312179   1.326   3.448   5.515 -1.4794 -2.1519 -1.0729
   34MOL   H23412180   1.412   3.330   5.415  1.7669  1.2590 -0.4461
   34MOL   H23512181   1.497   3.394   5.549  1.7771 -2.2003  0.4207
   34MOL   C23612182   1.909   3.099   5.709 -0.1334 -0.6936  0.7677
   34MOL   C23712183   1.921   2.951   5.769 -0.0252 -0.1479  0.4860
   34MOL   C23812184   1.957   2.858   5.652  0.5357  1.0305 -0.3074
   34MOL   O23912185   2.070   2.866   5.604  0.5211 -0.2783  0.4866
   34MOL   O24012186   1.862   2.771   5.606 -0.3186  0.1286 -0.5204
   34MOL   C24112187   1.885   2.692   5.492  0.0148  0.1080 -0.1687
   34MOL   C24212188   1.798   2.742   5.379 -0.0275 -0.1439  0.2753
   34MOL   C24312189   1.754   2.620   5.289  0.2146 -0.0545 -0.0639
   34MOL   H24412190   1.979   3.173   5.747  0.3149 -0.7279  0.0188
   34MOL   H24512191   1.939   3.100   5.604 -2.2443  2.1458  0.1497
   34MOL   H24612192   1.826   2.915   5.811  0.6310 -1.9942  0.4338
   34MOL   H24712193   1.982   2.695   5.442  1.1311  0.5531  1.9564
   34MOL   H24812194   1.871   2.585   5.508  1.5643  0.0087  0.6450
   34MOL   H24912195   1.705   2.790   5.411  0.8564  2.3109 -0.7073
   34MOL   H25012196   1.847   2.817   5.318  0.9099 -0.6550  0.3871
   34MOL   H25112197   1.684   2.653   5.212 -0.8056 -0.8407  0.5049
   34MOL   H25212198   1.704   2.539   5.342 -1.6964  1.5705  0.6677
   34MOL   H25312199   1.848   2.582   5.249  0.2694 -0.6044  0.5674
   34MOL   C25412200   2.027   2.954   5.887  0.1998 -0.0433  0.3981
   34MOL   C25512201   2.009   2.848   5.999  0.1854  0.2745 -0.1960
   34MOL   C25612202   2.132   2.787   6.055 -0.7394 -0.0574 -0.2285
   34MOL   O25712203   2.167   2.672   6.031 -0.3776  0.3342  0.0389
   34MOL   O25812204   2.204   2.879   6.130  0.3995 -0.2753  0.4957
   34MOL   C25912205   2.327   2.831   6.184  0.6583 -0.4212 -0.0927
   34MOL   C26012206   2.340   2.854   6.333 -0.3170 -0.1445  0.1652
   34MOL   C26112207   2.224   2.806   6.417  0.1398  0.3101  0.1240
   34MOL   H26212208   2.033   3.046   5.944 -1.9532 -0.2439  0.9853
   34MOL   H26312209   2.128   2.938   5.848  1.3190  0.5418  2.9847
   34MOL   H26412210   1.966   2.765   5.943  0.3238 -2.2498  3.2730
   34MOL   H26512211   2.357   2.728   6.164  0.3502 -0.6083  0.3938
   34MOL   H26612212   2.401   2.895   6.136  0.8669 -1.0266 -0.5852
   34MOL   H26712213   2.432   2.807   6.367 -0.6150 -0.8760 -0.0284
   34MOL   H26812214   2.343   2.963   6.340 -1.5696 -0.1506  1.0622
   34MOL   H26912215   2.254   2.813   6.522  1.6203 -0.7463 -0.2189
   34MOL   H27012216   2.193   2.705   6.391  0.2613  0.4347 -0.5046
   34MOL   H27112217   2.141   2.871   6.392  0.9492 -0.5005 -5.0947
   34MOL   C27212218   1.903   2.889   6.109  0.5104  0.0330 -0.2761
   34MOL   C27312219   1.863   2.773   6.209 -0.0422 -0.3393 -0.3553
   34MOL   C27412220   1.789   2.841   6.331  0.7497 -0.2160  0.3197
   34MOL   O27512221   1.665   2.819   6.347 -0.2904  0.2400  0.2530
   34MOL   O27612222   1.867   2.914   6.409  0.4130 -0.4332  0.4438
   34MOL   C27712223   1.816   2.988   6.521 -0.1639 -0.1288  0.0503
   34MOL   C27812224   1.864   2.917   6.650 -0.3520 -0.0457  0.1827
   34MOL   C27912225   1.793   2.785   6.664  0.3377  0.0782  0.1235
   34MOL   H28012226   1.820   2.942   6.062 -1.4017 -1.3730  1.4170
   34MOL   H28112227   1.952   2.965   6.169  1.6016  1.4271 -2.8243
   34MOL   H28212228   1.952   2.733   6.257  1.6144  2.1574 -1.2252
   34MOL   H28312229   1.846   3.093   6.513  0.0230 -0.2337 -0.6901
   34MOL   H28412230   1.708   2.979   6.517 -0.1598  0.4880 -2.0392
   34MOL   H28512231   1.973   2.906   6.652 -0.2454  0.7467 -1.0196
   34MOL   H28612232   1.840   2.989   6.729 -0.5484  0.4168 -0.2963
   34MOL   H28712233   1.804   2.712   6.584 -1.9749  0.5953 -0.7130
   34MOL   H28812234   1.687   2.812   6.660 -0.3580 -2.4258  1.0470
   34MOL   H28912235   1.816   2.735   6.757  1.3870 -1.1114 -0.7600
   34MOL   C29012236   1.780   2.665   6.133  0.0036 -0.1307 -0.2701
   34MOL   C29112237   1.862   2.535   6.107  0.3892  0.0169 -0.1179
   34MOL   C29212238   1.874   2.460   6.237 -0.8643 -0.3573  0.7152
   34MOL   O29312239   1.813   2.358   6.255 -0.5362  0.5568 -0.1030
   34MOL   O29412240   1.962   2.519   6.321 -0.2906  0.1647  0.1888
   34MOL   C29512241   1.992   2.478   6.453  0.1996  0.0607  0.4572
   34MOL   C29612242   2.123   2.387   6.458  0.0620  0.2329  0.2660
   34MOL   C29712243   2.095   2.241   6.418  0.1527 -0.2326 -0.0670
   34MOL   H29812244   1.733   2.698   6.040 -1.0777  0.2424  0.4006
   34MOL   H29912245   1.698   2.640   6.200 -0.5458  1.7744 -0.2131
   34MOL   H30012246   1.960   2.570   6.074  0.0049  0.2495 -1.0299
   34MOL   H30112247   2.001   2.569   6.511  2.2039  1.3899 -1.8394
   34MOL   H30212248   1.917   2.414   6.500  1.8947 -1.3529  1.2778
   34MOL   H30312249   2.188   2.424   6.379  0.5918 -0.1361  0.5304
   34MOL   H30412250   2.174   2.381   6.554 -1.4751  0.0519  1.0825
   34MOL   H30512251   2.186   2.182   6.419 -0.7686 -1.7353  3.0285
   34MOL   H30612252   2.036   2.243   6.326 -3.6588  1.4708  2.3001
   34MOL   H30712253   2.024   2.189   6.482 -0.5311 -0.5951 -1.0974
   34MOL   C30812254   1.803   2.462   5.988 -0.7556  0.2661 -0.6606
   34MOL   C30912255   1.896   2.371   5.909 -0.2639  0.0204  0.0760
   34MOL   C31012256   1.928   2.234   5.975 -0.1789 -0.5062  0.6998
   34MOL   O31112257   2.038   2.211   6.029 -0.3347  0.3878 -0.0095
   34MOL   O31212258   1.825   2.157   5.978  0.1418  0.6872 -0.5738
   34MOL   C31312259   1.834   2.039   6.052  0.2175 -0.8915 -0.3306
   34MOL   C31412260   1.808   1.920   5.970  1.2942 -0.0270  0.2944
   34MOL   C31512261   1.662   1.899   5.927  0.4024 -0.6108  0.6660
   34MOL   H31612262   1.782   2.539   5.913 -2.0626 -0.3604 -0.9478
   34MOL   H31712263   1.712   2.404   6.003  0.9643 -2.7850 -1.7627
   34MOL   H31812264   1.992   2.422   5.906 -1.2280  1.8860  0.1664
   34MOL   H31912265   1.923   2.029   6.115  2.7064  0.0262 -3.5943
   34MOL   H32012266   1.755   2.052   6.126  1.8115  2.3178  0.8993
   34MOL   H32112267   1.874   1.928   5.884  0.4296 -0.9548 -0.4590
   34MOL   H32212268   1.843   1.831   6.023  1.2336 -0.0495  0.2966
   34MOL   H32312269   1.615   1.982   5.875 -0.5852 -0.1233  2.3174
   34MOL   H32412270   1.655   1.818   5.854 -2.5232 -0.8559  1.1467
   34MOL   H32512271   1.600   1.873   6.013 -2.6094 -0.7055 -1.4836
   34MOL   C32612272   1.856   2.354   5.755  0.3325  0.0456  0.1918
   34MOL   C32712273   1.721   2.277   5.723  0.2519 -0.3600  0.1033
   34MOL   C32812274   1.596   2.363   5.759  0.8214 -0.2050  0.5390
   34MOL   O32912275   1.521   2.336   5.852  0.2006  0.2298 -0.2674
   34MOL   O33012276   1.583   2.467   5.680  0.6150  0.5886 -0.4630
   34MOL   C33112277   1.458   2.533   5.674  0.1592 -0.0647 -0.2984
   34MOL   C33212278   1.479   2.658   5.575 -0.0698 -0.2025 -0.2639
   34MOL   C33312279   1.366   2.738   5.523 -0.0017 -0.5280 -0.6342
   34MOL   H33412280   1.939   2.306   5.703 -0.4555 -1.8948  0.7054
   34MOL   H33512281   1.849   2.454   5.712  2.7341 -0.2273 -0.8920
   34MOL   H33612282   1.722   2.187   5.785 -2.9940  0.3799  1.3296
   34MOL   H33712283   1.386   2.463   5.632  0.0911 -0.0402 -0.2234
   34MOL   H33812284   1.409   2.567   5.766  2.0347 -0.1899  0.7657
   34MOL   H33912285   1.533   2.741   5.620 -2.6698  0.0162  2.6802
   34MOL   H34012286   1.533   2.616   5.491  0.4583  2.2375 -1.1826
   34MOL   H34112287   1.291   2.671   5.482  0.4704 -0.0674 -2.2957
   34MOL   H34212288   1.310   2.780   5.606 -2.1590 -0.3755 -2.1211
   34MOL   H34312289   1.394   2.812   5.448  0.6386  0.3434  0.4385
   34MOL   C34412290   1.712   2.220   5.582 -0.5253 -0.5611 -0.1962
   34MOL   C34512291   1.607   2.108   5.562 -0.0854  0.5456 -0.5338
   34MOL   C34612292   1.611   2.051   5.420 -0.1633 -0.2251 -0.5095
   34MOL   O34712293   1.708   2.045   5.357 -0.1027 -0.6935  0.1064
   34MOL   O34812294   1.493   2.012   5.383 -0.1959  0.2737  0.5109
   34MOL   C34912295   1.468   1.959   5.258  0.0235 -0.8611 -0.4174
   34MOL   C35012296   1.523   1.822   5.246  0.2080  0.2634  0.5383
   34MOL   C35112297   1.455   1.718   5.338 -0.3327 -0.1159 -0.1763
   34MOL   H35212298   1.806   2.167   5.570  0.6978  0.9619  2.2160
   34MOL   H35312299   1.705   2.301   5.510  2.3040 -0.7083 -0.6850
   34MOL   H35412300   1.505   2.135   5.589 -0.5441  0.8354 -2.5121
   34MOL   H35512301   1.360   1.972   5.266  0.4993  2.9905  1.0149
   34MOL   H35612302   1.503   2.017   5.173 -1.1880 -0.9977 -1.0166
   34MOL   H35712303   1.509   1.794   5.142 -0.8540 -3.1296  1.5187
   34MOL   H35812304   1.630   1.808   5.257  0.2961 -1.1018 -1.7287
   34MOL   H35912305   1.347   1.715   5.332 -0.3295 -0.2360 -0.1854
   34MOL   H36012306   1.488   1.618   5.307  1.6591  0.5605 -0.3520
   34MOL   H36112307   1.470   1.734   5.445  0.6155 -3.1230  0.1918
   34MOL   H36212308   1.633   2.030   5.633  0.8493  0.4274 -1.0022
   35MOL     C112309   2.246   3.076   3.904 -0.0481 -0.2411 -0.2516
   35MOL     C212310   2.373   3.005   3.849 -0.0512 -1.1155  0.5094
   35MOL     C312311   2.406   3.066   3.716 -0.0367 -0.5592  0.0863
   35MOL     O412312   2.382   3.009   3.610  0.4025  0.1625  0.1957
   35MOL     O512313   2.461   3.188   3.729  0.3484 -0.7216  0.3151
   35MOL     C612314   2.521   3.256   3.619  0.2424  0.6602 -0.8170
   35MOL     C712315   2.673   3.273   3.640 -0.2739  0.6952  0.0734
   35MOL     C812316   2.693   3.352   3.764 -0.2810 -0.0067  0.2908
   35MOL     H912317   2.232   3.047   4.009 -0.6374  0.3740 -0.1644
   35MOL    H1012318   2.255   3.184   3.899 -1.2827 -0.0577  1.1195
   35MOL    H1112319   2.347   2.900   3.839 -2.3046 -0.3644 -2.2466
   35MOL    H1212320   2.491   3.206   3.527 -0.3058  1.7034 -1.2099
   35MOL    H1312321   2.474   3.354   3.616 -0.0881  0.5975  1.2115
   35MOL    H1412322   2.714   3.172   3.633 -1.4545  0.1382  0.9168
   35MOL    H1512323   2.710   3.325   3.551  0.1904  0.5316  0.1683
   35MOL    H1612324   2.664   3.290   3.848  2.0612 -2.4603 -0.6338
   35MOL    H1712325   2.797   3.381   3.779  0.7926 -2.8663 -1.3211
   35MOL    H1812326   2.621   3.434   3.755 -0.4678 -0.3935 -2.0934
   35MOL    H1912327   2.159   3.053   3.843  0.1932  0.4334 -0.8615
   35MOL    C2012328   2.488   2.994   3.950  0.0876  0.5985 -0.1200
   35MOL    C2112329   2.625   2.939   3.886  0.2648 -0.5643 -0.5642
   35MOL    C2212330   2.741   2.985   3.980  1.3480 -0.1853 -0.0797
   35MOL    O2312331   2.830   3.054   3.940 -0.7180 -0.1530 -0.1831
   35MOL    O2412332   2.734   2.940   4.110  0.4868 -0.7232  0.8659
   35MOL    C2512333   2.844   2.960   4.196 -0.1488 -0.4532 -0.1975
   35MOL    C2612334   2.790   2.967   4.334  0.4030 -0.0774 -0.0026
   35MOL    C2712335   2.730   2.832   4.387 -0.2997 -0.2332  0.1401
   35MOL    H2812336   2.455   2.938   4.038  1.6899 -2.2894 -1.2889
   35MOL    H2912337   2.503   3.094   3.990  0.3343  0.3637  0.3908
   35MOL    H3012338   2.642   2.978   3.786  1.6721 -1.6733 -0.7789
   35MOL    H3112339   2.919   2.882   4.184  1.3504  0.9454 -0.1132
   35MOL    H3212340   2.884   3.058   4.172  2.0349 -1.2045  0.3069
   35MOL    H3312341   2.871   2.999   4.399 -0.3049 -0.3074  0.9981
   35MOL    H3412342   2.708   3.040   4.336 -1.3683 -2.0338  0.2777
   35MOL    H3512343   2.677   2.846   4.481  1.7385  0.9043  1.1542
   35MOL    H3612344   2.801   2.750   4.399 -0.4877 -0.3644  0.3424
   35MOL    H3712345   2.655   2.807   4.312  0.3204 -1.5006 -0.0819
   35MOL    C3812346   2.631   2.789   3.869 -0.1273  0.1654 -0.7041
   35MOL    C3912347   2.595   2.736   3.727 -0.3204  0.3134 -0.5098
   35MOL    C4012348   2.672   2.811   3.616 -1.0688  0.5782  0.4062
   35MOL    O4112349   2.792   2.845   3.626  0.2905 -0.1529 -0.1274
   35MOL    O4212350   2.601   2.816   3.510 -0.1598 -0.1215  0.1096
   35MOL    C4312351   2.661   2.865   3.392  0.6594 -0.6496  0.3645
   35MOL    C4412352   2.599   2.786   3.276 -0.1251 -0.3177  0.0560
   35MOL    C4512353   2.658   2.838   3.146  0.0660 -0.4366 -0.1150
   35MOL    H4612354   2.565   2.747   3.945 -0.0396 -0.6960 -1.0942
   35MOL    H4712355   2.733   2.758   3.891  0.0569  0.4314 -1.1690
   35MOL    H4812356   2.492   2.766   3.710 -0.6279 -0.1266  0.5636
   35MOL    H4912357   2.626   2.966   3.370  1.5208 -0.1007  1.5124
   35MOL    H5012358   2.768   2.869   3.374  0.8602  1.0892  1.7916
   35MOL    H5112359   2.633   2.682   3.276 -2.1094 -1.0046 -0.8044
   35MOL    H5212360   2.490   2.794   3.266 -0.1107 -1.2663 -1.1102
   35MOL    H5312361   2.648   2.771   3.061  1.8426 -0.2975 -0.4649
   35MOL    H5412362   2.766   2.855   3.148  0.1991 -1.1944 -0.7785
   35MOL    H5512363   2.602   2.927   3.119  0.8631 -0.2809 -1.3189
   35MOL    C5612364   2.610   2.578   3.707  0.7802 -0.1452 -0.2591
   35MOL    C5712365   2.546   2.525   3.574 -0.6550  0.2664 -0.1442
   35MOL    C5812366   2.625   2.403   3.524 -0.4029 -0.0801  0.2929
   35MOL    O5912367   2.595   2.290   3.554 -0.2843 -0.2902 -0.6572
   35MOL    O6012368   2.732   2.444   3.442 -0.0451  0.0300 -0.2188
   35MOL    C6112369   2.809   2.344   3.385 -0.1696 -0.3365 -0.2395
   35MOL    C6212370   2.922   2.406   3.302 -0.2803  1.0023  0.2189
   35MOL    C6312371   2.870   2.458   3.165  0.4734  0.1123  0.1726
   35MOL    H6412372   2.577   2.515   3.789  2.8895  0.7821  1.3539
   35MOL    H6512373   2.717   2.556   3.700  0.6712 -0.7986  0.1805
   35MOL    H6612374   2.560   2.600   3.497 -1.5390  0.9280  0.3237
   35MOL    H6712375   2.844   2.277   3.463 -0.3234  0.8655  0.8768
   35MOL    H6812376   2.741   2.295   3.315  0.6295 -0.1135 -1.1897
   35MOL    H6912377   2.974   2.483   3.358  2.3592 -0.6444  0.0823
   35MOL    H7012378   2.989   2.322   3.282  1.5869  2.0689  1.8808
   35MOL    H7112379   2.811   2.381   3.115  2.1937 -1.6510  0.8028
   35MOL    H7212380   2.957   2.483   3.105 -0.6824 -0.7275 -1.8768
   35MOL    H7312381   2.814   2.551   3.181  0.0469  0.3307 -2.4363
   35MOL    C7412382   2.395   2.498   3.593  0.3939 -0.3026 -0.9054
   35MOL    C7512383   2.317   2.438   3.479 -0.1013  0.1606  0.7553
   35MOL    C7612384   2.187   2.367   3.529  0.6547  0.5333  0.0337
   35MOL    O7712385   2.076   2.422   3.514  0.1007  0.2179  0.0523
   35MOL    O7812386   2.211   2.245   3.578 -0.0900 -0.0726  0.1345
   35MOL    C7912387   2.099   2.164   3.623 -0.2591 -0.9289 -0.3593
   35MOL    C8012388   2.026   2.089   3.510  0.3737  0.5051 -0.3313
   35MOL    C8112389   2.116   2.035   3.403  0.0841 -0.3008  0.3954
   35MOL    H8212390   2.343   2.589   3.623 -0.3656 -1.4134  1.2713
   35MOL    H8312391   2.391   2.431   3.679 -0.5850  0.5024 -0.3157
   35MOL    H8412392   2.382   2.357   3.447  0.7910  0.7159  1.1390
   35MOL    H8512393   2.136   2.093   3.697  3.2825 -0.1677 -1.3006
   35MOL    H8612394   2.036   2.225   3.688 -0.9295 -0.3810 -1.5225
   35MOL    H8712395   1.966   2.008   3.552 -0.5701  1.2541 -0.2035
   35MOL    H8812396   1.950   2.152   3.465  0.9805  2.4847  1.3081
   35MOL    H8912397   2.046   1.999   3.327  0.2349  0.7374 -0.2397
   35MOL    H9012398   2.187   1.961   3.440  0.3050 -0.7988 -0.9832
   35MOL    H9112399   2.180   2.109   3.356  0.5992 -0.3546  1.0054
   35MOL    C9212400   2.293   2.533   3.359 -0.1282 -0.7300 -0.1363
   35MOL    C9312401   2.311   2.464   3.224  0.0087 -0.2832  0.9491
   35MOL    C9412402   2.231   2.537   3.124  0.6914  0.2205 -0.3978
   35MOL    O9512403   2.107   2.522   3.123 -0.3418 -0.3364  0.4101
   35MOL    O9612404   2.291   2.636   3.056 -0.0898 -0.0159 -0.2512
   35MOL    C9712405   2.212   2.713   2.968 -0.7288 -0.0459  0.2699
   35MOL    C9812406   2.261   2.856   2.983 -0.1476 -0.1207 -0.5198
   35MOL    C9912407   2.167   2.945   2.907  0.4903 -0.1998 -0.3490
   35MOL   H10012408   2.372   2.607   3.366 -0.7002 -0.2616  1.6073
   35MOL   H10112409   2.199   2.587   3.370 -0.0103 -0.1772 -1.6982
   35MOL   H10212410   2.257   2.369   3.229  0.1745 -0.2846  2.8938
   35MOL   H10312411   2.231   2.690   2.863  0.8802  2.6192 -0.0668
   35MOL   H10412412   2.105   2.698   2.982 -0.5605 -0.7332  0.8632
   35MOL   H10512413   2.266   2.895   3.085 -0.9969  0.0550 -0.5469
   35MOL   H10612414   2.368   2.870   2.964 -0.1773 -1.1323 -1.4429
   35MOL   H10712415   2.072   2.945   2.961  1.1908  0.5156  0.8932
   35MOL   H10812416   2.146   2.920   2.803  0.1064  1.7657 -0.7717
   35MOL   H10912417   2.202   3.048   2.912  1.0008 -0.4310  1.1378
   35MOL   C11012418   2.462   2.431   3.182 -0.0641 -0.0665 -0.1386
   35MOL   C11112419   2.489   2.325   3.073 -0.4092  0.5892 -0.3444
   35MOL   C11212420   2.451   2.188   3.127  0.1717 -0.2076 -0.6182
   35MOL   O11312421   2.351   2.134   3.091  0.4081  0.4605  0.7158
   35MOL   O11412422   2.540   2.129   3.215 -0.1784  1.1541  0.4156
   35MOL   C11512423   2.521   1.988   3.236  0.2474 -0.7063  0.1962
   35MOL   C11612424   2.641   1.933   3.305 -0.2592  0.5946 -0.1805
   35MOL   C11712425   2.652   1.983   3.451 -0.5981  0.0313  0.2821
   35MOL   H11812426   2.513   2.391   3.270  0.9564 -0.5661 -0.9384
   35MOL   H11912427   2.512   2.525   3.157 -0.5950  0.2454 -0.0181
   35MOL   H12012428   2.595   2.314   3.054 -0.8528 -2.2573 -1.3221
   35MOL   H12112429   2.436   1.974   3.303  0.6118 -2.1520  0.3717
   35MOL   H12212430   2.517   1.931   3.143  0.5377  0.8674 -0.8030
   35MOL   H12312431   2.654   1.825   3.293 -0.5188  0.8454 -3.0459
   35MOL   H12412432   2.728   1.974   3.253  0.3889  1.6437  1.6621
   35MOL   H12512433   2.744   1.950   3.499 -0.7143  0.7598  1.0160
   35MOL   H12612434   2.575   1.927   3.504  0.9464 -3.1965 -0.7460
   35MOL   H12712435   2.641   2.091   3.449  4.2706  0.6182 -2.0277
   35MOL   C12812436   2.429   2.350   2.928 -0.3515  0.5101  0.3224
   35MOL   C12912437   2.489   2.463   2.843 -0.5014  0.1790 -0.0968
   35MOL   C13012438   2.638   2.442   2.802  0.1495  0.3873  0.0821
   35MOL   O13112439   2.702   2.337   2.813 -0.6683  0.0160  0.8328
   35MOL   O13212440   2.688   2.561   2.762 -0.2072  0.2932  0.2177
   35MOL   C13312441   2.814   2.577   2.694 -0.3866 -0.7010 -0.4917
   35MOL   C13412442   2.930   2.592   2.786  0.1237 -0.4081 -0.6663
   35MOL   C13512443   2.916   2.709   2.880  0.4691 -0.8530  0.2295
   35MOL   H13612444   2.323   2.373   2.940 -0.2925  0.3359  1.2185
   35MOL   H13712445   2.439   2.254   2.877 -2.9387  1.0172 -1.2228
   35MOL   H13812446   2.483   2.552   2.906  0.9683  1.5919 -1.8679
   35MOL   H13912447   2.829   2.493   2.625  1.2980 -1.0387  0.2727
   35MOL   H14012448   2.808   2.667   2.633  2.0227 -0.8707 -1.0156
   35MOL   H14112449   2.938   2.503   2.849  1.6204 -0.8478 -1.4537
   35MOL   H14212450   3.028   2.608   2.742  0.7509  0.6368  1.0663
   35MOL   H14312451   2.850   2.788   2.843 -1.5351 -2.8255 -0.5988
   35MOL   H14412452   3.012   2.759   2.892 -0.0050  0.1277 -0.0079
   35MOL   H14512453   2.874   2.666   2.971  1.7597 -1.3122  0.6135
   35MOL   C14612454   2.402   2.503   2.724  0.6328 -0.1280  0.0732
   35MOL   C14712455   2.373   2.387   2.628 -0.5324  0.1940  0.7418
   35MOL   C14812456   2.256   2.290   2.670  0.4238  0.4477  0.2186
   35MOL   O14912457   2.173   2.327   2.749 -0.0548 -0.1881  0.0123
   35MOL   O15012458   2.253   2.172   2.611 -0.0037 -0.7995 -0.0516
   35MOL   C15112459   2.175   2.065   2.658 -0.4459 -0.9927 -0.6280
   35MOL   C15212460   2.074   2.031   2.551 -0.0531 -0.1026 -0.2786
   35MOL   C15312461   1.954   2.125   2.555 -0.2133  0.0141 -0.7470
   35MOL   H15412462   2.447   2.584   2.667 -0.7991 -0.2461 -1.2619
   35MOL   H15512463   2.307   2.551   2.748 -0.4437 -2.8800  1.5780
   35MOL   H15612464   2.458   2.319   2.621  0.1765  1.2213 -1.0634
   35MOL   H15712465   2.243   1.985   2.688  1.8514  1.0606 -0.2894
   35MOL   H15812466   2.120   2.093   2.748  0.3331 -0.7893 -0.2177
   35MOL   H15912467   2.121   2.030   2.453  1.2474  0.4718  0.3182
   35MOL   H16012468   2.045   1.930   2.580  2.6657  0.2756  4.3851
   35MOL   H16112469   1.884   2.123   2.471 -2.9532  0.6000  1.4305
   35MOL   H16212470   1.988   2.227   2.571  1.8255 -0.6650 -0.6582
   35MOL   H16312471   1.894   2.106   2.644  2.5051 -1.7997  0.7630
   35MOL   C16412472   2.333   2.442   2.486  0.2960  0.1539  0.7222
   35MOL   C16512473   2.440   2.459   2.374  0.8014 -0.0694  0.6648
   35MOL   C16612474   2.535   2.584   2.409  0.1658 -0.5740  0.2175
   35MOL   O16712475   2.650   2.567   2.445 -0.8299  0.6618 -0.4607
   35MOL   O16812476   2.463   2.703   2.407  0.4039  0.4801  0.1326
   35MOL   C16912477   2.538   2.815   2.433  0.1196 -0.0354  0.1995
   35MOL   C17012478   2.446   2.925   2.500  0.2911  0.8479  1.1079
   35MOL   C17112479   2.420   2.904   2.654  0.9312 -0.5732  0.4488
   35MOL   H17212480   2.284   2.539   2.498  2.7633  1.4030  0.9403
   35MOL   H17312481   2.250   2.385   2.444  0.9948 -2.0105  2.1714
   35MOL   H17412482   2.396   2.486   2.278  0.4591 -0.3217  0.7495
   35MOL   H17512483   2.621   2.797   2.502  0.2434 -0.4995 -0.0689
   35MOL   H17612484   2.583   2.851   2.340 -1.6079  1.6068 -0.0338
   35MOL   H17712485   2.491   3.023   2.485  0.3665  0.7458  0.6606
   35MOL   H17812486   2.351   2.921   2.447 -0.7338  1.0890  2.8922
   35MOL   H17912487   2.380   2.807   2.683  0.3754 -0.4320  0.1657
   35MOL   H18012488   2.355   2.985   2.687 -1.1059 -1.5337 -1.1042
   35MOL   H18112489   2.518   2.918   2.699  0.5962  0.0125  1.0029
   35MOL   C18212490   2.517   2.333   2.338 -0.1713 -0.2864 -0.3195
   35MOL   C18312491   2.435   2.210   2.280  0.2862  0.8107 -0.0573
   35MOL   C18412492   2.358   2.237   2.148 -1.0168  0.3860  0.9355
   35MOL   O18512493   2.356   2.349   2.097  0.4954  0.0399  0.7804
   35MOL   O18612494   2.291   2.133   2.093 -0.5174 -0.5330  0.1133
   35MOL   C18712495   2.205   2.166   1.978 -1.1187 -0.5560  0.1736
   35MOL   C18812496   2.175   2.027   1.907  0.5495  0.2826 -0.3409
   35MOL   C18912497   2.107   1.922   2.001 -0.3205  0.2921 -1.2737
   35MOL   H19012498   2.565   2.306   2.432 -0.7169 -0.6296 -0.1419
   35MOL   H19112499   2.589   2.355   2.259  1.1981 -1.6181  0.5218
   35MOL   H19212500   2.352   2.186   2.346  0.3198  1.6987  0.3161
   35MOL   H19312501   2.115   2.209   2.022 -1.7551 -1.1266 -0.5512
   35MOL   H19412502   2.255   2.238   1.914  1.6827  0.2306  3.1269
   35MOL   H19512503   2.107   2.038   1.823  0.1007  1.1305  0.1297
   35MOL   H19612504   2.266   1.983   1.865  0.1253 -0.6087 -0.3274
   35MOL   H19712505   2.042   1.966   2.077 -0.1452 -1.6661  0.0272
   35MOL   H19812506   2.176   1.857   2.056 -0.9612  1.1017  0.5504
   35MOL   H19912507   2.056   1.854   1.934  0.4480 -2.0619  0.4677
   35MOL   C20012508   2.509   2.078   2.274 -0.1551 -1.0665 -0.2422
   35MOL   C20112509   2.647   2.079   2.204 -0.5718  0.2392  0.1687
   35MOL   C20212510   2.759   2.113   2.303  0.1820  0.1887  0.2104
   35MOL   O20312511   2.800   2.033   2.390 -0.0680  0.0357  0.3617
   35MOL   O20412512   2.800   2.239   2.298 -0.0930 -0.4894  0.3272
   35MOL   C20512513   2.893   2.290   2.386 -0.2195  0.6386 -0.5270
   35MOL   C20612514   2.946   2.428   2.349 -0.5703  0.8871  0.2360
   35MOL   C20712515   3.019   2.444   2.213 -0.3417 -0.2709 -0.2871
   35MOL   H20812516   2.441   2.005   2.230 -1.3531 -0.6987  0.9605
   35MOL   H20912517   2.516   2.031   2.371  1.2356 -3.0032 -1.2507
   35MOL   H21012518   2.655   2.165   2.138  0.4827  0.1105  0.1147
   35MOL   H21112519   2.838   2.297   2.480 -0.9118 -2.4553 -0.6688
   35MOL   H21212520   2.975   2.219   2.396  0.0880  0.8954 -1.1950
   35MOL   H21312521   2.862   2.497   2.337  0.0695  1.5652 -0.3879
   35MOL   H21412522   3.008   2.478   2.425 -0.6682  0.7444  0.4086
   35MOL   H21512523   2.960   2.397   2.134  1.2261 -1.2094 -0.9142
   35MOL   H21612524   3.120   2.404   2.221  0.1738  1.2630  1.3019
   35MOL   H21712525   3.019   2.548   2.180 -0.3795  0.1877  1.1072
   35MOL   C21812526   2.672   1.942   2.142 -0.0001  1.2718  0.1448
   35MOL   C21912527   2.609   1.921   2.009 -0.2494  0.3467  0.2501
   35MOL   C22012528   2.648   2.025   1.904 -0.0518  0.4552 -0.0620
   35MOL   O22112529   2.759   2.071   1.900 -0.0290 -0.5801 -0.4109
   35MOL   O22212530   2.552   2.045   1.817  0.4837 -0.1687  0.2319
   35MOL   C22312531   2.567   2.138   1.708 -0.5858 -0.2347  0.0241
   35MOL   C22412532   2.441   2.226   1.698 -0.1286  0.1645 -0.1679
   35MOL   C22512533   2.430   2.300   1.568 -0.0226  0.6668  0.2434
   35MOL   H22612534   2.637   1.869   2.215  0.5325  2.0763  1.2284
   35MOL   H22712535   2.779   1.922   2.139 -0.4917 -1.2411 -1.3312
   35MOL   H22812536   2.501   1.930   2.014 -0.2406  0.9801 -0.5839
   35MOL   H22912537   2.653   2.203   1.724 -0.9903  0.3213  0.0098
   35MOL   H23012538   2.576   2.093   1.610 -0.3260  1.4513 -0.7495
   35MOL   H23112539   2.359   2.155   1.703 -0.6322  0.7344 -0.2609
   35MOL   H23212540   2.444   2.302   1.776  0.6482  1.2040 -1.1893
   35MOL   H23312541   2.516   2.361   1.541  0.1075 -0.0803 -1.0869
   35MOL   H23412542   2.347   2.365   1.542 -1.1936  0.3501  3.0521
   35MOL   H23512543   2.413   2.228   1.488  1.0711  0.1450  0.4653
   35MOL   C23612544   2.638   1.786   1.948 -0.3716  0.1517 -0.4109
   35MOL   C23712545   2.535   1.669   1.974 -0.2142  0.2233  0.1339
   35MOL   C23812546   2.505   1.631   2.121 -0.7478  0.9353 -0.3822
   35MOL   O23912547   2.571   1.553   2.186  0.4514 -0.0571  0.3669
   35MOL   O24012548   2.399   1.705   2.164 -0.5825  0.2239 -0.7964
   35MOL   C24112549   2.372   1.713   2.304  0.1750 -0.6437 -0.0976
   35MOL   C24212550   2.218   1.725   2.330 -0.4442 -0.4721  0.2855
   35MOL   C24312551   2.133   1.611   2.262 -0.5282 -0.6198 -0.3373
   35MOL   H24412552   2.727   1.741   1.993 -2.7535 -1.4830  2.8973
   35MOL   H24512553   2.661   1.790   1.842 -1.6510  2.5944 -0.6317
   35MOL   H24612554   2.597   1.588   1.935  0.7867  1.4962 -0.9617
   35MOL   H24712555   2.400   1.621   2.355 -0.2997 -0.5620  0.3158
   35MOL   H24812556   2.420   1.794   2.359 -0.1376 -0.0037 -0.7447
   35MOL   H24912557   2.202   1.712   2.437  1.4185 -0.6133  0.5693
   35MOL   H25012558   2.186   1.825   2.301 -0.1232  0.0044  1.5401
   35MOL   H25112559   2.175   1.518   2.302 -1.1255  0.2906  2.5005
   35MOL   H25212560   2.144   1.598   2.154  2.0653 -0.0040 -0.1786
   35MOL   H25312561   2.029   1.628   2.290 -0.3218  0.9914 -0.5459
   35MOL   C25412562   2.411   1.687   1.881 -0.3564  0.1314  0.7705
   35MOL   C25512563   2.307   1.569   1.865 -0.2880 -0.4589  0.3309
   35MOL   C25612564   2.177   1.621   1.800  0.4641  0.7425 -0.0782
   35MOL   O25712565   2.177   1.714   1.719 -0.1374  0.5952 -0.0499
   35MOL   O25812566   2.070   1.537   1.836 -0.6953 -0.3704  0.5037
   35MOL   C25912567   1.946   1.557   1.770 -1.1826  0.3794 -0.0202
   35MOL   C26012568   1.846   1.505   1.857  0.1269  0.2213  0.0951
   35MOL   C26112569   1.708   1.519   1.794  0.3169  0.4507 -0.8657
   35MOL   H26212570   2.442   1.710   1.779 -0.6618  0.5914  0.7796
   35MOL   H26312571   2.356   1.775   1.916  1.9838  1.3786  1.3659
   35MOL   H26412572   2.278   1.541   1.967  0.3848 -0.8534  0.4160
   35MOL   H26512573   1.928   1.659   1.738 -1.6023  0.1942 -0.3799
   35MOL   H26612574   1.943   1.502   1.677  1.0076 -2.2214  1.3806
   35MOL   H26712575   1.863   1.405   1.898 -0.8285  0.4805  1.1804
   35MOL   H26812576   1.839   1.563   1.950 -0.8807  0.9914 -0.4428
   35MOL   H26912577   1.703   1.461   1.702 -0.7252  0.4077 -0.7802
   35MOL   H27012578   1.690   1.623   1.768 -1.7791  0.9403  2.3613
   35MOL   H27112579   1.632   1.495   1.867  1.0913  3.0426  0.8464
   35MOL   C27212580   2.372   1.452   1.781  0.2663  0.0212 -0.7107
   35MOL   C27312581   2.437   1.347   1.874  0.3325  0.1878  0.2470
   35MOL   C27412582   2.346   1.284   1.977 -0.1733  0.3384 -0.4038
   35MOL   O27512583   2.240   1.219   1.954 -0.6177 -0.4003 -0.1810
   35MOL   O27612584   2.393   1.309   2.098 -0.7608 -0.2571 -0.2563
   35MOL   C27712585   2.342   1.255   2.213 -1.0970  0.2546  0.7635
   35MOL   C27812586   2.436   1.241   2.334 -0.9123  0.3059  0.3673
   35MOL   C27912587   2.551   1.147   2.301 -0.0596  0.0035 -0.4344
   35MOL   H28012588   2.439   1.485   1.701  0.1182  2.7377  0.2498
   35MOL   H28112589   2.294   1.398   1.727 -1.1724 -0.8006  2.1143
   35MOL   H28212590   2.517   1.397   1.928 -0.7385  1.1941  0.9460
   35MOL   H28312591   2.276   1.334   2.248  0.5004  2.2765 -0.6100
   35MOL   H28412592   2.298   1.156   2.204 -0.9496 -0.0514  3.0994
   35MOL   H28512593   2.488   1.331   2.369 -0.1540  0.6418 -1.5902
   35MOL   H28612594   2.400   1.195   2.426  2.4749 -1.0172  1.1072
   35MOL   H28712595   2.537   1.057   2.242 -0.4112 -0.5664  0.5107
   35MOL   H28812596   2.615   1.128   2.386  0.6100  1.1264 -0.6707
   35MOL   H28912597   2.623   1.202   2.241  2.3219 -2.0931  0.4375
   35MOL   C29012598   2.524   1.253   1.792 -0.1881 -0.6984  0.3707
   35MOL   C29112599   2.673   1.293   1.787 -0.5132  0.4495  0.0320
   35MOL   C29212600   2.739   1.289   1.926 -0.7564  0.4577  0.2696
   35MOL   O29312601   2.761   1.183   1.981 -0.2955 -0.0386  0.6167
   35MOL   O29412602   2.772   1.406   1.966  0.5877 -0.0953  0.1914
   35MOL   C29512603   2.880   1.399   2.067 -1.0432 -0.0222 -0.1235
   35MOL   C29612604   2.926   1.549   2.087  0.3204  0.8436 -0.9852
   35MOL   C29712605   2.963   1.611   1.954 -1.6025  0.3938  0.1014
   35MOL   H29812606   2.482   1.259   1.692 -2.6611  1.7568  1.4952
   35MOL   H29912607   2.520   1.147   1.819 -1.4298 -1.3417 -2.1482
   35MOL   H30012608   2.671   1.398   1.757  0.9326  0.1123 -1.3220
   35MOL   H30112609   2.831   1.365   2.158 -0.9265  0.6702  0.1960
   35MOL   H30212610   2.964   1.338   2.031 -1.2311  0.3285 -1.1591
   35MOL   H30312611   2.845   1.607   2.131 -0.1303 -1.1160  0.8974
   35MOL   H30412612   3.013   1.546   2.151 -0.2644 -0.5867 -0.2358
   35MOL   H30512613   3.045   1.548   1.921  1.3204  2.8614  2.3568
   35MOL   H30612614   3.006   1.706   1.985  0.6459 -0.7482  0.6391
   35MOL   H30712615   2.883   1.610   1.880 -1.1263 -0.6104 -0.4024
   35MOL   C30812616   2.754   1.213   1.678  0.4744 -0.6400 -0.0864
   35MOL   C30912617   2.888   1.272   1.629 -0.6937  0.3401  0.4454
   35MOL   C31012618   2.876   1.409   1.577  0.2062  0.3929 -0.6842
   35MOL   O31112619   2.930   1.496   1.642 -0.0677  0.7886 -0.0220
   35MOL   O31212620   2.795   1.421   1.472 -0.5512  0.1749 -0.3202
   35MOL   C31312621   2.793   1.541   1.406  0.0827  0.6771  0.1605
   35MOL   C31412622   2.667   1.628   1.437  0.6077 -0.2157  0.4263
   35MOL   C31512623   2.673   1.696   1.580 -0.6922  0.0121  0.3613
   35MOL   H31612624   2.689   1.223   1.591  0.2781 -0.6028  0.0638
   35MOL   H31712625   2.761   1.107   1.700 -1.1354 -0.8570 -0.5541
   35MOL   H31812626   2.908   1.213   1.539 -0.5882  1.6819 -0.4275
   35MOL   H31912627   2.881   1.605   1.409 -0.2076  1.1611 -1.4014
   35MOL   H32012628   2.800   1.513   1.301  1.2138 -1.4714  0.7872
   35MOL   H32112629   2.645   1.702   1.360 -0.6329 -1.0308 -0.0224
   35MOL   H32212630   2.572   1.574   1.440  0.5755 -0.0963  2.3657
   35MOL   H32312631   2.703   1.623   1.655  1.9493  2.0261  1.3177
   35MOL   H32412632   2.758   1.764   1.584 -1.2308  0.8600 -1.7064
   35MOL   H32512633   2.574   1.737   1.601  0.0755  1.7223  0.7089
   35MOL   C32612634   3.010   1.252   1.729  0.9425  0.7915 -0.5262
   35MOL   C32712635   3.147   1.282   1.662  0.7844  0.3375  0.7776
   35MOL   C32812636   3.256   1.288   1.767 -0.3791  0.3489 -0.5262
   35MOL   O32912637   3.314   1.399   1.783 -0.2063  0.4723 -0.1883
   35MOL   O33012638   3.273   1.173   1.832 -0.0229  0.8887 -0.6465
   35MOL   C33112639   3.350   1.172   1.951  0.1036  0.0873 -0.4202
   35MOL   C33212640   3.252   1.185   2.066  0.7516 -0.3874 -0.0527
   35MOL   C33312641   3.321   1.193   2.205  0.3304  0.1922  0.5301
   35MOL   H33412642   2.999   1.153   1.773  0.7488  1.7616  1.6719
   35MOL   H33512643   2.989   1.327   1.806  2.5572  0.6779  0.0282
   35MOL   H33612644   3.144   1.381   1.617 -0.8508 -0.4010 -0.7624
   35MOL   H33712645   3.404   1.079   1.968  1.0151  0.5999 -0.4348
   35MOL   H33812646   3.423   1.253   1.957 -0.8266  0.9965 -1.2229
   35MOL   H33912647   3.194   1.273   2.038  1.3695  0.0426 -0.0037
   35MOL   H34012648   3.189   1.096   2.060 -0.6369  0.5803 -0.0069
   35MOL   H34112649   3.356   1.093   2.232 -1.2822 -0.6042 -0.2332
   35MOL   H34212650   3.404   1.263   2.205 -0.9480  1.7795 -1.0430
   35MOL   H34312651   3.249   1.226   2.280 -0.4195 -2.0240  0.8325
   35MOL   C34412652   3.180   1.180   1.556  0.7627  0.0382 -0.1633
   35MOL   C34512653   3.280   1.226   1.463 -0.9313 -0.4579 -0.1568
   35MOL   C34612654   3.319   1.127   1.356 -0.5812 -0.1334 -0.0575
   35MOL   O34712655   3.315   1.004   1.373 -0.1616  0.3212 -0.3614
   35MOL   O34812656   3.341   1.184   1.235 -0.0009 -0.2405  0.0294
   35MOL   C34912657   3.410   1.101   1.142 -0.3726 -0.2068 -0.0881
   35MOL   C35012658   3.475   1.182   1.027  0.5054  0.1130 -0.6668
   35MOL   C35112659   3.556   1.107   0.931  0.2781 -0.4612 -0.0833
   35MOL   H35212660   3.098   1.150   1.490 -0.1486 -0.1753  1.0374
   35MOL   H35312661   3.215   1.086   1.598  0.0264  0.3284  1.1494
   35MOL   H35412662   3.376   1.236   1.515 -0.6872  1.6162 -0.9408
   35MOL   H35512663   3.493   1.059   1.198  0.4222  2.8489  1.0628
   35MOL   H35612664   3.350   1.022   1.095 -0.2628 -1.5040  1.8667
   35MOL   H35712665   3.395   1.234   0.976  0.1883 -0.6266 -0.9237
   35MOL   H35812666   3.537   1.259   1.073  0.1102  0.0396 -0.0059
   35MOL   H35912667   3.618   1.041   0.991 -0.3414  0.0088  1.0903
   35MOL   H36012668   3.508   1.047   0.854  1.5066 -0.1034 -1.1472
   35MOL   H36112669   3.622   1.169   0.870 -0.1770 -1.9455 -2.1319
   35MOL   H36212670   3.251   1.326   1.430 -0.6079 -1.2336 -2.9367
   36MOL     C112671   7.186   3.230   1.937  0.0754  0.1216  0.8278
   36MOL     C212672   7.156   3.156   2.071 -0.5477  0.7313  0.5140
   36MOL     C312673   7.074   3.230   2.170  0.0123  0.0562  0.0127
   36MOL     O412674   7.008   3.329   2.136  0.2772  0.8014 -0.0477
   36MOL     O512675   7.090   3.184   2.290  0.0140 -0.3534  0.3763
   36MOL     C612676   7.003   3.218   2.397  0.4933  0.0731 -0.5671
   36MOL     C712677   7.074   3.285   2.510 -0.3102 -0.3280  0.1072
   36MOL     C812678   7.164   3.189   2.584  0.2137 -0.3496 -0.2645
   36MOL     H912679   7.252   3.163   1.883 -0.6623  1.1788 -1.4342
   36MOL    H1012680   7.098   3.248   1.876  1.3267  0.4280 -0.9204
   36MOL    H1112681   7.253   3.147   2.120 -1.0369  0.7296  1.5012
   36MOL    H1212682   6.926   3.285   2.358 -0.0027 -1.0739 -1.5987
   36MOL    H1312683   6.965   3.123   2.435  1.8601 -0.1283  0.2982
   36MOL    H1412684   7.144   3.360   2.471 -3.5192  2.5701 -0.2624
   36MOL    H1512685   7.012   3.346   2.574 -1.2844 -0.2076 -0.9430
   36MOL    H1612686   7.210   3.118   2.515  2.3369  0.1930  0.5422
   36MOL    H1712687   7.236   3.246   2.643  0.3070 -0.0995 -0.6182
   36MOL    H1812688   7.113   3.123   2.655 -0.6190  0.4603 -0.0898
   36MOL    H1912689   7.244   3.322   1.949 -0.9810  0.7957  0.8260
   36MOL    C2012690   7.106   3.010   2.034 -0.4268  0.6517 -0.1633
   36MOL    C2112691   7.063   2.898   2.140 -0.1595 -0.4191 -0.4194
   36MOL    C2212692   7.033   2.770   2.068 -0.4274  0.4273  0.5045
   36MOL    O2312693   6.914   2.726   2.068 -0.5431  0.2957  0.1776
   36MOL    O2412694   7.141   2.720   1.992  0.1052 -0.5138  0.9903
   36MOL    C2512695   7.126   2.604   1.914  0.1944  0.2123 -0.3179
   36MOL    C2612696   7.214   2.493   1.983  0.2344 -0.6839  0.1530
   36MOL    C2712697   7.370   2.521   1.994  0.6998 -0.0461 -0.1001
   36MOL    H2812698   7.192   2.969   1.982 -0.5975  0.2696 -0.1528
   36MOL    H2912699   7.030   3.025   1.957 -1.0041 -2.1240 -0.1935
   36MOL    H3012700   6.971   2.925   2.191 -0.4456 -3.1195  0.5936
   36MOL    H3112701   7.024   2.567   1.913  0.2129  0.1468  0.1830
   36MOL    H3212702   7.153   2.612   1.808  1.7234 -0.2350  0.0210
   36MOL    H3312703   7.173   2.483   2.084 -2.4102  0.4310 -0.7709
   36MOL    H3412704   7.204   2.396   1.936  0.0960 -0.5162 -0.1651
   36MOL    H3512705   7.412   2.444   2.058  1.5544  1.4274  1.1340
   36MOL    H3612706   7.383   2.612   2.053 -1.4008  0.2427 -0.0457
   36MOL    H3712707   7.424   2.507   1.900  1.5174 -1.4742  0.5620
   36MOL    C3812708   7.178   2.881   2.238  0.5649  0.4555  0.0484
   36MOL    C3912709   7.145   2.769   2.330  0.3161  0.0890 -0.2746
   36MOL    C4012710   7.266   2.678   2.366 -0.9532  0.4701  0.4218
   36MOL    O4112711   7.266   2.558   2.339  0.0606 -0.4615  0.0145
   36MOL    O4212712   7.367   2.744   2.429 -0.1378  0.3438  0.2921
   36MOL    C4312713   7.482   2.675   2.464 -0.1775 -0.5046 -0.0467
   36MOL    C4412714   7.560   2.756   2.572  0.2690  0.4047 -0.2967
   36MOL    C4512715   7.523   2.698   2.712  0.2010  0.7536 -0.3437
   36MOL    H4612716   7.215   2.967   2.293  0.2681  0.9158 -0.4684
   36MOL    H4712717   7.269   2.862   2.180  0.7638  1.0072  0.1820
   36MOL    H4812718   7.076   2.699   2.282 -0.9470  0.8142  0.4498
   36MOL    H4912719   7.458   2.575   2.500 -0.8826 -0.1813  0.4018
   36MOL    H5012720   7.547   2.661   2.378  1.0894 -0.3945  0.8896
   36MOL    H5112721   7.667   2.737   2.564  0.1434 -1.3748  1.5287
   36MOL    H5212722   7.548   2.863   2.557  0.3719  0.3667 -0.6453
   36MOL    H5312723   7.589   2.728   2.793  0.1322  2.2803 -0.8341
   36MOL    H5412724   7.528   2.590   2.704 -1.3444  0.6460  0.0843
   36MOL    H5512725   7.424   2.743   2.718  0.6803  1.7009  0.7201
   36MOL    C5612726   7.088   2.829   2.462 -0.1187  0.3316  0.3427
   36MOL    C5712727   7.002   2.744   2.557  0.3294  0.6012 -0.3856
   36MOL    C5812728   6.891   2.667   2.479 -0.4123 -0.5455 -0.0909
   36MOL    O5912729   6.883   2.547   2.473  0.0939 -0.4828 -0.3053
   36MOL    O6012730   6.815   2.758   2.415  0.7497  0.3412 -0.3706
   36MOL    C6112731   6.708   2.723   2.329  1.0234 -0.2663  0.5611
   36MOL    C6212732   6.660   2.855   2.265 -0.8563 -0.3946  0.1767
   36MOL    C6312733   6.547   2.829   2.169 -0.0352 -0.3602 -0.1627
   36MOL    H6412734   7.025   2.916   2.442 -1.0275 -0.4174 -0.0989
   36MOL    H6512735   7.162   2.877   2.525 -0.8648  1.7759  0.1498
   36MOL    H6612736   6.958   2.816   2.626 -1.9064  0.0391 -1.1831
   36MOL    H6712737   6.723   2.653   2.247  1.1401  1.5865 -1.0247
   36MOL    H6812738   6.639   2.670   2.394  0.5590 -0.0874  0.2144
   36MOL    H6912739   6.645   2.940   2.332 -0.3414 -0.5620  0.5060
   36MOL    H7012740   6.744   2.887   2.203 -2.4142  1.1089 -1.2197
   36MOL    H7112741   6.462   2.788   2.224  1.0796 -0.8751  1.2046
   36MOL    H7212742   6.573   2.755   2.094 -0.5298 -1.5247  0.8031
   36MOL    H7312743   6.510   2.915   2.112 -0.0331 -1.5152 -1.9149
   36MOL    C7412744   7.092   2.649   2.652 -0.7499 -0.4537  0.1958
   36MOL    C7512745   7.017   2.611   2.789 -0.5440  0.5411 -0.0276
   36MOL    C7612746   7.097   2.500   2.854 -0.7602  0.3825  0.8485
   36MOL    O7712747   7.215   2.497   2.843 -0.3505 -0.4356  0.1996
   36MOL    O7812748   7.015   2.414   2.911 -0.2378 -0.1569  0.1956
   36MOL    C7912749   7.051   2.297   2.982 -0.1916 -0.2804  0.2295
   36MOL    C8012750   6.940   2.184   2.963  0.0052 -0.3948  0.0939
   36MOL    C8112751   6.806   2.223   3.033 -0.4831  0.0880 -0.3224
   36MOL    H8212752   7.188   2.692   2.679 -1.3723 -0.0788  1.9130
   36MOL    H8312753   7.114   2.559   2.594  3.6891 -0.0565  1.0748
   36MOL    H8412754   6.923   2.560   2.770  0.4353 -2.1806  2.0012
   36MOL    H8512755   7.146   2.266   2.938  0.3418  2.0947 -0.3235
   36MOL    H8612756   7.077   2.333   3.081  0.1063  0.6837 -0.1935
   36MOL    H8712757   6.911   2.170   2.859 -1.4976  1.0397  0.3130
   36MOL    H8812758   6.963   2.091   3.016 -1.8328 -0.2938  1.0838
   36MOL    H8912759   6.726   2.151   3.015 -2.4375  2.5208 -1.7373
   36MOL    H9012760   6.785   2.325   3.002  2.6910  0.7914 -0.3391
   36MOL    H9112761   6.817   2.213   3.141 -0.5466  0.4350 -0.2856
   36MOL    C9212762   6.998   2.740   2.882 -0.3420  0.1175 -0.9806
   36MOL    C9312763   6.909   2.710   3.006  0.2100 -0.4147  0.1155
   36MOL    C9412764   6.986   2.717   3.133  1.1399 -0.3178 -0.4530
   36MOL    O9512765   6.957   2.798   3.217 -0.1179  0.8295  0.0817
   36MOL    O9612766   7.092   2.630   3.137  0.0862 -0.1231  0.3816
   36MOL    C9712767   7.190   2.648   3.244  0.1664  0.4387  0.2486
   36MOL    C9812768   7.254   2.515   3.283 -0.4307  0.4530  0.9694
   36MOL    C9912769   7.390   2.530   3.356 -0.1696  0.2922  0.6449
   36MOL   H10012770   6.959   2.823   2.822 -3.2929 -1.1638 -0.8962
   36MOL   H10112771   7.097   2.761   2.922 -0.5628 -1.0024  0.1588
   36MOL   H10212772   6.891   2.603   3.004  3.3289 -1.0040  0.9720
   36MOL   H10312773   7.263   2.714   3.198  2.2680 -2.2678 -0.4537
   36MOL   H10412774   7.142   2.687   3.334  0.2844  0.0557  0.4835
   36MOL   H10512775   7.181   2.461   3.343  1.8437 -1.7886  1.8070
   36MOL   H10612776   7.274   2.449   3.199  2.0087 -0.1536  1.9828
   36MOL   H10712777   7.458   2.610   3.329 -0.2107  0.1040 -0.0338
   36MOL   H10812778   7.450   2.440   3.339 -0.4096  0.3955 -0.8502
   36MOL   H10912779   7.370   2.542   3.462  2.8388  4.5907  0.8477
   36MOL   C11012780   6.769   2.780   3.022 -0.2181 -0.1168 -0.2273
   36MOL   C11112781   6.676   2.756   2.907  0.0020 -0.1341  0.1946
   36MOL   C11212782   6.632   2.609   2.896  0.1747  0.1310  0.2364
   36MOL   O11312783   6.658   2.549   2.793  0.2983  0.2178  0.1453
   36MOL   O11412784   6.558   2.568   3.001 -0.4012  0.4196  0.3957
   36MOL   C11512785   6.522   2.431   3.006  1.2256  0.1448  0.1468
   36MOL   C11612786   6.366   2.414   3.012  0.2094 -0.1349 -0.4958
   36MOL   C11712787   6.304   2.477   3.136  0.0665 -0.2272  0.1295
   36MOL   H11812788   6.789   2.886   3.041  2.2861 -0.6256  0.2359
   36MOL   H11912789   6.719   2.756   3.115 -0.8634 -1.7101 -0.9657
   36MOL   H12012790   6.733   2.768   2.815 -1.2680 -1.2316 -0.7580
   36MOL   H12112791   6.553   2.374   2.919 -1.7247 -0.0674 -0.8307
   36MOL   H12212792   6.577   2.386   3.088  1.7061  0.1384 -0.1787
   36MOL   H12312793   6.323   2.461   2.923 -1.5051  0.0785  0.4198
   36MOL   H12412794   6.324   2.314   2.998  2.6063 -1.3309  0.6088
   36MOL   H12512795   6.311   2.398   3.211 -0.1311 -0.9251 -0.5819
   36MOL   H12612796   6.195   2.481   3.143  0.1486 -0.6415  2.0157
   36MOL   H12712797   6.347   2.567   3.180  0.2614 -0.2504 -0.0127
   36MOL   C12812798   6.552   2.852   2.898 -0.5302 -0.3053 -0.3295
   36MOL   C12912799   6.520   2.905   2.753  0.3280 -0.4180 -0.1704
   36MOL   C13012800   6.627   3.000   2.690 -0.9074  1.1039 -0.1836
   36MOL   O13112801   6.744   2.993   2.722  0.1547  0.0208 -0.1564
   36MOL   O13212802   6.582   3.073   2.599  0.4996  0.5482  0.1621
   36MOL   C13312803   6.669   3.168   2.544  0.0221 -0.2053 -0.6169
   36MOL   C13412804   6.596   3.274   2.464  0.7464  0.5754  0.7084
   36MOL   C13512805   6.545   3.220   2.332 -0.3475  0.4326  0.0671
   36MOL   H13612806   6.575   2.933   2.968 -0.9743  0.4206 -1.0182
   36MOL   H13712807   6.462   2.810   2.942 -0.3911 -1.7690 -1.3906
   36MOL   H13812808   6.438   2.974   2.774 -1.0008 -2.1337  0.3713
   36MOL   H13912809   6.748   3.205   2.610  0.3814 -0.5207 -0.8689
   36MOL   H14012810   6.731   3.112   2.473  2.3627 -0.4897  1.5575
   36MOL   H14112811   6.515   3.316   2.524 -0.3783 -1.3488  0.5764
   36MOL   H14212812   6.662   3.357   2.439 -4.0413  4.5749  0.4937
   36MOL   H14312813   6.537   3.306   2.265  0.9404  1.4333  1.1815
   36MOL   H14412814   6.451   3.164   2.325  0.8193 -1.7419  1.0428
   36MOL   H14512815   6.623   3.161   2.283 -0.7703 -1.6468  1.8010
   36MOL   C14612816   6.488   2.804   2.644 -0.0417 -0.2600  0.2375
   36MOL   C14712817   6.369   2.714   2.677  0.8453  0.3571 -0.2908
   36MOL   C14812818   6.260   2.798   2.746 -0.1267  0.5907  0.1626
   36MOL   O14912819   6.223   2.790   2.866 -0.0313  0.2244 -0.3361
   36MOL   O15012820   6.207   2.882   2.656 -0.7363  0.4722  0.3398
   36MOL   C15112821   6.117   2.982   2.697  0.1498 -0.4235  0.0183
   36MOL   C15212822   6.185   3.123   2.707 -0.1064 -0.0636 -0.0669
   36MOL   C15312823   6.245   3.181   2.577 -0.3292  0.0942 -0.2758
   36MOL   H15412824   6.571   2.739   2.615 -1.4709 -1.0668 -2.1886
   36MOL   H15512825   6.457   2.848   2.549 -1.3067 -0.8452  0.3766
   36MOL   H15612826   6.401   2.644   2.754  0.5550  0.2759 -0.2437
   36MOL   H15712827   6.045   2.987   2.616  0.2775 -1.9404 -0.2134
   36MOL   H15812828   6.061   2.952   2.786 -0.2016  1.1647  0.3573
   36MOL   H15912829   6.107   3.193   2.736  1.3278  0.5472  2.4202
   36MOL   H16012830   6.263   3.126   2.783  0.3610 -0.9453 -0.4935
   36MOL   H16112831   6.178   3.172   2.492 -3.8433  2.1521  2.1286
   36MOL   H16212832   6.336   3.130   2.544 -0.5492 -1.2764  1.1609
   36MOL   H16312833   6.270   3.287   2.586 -2.0008  0.3240  2.2298
   36MOL   C16412834   6.318   2.636   2.554 -0.1297 -0.7909 -0.2254
   36MOL   C16512835   6.233   2.504   2.595 -0.2639 -0.3298  0.8964
   36MOL   C16612836   6.089   2.543   2.626 -0.8552  0.6976  0.2131
   36MOL   O16712837   6.050   2.529   2.743  0.0963 -0.4063  0.0318
   36MOL   O16812838   6.011   2.580   2.519 -0.3503 -0.2630  0.1756
   36MOL   C16912839   5.888   2.636   2.551  0.1219  0.2149  1.1883
   36MOL   C17012840   5.783   2.522   2.556  0.1553  0.9416  0.0377
   36MOL   C17112841   5.759   2.444   2.427 -0.1845 -0.2142 -0.2672
   36MOL   H17212842   6.390   2.593   2.485  1.6867 -0.6371  1.5508
   36MOL   H17312843   6.245   2.701   2.504  0.7416  0.2248 -0.1794
   36MOL   H17412844   6.288   2.476   2.685  3.1217 -2.1710 -1.6336
   36MOL   H17512845   5.893   2.698   2.641 -0.7817  0.2004  1.2555
   36MOL   H17612846   5.880   2.705   2.467 -0.1228  0.2755  1.2626
   36MOL   H17712847   5.812   2.443   2.625 -1.9644 -0.2960 -0.4493
   36MOL   H17812848   5.688   2.562   2.590  1.4997  1.8414  2.9096
   36MOL   H17912849   5.854   2.409   2.387  0.1729  0.8281 -0.3473
   36MOL   H18012850   5.722   2.510   2.348 -1.5686  0.6394  1.0761
   36MOL   H18112851   5.686   2.364   2.438  0.3175 -0.6538 -0.1081
   36MOL   C18212852   6.237   2.387   2.493  1.3250 -0.0774  0.2019
   36MOL   C18312853   6.355   2.295   2.494  0.3051 -0.2451  0.0055
   36MOL   C18412854   6.365   2.226   2.632 -0.0093  0.3893 -0.0741
   36MOL   O18512855   6.473   2.217   2.689  0.1703 -0.4313  0.6061
   36MOL   O18612856   6.249   2.159   2.662  0.2877  0.4642  0.5481
   36MOL   C18712857   6.223   2.103   2.790  0.4212  0.3697  0.7583
   36MOL   C18812858   6.119   2.198   2.857 -0.7057  0.5199  0.5008
   36MOL   C18912859   5.979   2.183   2.792  0.7121 -0.3498  0.2678
   36MOL   H19012860   6.223   2.429   2.394  1.3961 -1.1093 -0.2507
   36MOL   H19112861   6.150   2.321   2.491  1.6268 -0.4451 -2.9229
   36MOL   H19212862   6.444   2.359   2.497 -0.9899  1.6118 -0.0913
   36MOL   H19312863   6.184   2.004   2.765  1.3813 -0.1286  1.2284
   36MOL   H19412864   6.313   2.086   2.849  0.9467  0.1333 -0.0982
   36MOL   H19512865   6.104   2.172   2.962  0.2060 -2.4824 -0.0506
   36MOL   H19612866   6.154   2.300   2.846  0.9434 -0.3885 -3.7636
   36MOL   H19712867   5.988   2.199   2.685 -0.4366  0.1305  0.2331
   36MOL   H19812868   5.911   2.256   2.837  0.0006 -1.0242  0.3099
   36MOL   H19912869   5.935   2.084   2.805 -1.5303  0.4993 -0.5759
   36MOL   C20012870   6.358   2.195   2.380 -0.1300 -0.2857  0.3940
   36MOL   C20112871   6.382   2.262   2.237 -0.5313  0.0438  0.3121
   36MOL   C20212872   6.513   2.342   2.228 -0.0012 -0.4738  0.3487
   36MOL   O20312873   6.527   2.461   2.187 -0.2946  0.3037 -0.2859
   36MOL   O20412874   6.614   2.266   2.255 -0.1211  0.0487 -0.1325
   36MOL   C20512875   6.747   2.322   2.243 -0.5691  0.2651 -0.2196
   36MOL   C20612876   6.852   2.225   2.303  0.0103 -0.2454 -0.1287
   36MOL   C20712877   6.990   2.281   2.272  0.5390  0.2694  0.5910
   36MOL   H20812878   6.258   2.151   2.377  0.5783 -1.7726 -1.7154
   36MOL   H20912879   6.438   2.123   2.396  0.2506 -0.0559 -0.4719
   36MOL   H21012880   6.298   2.330   2.223  0.1435  0.5798 -1.2024
   36MOL   H21112881   6.779   2.339   2.140 -1.0407 -2.8870 -0.9390
   36MOL   H21212882   6.760   2.416   2.296  4.6566 -0.7721  0.6209
   36MOL   H21312883   6.850   2.214   2.411 -0.8785  1.5843  0.0651
   36MOL   H21412884   6.838   2.123   2.266  3.5308  0.0220 -2.5494
   36MOL   H21512885   7.006   2.306   2.167 -1.3022 -1.5785 -0.1483
   36MOL   H21612886   7.070   2.210   2.297  1.1288  1.2185  1.4526
   36MOL   H21712887   7.016   2.371   2.328  1.4532  0.3812  0.0080
   36MOL   C21812888   6.387   2.165   2.122 -0.0743 -0.3563  0.6176
   36MOL   C21912889   6.264   2.072   2.124  0.5270 -0.4236 -0.2315
   36MOL   C22012890   6.125   2.143   2.129  0.3857  0.3224 -0.2440
   36MOL   O22112891   6.057   2.140   2.234 -0.5921 -0.6144  0.1010
   36MOL   O22212892   6.071   2.178   2.002  0.2379  0.1350  0.1907
   36MOL   C22312893   5.942   2.222   1.988 -0.1554 -0.3387 -0.9215
   36MOL   C22412894   5.880   2.158   1.859  0.0941  0.0911 -0.2145
   36MOL   C22512895   5.926   2.231   1.735  0.1225 -0.3521  0.1460
   36MOL   H22612896   6.480   2.107   2.126  0.3091  0.2064 -0.0257
   36MOL   H22712897   6.374   2.220   2.029 -0.1493 -2.0958 -0.4260
   36MOL   H22812898   6.278   2.005   2.208  0.6021 -3.2101 -2.4023
   36MOL   H22912899   5.878   2.182   2.066 -1.0585 -0.0484 -1.4990
   36MOL   H23012900   5.942   2.331   1.993 -1.3716 -0.3120 -1.3956
   36MOL   H23112901   5.887   2.049   1.853 -0.3677  0.0536 -0.0263
   36MOL   H23212902   5.774   2.182   1.855  0.6201  2.3322 -1.5312
   36MOL   H23312903   6.033   2.220   1.722  0.4757  0.4485  2.2358
   36MOL   H23412904   5.904   2.338   1.730  0.3461 -0.3819 -1.8443
   36MOL   H23512905   5.876   2.201   1.643 -1.5979 -0.7195  1.1591
   36MOL   C23612906   6.262   1.975   2.006 -0.1436  0.2858  0.7851
   36MOL   C23712907   6.276   2.037   1.858 -0.0168  0.5638 -0.4489
   36MOL   C23812908   6.413   2.083   1.818 -0.6366  0.1157 -0.4809
   36MOL   O23912909   6.424   2.175   1.746  0.0347  0.3538  0.7505
   36MOL   O24012910   6.512   2.007   1.868 -0.1120 -0.0052  0.7539
   36MOL   C24112911   6.642   2.036   1.822 -0.4196  0.6139  0.6644
   36MOL   C24212912   6.693   2.166   1.868  0.0877  0.2184  0.3486
   36MOL   C24312913   6.838   2.194   1.838  0.2428 -0.7480  0.0519
   36MOL   H24412914   6.173   1.914   2.023 -1.2075  0.8681 -2.3280
   36MOL   H24512915   6.344   1.906   2.026 -0.3785  0.2636  1.6991
   36MOL   H24612916   6.211   2.124   1.851 -0.7294  0.0151 -0.7147
   36MOL   H24712917   6.713   1.961   1.857 -0.5114  0.2669  0.1167
   36MOL   H24812918   6.660   2.024   1.715 -1.0280  0.1747  0.6064
   36MOL   H24912919   6.635   2.248   1.826  1.5554  1.9951  1.6951
   36MOL   H25012920   6.675   2.184   1.973 -1.5053 -2.0734  0.4948
   36MOL   H25112921   6.863   2.284   1.895  1.4425 -1.1185  0.1357
   36MOL   H25212922   6.867   2.206   1.733  1.5766 -1.8531  0.2707
   36MOL   H25312923   6.900   2.112   1.875  0.8497 -0.9046 -1.2755
   36MOL   C25412924   6.225   1.938   1.752 -0.7421  0.1881  0.8203
   36MOL   C25512925   6.302   1.805   1.740  0.0580  0.0297  0.1055
   36MOL   C25612926   6.259   1.695   1.839  0.1599  0.1234 -0.2050
   36MOL   O25712927   6.336   1.649   1.923  0.1898  0.5021 -0.0715
   36MOL   O25812928   6.139   1.658   1.813  0.3533 -0.4477 -0.0382
   36MOL   C25912929   6.070   1.566   1.893 -0.6024  0.2487  0.1689
   36MOL   C26012930   5.996   1.647   2.007 -0.2146 -0.1748  0.3669
   36MOL   C26112931   5.913   1.759   1.964 -0.3210  0.1331  0.3500
   36MOL   H26212932   6.218   1.992   1.657 -1.9335 -0.9662  0.2229
   36MOL   H26312933   6.120   1.913   1.767 -0.3399 -0.6978  2.1815
   36MOL   H26412934   6.404   1.821   1.774 -0.0505  1.2160 -0.0967
   36MOL   H26512935   6.000   1.511   1.829 -0.8634  0.7233  0.0419
   36MOL   H26612936   6.144   1.501   1.939 -0.5809 -2.0147 -2.8791
   36MOL   H26712937   5.942   1.573   2.066 -1.6938  2.2182  2.1056
   36MOL   H26812938   6.062   1.700   2.075 -2.2706  2.1391  0.6610
   36MOL   H26912939   5.889   1.819   2.051  3.0815 -1.0338  2.2022
   36MOL   H27012940   5.822   1.719   1.919  0.9319 -2.0574 -0.3013
   36MOL   H27112941   5.959   1.823   1.889  0.4980  0.1043  0.8243
   36MOL   C27212942   6.301   1.763   1.594 -0.0440  0.0570  0.2336
   36MOL   C27312943   6.365   1.618   1.569 -0.0112  0.7470  0.3004
   36MOL   C27412944   6.265   1.509   1.534  0.4732  0.2434 -0.0068
   36MOL   O27512945   6.278   1.405   1.593 -0.2225  0.3295 -0.1808
   36MOL   O27612946   6.171   1.546   1.445  0.1764  0.4045 -0.2194
   36MOL   C27712947   6.064   1.460   1.425  0.3255 -0.3718 -0.2519
   36MOL   C27812948   5.951   1.466   1.522 -0.5908 -0.9799 -0.1535
   36MOL   C27912949   5.913   1.600   1.576 -0.0260 -0.4365 -0.9463
   36MOL   H28012950   6.352   1.832   1.527 -0.6347  1.8308  1.5834
   36MOL   H28112951   6.197   1.755   1.563 -0.1976  1.0679  0.5017
   36MOL   H28212952   6.420   1.582   1.656 -1.8186 -0.2494  1.0469
   36MOL   H28312953   6.024   1.484   1.327 -1.9222 -1.0980  0.4534
   36MOL   H28412954   6.097   1.357   1.416 -2.1553 -1.1255 -1.2063
   36MOL   H28512955   5.863   1.415   1.482 -0.0378 -4.0813  2.3866
   36MOL   H28612956   5.976   1.408   1.611 -3.8301  0.6904  1.9510
   36MOL   H28712957   5.863   1.668   1.507 -1.8484 -1.7815 -0.9933
   36MOL   H28812958   5.992   1.657   1.626 -2.1308  1.3366  0.4880
   36MOL   H28912959   5.837   1.579   1.651 -1.3373 -2.2893 -2.7302
   36MOL   C29012960   6.473   1.632   1.455  0.4435 -0.0463  0.0710
   36MOL   C29112961   6.606   1.714   1.498 -0.0943  0.2115  0.3184
   36MOL   C29212962   6.682   1.650   1.616 -0.3050 -0.1560  0.0122
   36MOL   O29312963   6.697   1.709   1.721 -0.8619 -0.0792 -0.0013
   36MOL   O29412964   6.715   1.523   1.593  0.0654  0.4664  0.2143
   36MOL   C29512965   6.787   1.459   1.695 -0.1626 -0.4329  0.2879
   36MOL   C29612966   6.689   1.424   1.808 -0.7024  0.4621 -0.3049
   36MOL   C29712967   6.734   1.309   1.892  0.1648 -0.5911 -0.4527
   36MOL   H29812968   6.433   1.679   1.365 -2.8027 -0.6577  1.1281
   36MOL   H29912969   6.515   1.535   1.427  1.5245  0.5478 -0.4337
   36MOL   H30012970   6.574   1.808   1.545  0.4491 -1.0176  3.2752
   36MOL   H30112971   6.833   1.363   1.672  0.0431 -0.4216  0.6485
   36MOL   H30212972   6.878   1.508   1.730 -0.0162 -1.3604  1.2201
   36MOL   H30312973   6.671   1.508   1.875  1.4883  0.5507  0.1947
   36MOL   H30412974   6.592   1.396   1.767 -0.0459  0.8035 -2.1340
   36MOL   H30512975   6.655   1.290   1.965 -0.2744  2.1217 -0.1492
   36MOL   H30612976   6.835   1.329   1.926  0.0025  2.3832 -1.5839
   36MOL   H30712977   6.740   1.220   1.829  1.4660 -1.7150  1.2347
   36MOL   C30812978   6.704   1.741   1.371  0.1362 -0.0531 -0.0615
   36MOL   C30912979   6.643   1.831   1.262  0.1694  0.4215  0.3214
   36MOL   C31012980   6.598   1.960   1.327  0.9636 -0.3749  0.4687
   36MOL   O31112981   6.488   1.973   1.378 -0.0258 -0.3976 -0.6294
   36MOL   O31212982   6.697   2.053   1.323  0.6617 -0.5390 -0.2114
   36MOL   C31312983   6.680   2.173   1.395  0.7008 -0.5074 -0.2527
   36MOL   C31412984   6.784   2.283   1.346 -0.4007  0.0679  0.0485
   36MOL   C31512985   6.783   2.404   1.440  0.1477 -1.0636  0.4174
   36MOL   H31612986   6.733   1.644   1.331  1.0968  0.4605 -0.6438
   36MOL   H31712987   6.791   1.794   1.410 -1.2563  0.0260  3.0616
   36MOL   H31812988   6.550   1.786   1.228 -0.5338 -0.9139  3.8552
   36MOL   H31912989   6.584   2.221   1.372  1.0286  0.3068  0.0529
   36MOL   H32012990   6.685   2.165   1.503 -2.6024 -1.1214 -0.0724
   36MOL   H32112991   6.886   2.247   1.339 -1.0671 -1.3950 -2.9620
   36MOL   H32212992   6.761   2.327   1.248 -0.4118 -1.6690 -0.7386
   36MOL   H32312993   6.689   2.459   1.438  0.4528 -0.4625  1.7758
   36MOL   H32412994   6.801   2.366   1.540 -2.4967 -0.5954  1.1108
   36MOL   H32512995   6.858   2.475   1.404 -1.0449 -0.4882 -0.9874
   36MOL   C32612996   6.730   1.849   1.135  0.0414 -0.0561  0.5284
   36MOL   C32712997   6.739   1.720   1.039  0.2215  0.1016 -0.1621
   36MOL   C32812998   6.605   1.649   1.016  0.3681 -0.5131 -0.1812
   36MOL   O32912999   6.589   1.538   1.057  0.1031  0.2306  0.1881
   36MOL   O33013000   6.513   1.734   0.965 -0.1167  0.1286  0.0764
   36MOL   C33113001   6.384   1.680   0.953 -0.2097  0.2069 -0.1435
   36MOL   C33213002   6.319   1.680   1.101 -0.0057 -0.0242  0.7892
   36MOL   C33313003   6.165   1.688   1.098 -0.2601  0.3087  0.3130
   36MOL   H33413004   6.828   1.895   1.151  2.2052 -3.4083 -2.1898
   36MOL   H33513005   6.676   1.920   1.073  3.8041 -0.8557 -3.9451
   36MOL   H33613006   6.794   1.651   1.104  1.1370 -0.1264 -1.1666
   36MOL   H33713007   6.319   1.749   0.898 -0.1132 -0.1416 -0.6987
   36MOL   H33813008   6.390   1.580   0.912 -0.0433  0.3104 -0.3731
   36MOL   H33913009   6.356   1.597   1.161  2.3452  2.3804  2.7914
   36MOL   H34013010   6.355   1.772   1.148  1.3000 -0.2397  0.2482
   36MOL   H34113011   6.132   1.757   1.020 -1.1219 -0.8541 -0.3872
   36MOL   H34213012   6.130   1.589   1.068  0.1593 -0.0483  0.9882
   36MOL   H34313013   6.121   1.717   1.193 -2.2739  0.5964 -0.6827
   36MOL   C34413014   6.824   1.742   0.906 -0.6196 -0.1320  0.3588
   36MOL   C34513015   6.966   1.795   0.923 -0.0223  0.2339 -0.2042
   36MOL   C34613016   7.062   1.697   0.982 -0.5958  0.8679 -0.1407
   36MOL   O34713017   7.150   1.653   0.908  0.0031  0.2966 -0.5031
   36MOL   O34813018   7.040   1.673   1.110  0.5855 -0.9884  0.1588
   36MOL   C34913019   7.109   1.564   1.169 -0.9515 -0.1332  0.1480
   36MOL   C35013020   7.013   1.442   1.174  0.0621 -0.0582 -0.3731
   36MOL   C35113021   6.967   1.380   1.040 -0.3055  0.5219 -0.2438
   36MOL   H35213022   6.773   1.803   0.832  0.9751 -1.4041 -1.8184
   36MOL   H35313023   6.830   1.641   0.867  3.0407 -0.0324  0.4821
   36MOL   H35413024   6.960   1.879   0.992  0.4877  2.1465 -2.4502
   36MOL   H35513025   7.204   1.539   1.120 -0.7277 -2.1156  1.5368
   36MOL   H35613026   7.134   1.582   1.274  1.1167  4.1049 -0.9691
   36MOL   H35713027   7.053   1.368   1.243 -0.5365  0.7122  0.8138
   36MOL   H35813028   6.931   1.467   1.241 -1.2124  1.3168 -2.3935
   36MOL   H35913029   6.904   1.454   0.992 -0.5520  0.1618 -0.4812
   36MOL   H36013030   7.054   1.349   0.981 -1.4194 -0.7775 -1.2278
   36MOL   H36113031   6.913   1.286   1.056 -2.3107  2.2722  4.2558
   36MOL   H36213032   7.001   1.826   0.825  0.6598  0.2057  0.0244
   37MOL     C113033   1.031   4.608   5.719  0.3461 -0.1495  0.7543
   37MOL     C213034   1.002   4.680   5.583 -0.4557 -0.5278  0.0817
   37MOL     C313035   1.115   4.654   5.484  0.2186 -0.2722 -0.5363
   37MOL     O413036   1.131   4.541   5.436 -0.4737  0.6210 -0.4903
   37MOL     O513037   1.195   4.769   5.467  0.2155  0.0517  0.5208
   37MOL     C613038   1.304   4.764   5.384 -0.0062 -0.6981  0.5897
   37MOL     C713039   1.432   4.714   5.449  0.2842  0.2260  0.1378
   37MOL     C813040   1.540   4.723   5.341 -0.3745  0.2552 -0.4228
   37MOL     H913041   1.129   4.641   5.754  1.1182  0.1556 -1.6258
   37MOL    H1013042   0.948   4.632   5.786  0.2257  2.5437 -0.3070
   37MOL    H1113043   1.002   4.788   5.596  1.7717 -0.2545 -1.8328
   37MOL    H1213044   1.282   4.693   5.305 -1.3865 -2.3596  2.4176
   37MOL    H1313045   1.329   4.858   5.336  0.3259 -0.5419  1.0612
   37MOL    H1413046   1.458   4.769   5.539  2.2121  0.1415 -0.3437
   37MOL    H1513047   1.429   4.612   5.487 -1.9488 -0.6138 -2.1319
   37MOL    H1613048   1.545   4.821   5.294  0.1529 -0.1853 -1.2983
   37MOL    H1713049   1.631   4.695   5.394 -0.6229  1.2556  0.5603
   37MOL    H1813050   1.531   4.645   5.266 -1.0785  1.1636 -1.2960
   37MOL    H1913051   1.034   4.499   5.711 -2.7479 -0.1229 -1.5971
   37MOL    C2013052   0.860   4.630   5.518 -0.2813  0.3055 -0.1813
   37MOL    C2113053   0.720   4.678   5.569  0.0182 -0.5930 -0.1764
   37MOL    C2213054   0.713   4.830   5.602 -0.9902  0.3493  0.1859
   37MOL    O2313055   0.799   4.906   5.550 -0.3015  0.1334  0.1281
   37MOL    O2413056   0.610   4.855   5.687 -0.4657 -0.0723  0.6104
   37MOL    C2513057   0.569   4.990   5.709 -1.2713 -0.7470 -0.2644
   37MOL    C2613058   0.465   5.000   5.820  0.3753 -0.6136  0.3133
   37MOL    C2713059   0.323   4.963   5.774  0.1213  0.1917 -0.4644
   37MOL    H2813060   0.869   4.521   5.520  2.3257  0.4937  0.9411
   37MOL    H2913061   0.869   4.655   5.412  0.8984 -1.2405 -0.4678
   37MOL    H3013062   0.710   4.626   5.664 -0.9050 -2.5741 -1.3378
   37MOL    H3113063   0.659   5.044   5.738 -0.2454 -0.8301 -3.1524
   37MOL    H3213064   0.533   5.040   5.619 -1.5278 -2.0420 -0.8971
   37MOL    H3313065   0.472   4.938   5.909  1.9206 -1.0967 -0.1334
   37MOL    H3413066   0.468   5.105   5.851 -0.7871 -0.1730 -0.9893
   37MOL    H3513067   0.299   5.022   5.685 -1.5628  0.2186 -0.0023
   37MOL    H3613068   0.251   4.997   5.848 -1.9284 -1.0557 -1.8187
   37MOL    H3713069   0.316   4.855   5.755  3.6466 -0.3433  1.0215
   37MOL    C3813070   0.597   4.641   5.478 -0.2094 -0.3983 -0.2007
   37MOL    C3913071   0.589   4.503   5.410  0.0155  0.1890  0.1131
   37MOL    C4013072   0.604   4.387   5.502 -0.7258 -0.2790  0.0785
   37MOL    O4113073   0.555   4.396   5.611 -0.1779  0.8129  0.1704
   37MOL    O4213074   0.667   4.277   5.452  0.2601  0.2182 -0.2326
   37MOL    C4313075   0.712   4.167   5.539 -0.0110 -0.2307  0.1487
   37MOL    C4413076   0.848   4.121   5.479  0.1048  0.1250  0.2355
   37MOL    C4513077   0.945   4.230   5.449 -0.7044  0.7134 -0.4213
   37MOL    H4613078   0.602   4.712   5.395  1.1446  0.7209  0.7960
   37MOL    H4713079   0.502   4.659   5.528  0.5423  1.8366  0.4885
   37MOL    H4813080   0.684   4.500   5.357  0.1826 -2.4973  0.5059
   37MOL    H4913081   0.718   4.206   5.641 -1.2951 -2.4581  1.1231
   37MOL    H5013082   0.637   4.088   5.541 -0.7582  0.4313 -1.3345
   37MOL    H5113083   0.895   4.039   5.535  2.1849  0.8804 -0.3501
   37MOL    H5213084   0.830   4.070   5.385  2.2337 -1.0028  0.3845
   37MOL    H5313085   0.906   4.306   5.382 -1.0578  0.7793 -0.1382
   37MOL    H5413086   1.041   4.204   5.403  0.1292  1.4199  0.8917
   37MOL    H5513087   0.974   4.277   5.543  0.8161  1.4452 -1.2390
   37MOL    C5613088   0.475   4.492   5.302  0.1365  0.1608  1.0380
   37MOL    C5713089   0.531   4.537   5.169 -0.2658  0.1005  0.9101
   37MOL    C5813090   0.621   4.433   5.107 -0.3549 -0.7527  0.1123
   37MOL    O5913091   0.743   4.445   5.119 -0.0018 -0.6379 -0.1705
   37MOL    O6013092   0.551   4.330   5.043 -0.3605  0.6699  0.0712
   37MOL    C6113093   0.624   4.229   4.981  0.1985  0.3224 -0.5863
   37MOL    C6213094   0.677   4.131   5.090  0.2188  0.1596  0.3373
   37MOL    C6313095   0.771   4.033   5.027  0.7727  0.1909  0.2117
   37MOL    H6413096   0.386   4.549   5.330 -0.3025  0.5883 -1.1213
   37MOL    H6513097   0.435   4.391   5.293 -0.9512  0.2293  4.2321
   37MOL    H6613098   0.594   4.624   5.189  0.2648 -0.3178  1.0470
   37MOL    H6713099   0.561   4.163   4.921  1.2776 -3.4964  2.2871
   37MOL    H6813100   0.706   4.263   4.919  0.4701  1.2627  0.2662
   37MOL    H6913101   0.727   4.179   5.174  0.9670 -0.4059  0.2191
   37MOL    H7013102   0.591   4.076   5.130  0.2824  0.1320  0.4388
   37MOL    H7113103   0.864   4.080   4.997  0.1474  1.9956  1.0407
   37MOL    H7213104   0.723   3.975   4.948 -1.8435  0.9581  1.1670
   37MOL    H7313105   0.804   3.955   5.095  1.1127 -0.4377 -0.6652
   37MOL    C7413106   0.424   4.592   5.070  0.3488  0.1691  0.4153
   37MOL    C7513107   0.367   4.728   5.116 -0.2210 -0.3614  0.6793
   37MOL    C7613108   0.473   4.834   5.098  0.5537 -1.2350 -0.5756
   37MOL    O7713109   0.520   4.859   4.983 -0.6520  0.5806  0.1424
   37MOL    O7813110   0.509   4.893   5.215 -0.1290  0.2380 -0.3357
   37MOL    C7913111   0.626   4.962   5.228 -0.2918  0.2361  0.8407
   37MOL    C8013112   0.627   5.102   5.167 -0.1940  0.7086  0.3643
   37MOL    C8113113   0.508   5.174   5.222 -0.4218  0.7122  0.0178
   37MOL    H8213114   0.332   4.533   5.074  0.2954  0.1667 -0.7847
   37MOL    H8313115   0.452   4.608   4.966  0.8113  0.3067  0.5586
   37MOL    H8413116   0.350   4.723   5.224 -3.0353  0.0764  0.2776
   37MOL    H8513117   0.648   4.962   5.334  0.7911  0.5311  0.6199
   37MOL    H8613118   0.706   4.909   5.176  0.4897  1.3174  0.9100
   37MOL    H8713119   0.718   5.143   5.210  0.8666 -0.8104 -0.3965
   37MOL    H8813120   0.623   5.099   5.058 -1.1995  0.9495  0.3867
   37MOL    H8913121   0.479   5.138   5.321  1.3400 -1.6243 -0.2733
   37MOL    H9013122   0.428   5.175   5.147 -0.3079  2.9179 -0.0896
   37MOL    H9113123   0.535   5.277   5.245  0.6779  0.5368 -0.4416
   37MOL    C9213124   0.219   4.761   5.056 -0.4114  0.5443  0.4385
   37MOL    C9313125   0.206   4.791   4.903  0.7639  0.0557 -0.4275
   37MOL    C9413126   0.219   4.661   4.819 -0.1784 -0.1447 -0.0062
   37MOL    O9513127   0.317   4.643   4.744 -0.1436 -0.1317 -0.2313
   37MOL    O9613128   0.109   4.576   4.841 -0.7283 -0.3790  0.2489
   37MOL    C9713129   0.121   4.450   4.787 -0.5898  0.0678  0.2642
   37MOL    C9813130   0.081   4.435   4.642  0.9980  0.7808 -0.1784
   37MOL    C9913131   7.809   4.436   4.630 -0.2936  0.8687 -0.7475
   37MOL   H10013132   0.180   4.851   5.105 -0.9704 -0.4429  1.8500
   37MOL   H10113133   0.154   4.675   5.071  0.9516 -0.5311  0.2653
   37MOL   H10213134   0.292   4.855   4.883 -0.1868  1.0060 -1.5468
   37MOL   H10313135   0.221   4.410   4.806  0.1971  1.5745 -0.6226
   37MOL   H10413136   0.056   4.384   4.845 -1.8153  1.8375  0.9187
   37MOL   H10513137   0.122   4.514   4.578  0.8851 -0.1171 -1.3838
   37MOL   H10613138   0.117   4.344   4.595 -0.7401 -0.0163  0.0051
   37MOL   H10713139   7.768   4.452   4.530 -1.5223  0.4406 -0.3224
   37MOL   H10813140   7.763   4.523   4.676 -1.2470  0.6814 -1.3316
   37MOL   H10913141   7.762   4.348   4.674  5.0773  0.5652  5.0023
   37MOL   C11013142   0.075   4.867   4.876 -0.0799 -0.1074 -0.0255
   37MOL   C11113143   0.078   4.933   4.732  0.2331  0.4201 -0.4746
   37MOL   C11213144   7.860   4.859   4.642  0.3534 -0.6705 -1.1770
   37MOL   O11313145   0.011   4.810   4.535 -0.0104  0.1132 -0.0727
   37MOL   O11413146   7.727   4.871   4.677 -0.0051 -0.0235  0.0165
   37MOL   C11513147   7.610   4.831   4.598 -0.3589 -0.1059 -0.1636
   37MOL   C11613148   7.507   4.949   4.601 -0.2577 -0.2053 -0.7894
   37MOL   C11713149   7.479   5.018   4.737 -0.0471 -0.1088 -0.0463
   37MOL   H11813150   0.052   4.943   4.951  0.5504  1.0476 -0.9987
   37MOL   H11913151   7.869   4.801   4.876 -1.2115  1.3398  0.5909
   37MOL   H12013152   0.176   4.924   4.685  0.6021 -1.0886  0.5435
   37MOL   H12113153   7.638   4.813   4.494  1.2269  2.3189 -0.2022
   37MOL   H12213154   7.570   4.742   4.646  1.2507 -0.0695  1.3002
   37MOL   H12313155   7.541   5.028   4.534  0.6510  1.0411  1.0979
   37MOL   H12413156   7.414   4.911   4.559 -1.3149  1.9040 -0.4311
   37MOL   H12513157   7.559   5.089   4.759  0.6911 -0.4377 -1.5728
   37MOL   H12613158   7.462   4.948   4.819  0.5619  0.4309  0.5471
   37MOL   H12713159   7.385   5.071   4.725  0.1399  0.2644  0.1504
   37MOL   C12813160   0.047   5.087   4.743 -0.3038  0.1085  0.0391
   37MOL   C12913161   0.144   5.169   4.831 -0.1261 -0.2966  0.2873
   37MOL   C13013162   0.293   5.174   4.798 -0.1818 -0.3128 -0.4787
   37MOL   O13113163   0.377   5.127   4.880  0.4696 -0.6394 -0.1690
   37MOL   O13213164   0.321   5.226   4.676 -0.3261  0.9226  0.1222
   37MOL   C13313165   0.450   5.220   4.627 -0.4441 -0.0593 -0.0258
   37MOL   C13413166   0.476   5.097   4.541  0.5110  0.0048 -0.5250
   37MOL   C13513167   0.365   5.081   4.436 -0.7789  0.3504  0.2695
   37MOL   H13613168   7.824   5.101   4.774  0.2043  4.1337  0.1629
   37MOL   H13713169   0.047   5.118   4.639 -2.8917  0.4468  0.1058
   37MOL   H13813170   0.136   5.145   4.937 -0.0717  1.2409  0.6571
   37MOL   H13913171   0.473   5.306   4.564  0.4131 -0.1366  0.1740
   37MOL   H14013172   0.517   5.229   4.712 -1.4504 -0.6959  0.8503
   37MOL   H14113173   0.569   5.107   4.486  0.2363 -2.1305 -1.4644
   37MOL   H14213174   0.478   5.008   4.603  1.0430 -0.3644 -1.0695
   37MOL   H14313175   0.343   5.177   4.388  0.7299  0.8536  0.5420
   37MOL   H14413176   0.284   5.025   4.482  1.1325 -2.3833  0.3936
   37MOL   H14513177   0.407   5.016   4.360 -1.5171 -2.1008  1.9095
   37MOL   C14613178   0.085   5.316   4.824  0.3198  0.3996  0.7970
   37MOL   C14713179   0.151   5.427   4.904  0.2539 -0.1253  0.0286
   37MOL   C14813180   0.082   5.556   4.871  0.7152  0.5838  0.3605
   37MOL   O14913181   0.115   5.640   4.788 -0.2041  0.4422  1.2623
   37MOL   O15013182   7.846   5.568   4.948 -0.1823  0.1356 -0.2671
   37MOL   C15113183   7.761   5.677   4.945  0.6655 -0.2156  0.1696
   37MOL   C15213184   7.664   5.655   5.070  0.0370 -0.3634  0.5358
   37MOL   C15313185   7.737   5.646   5.201  0.1759  0.6017 -0.1614
   37MOL   H15413186   7.861   5.330   4.851  0.8677  2.0159  2.1654
   37MOL   H15513187   0.087   5.342   4.718 -2.0654 -0.4385  0.5265
   37MOL   H15613188   0.253   5.449   4.872  0.8383  1.6060  2.9503
   37MOL   H15713189   7.828   5.764   4.943  0.5398 -0.1272 -0.1389
   37MOL   H15813190   7.699   5.664   4.857  1.4298 -1.0674 -0.2513
   37MOL   H15913191   7.597   5.738   5.089  1.3322  1.3032 -1.8793
   37MOL   H16013192   7.595   5.571   5.055  0.4775 -0.8185  1.0314
   37MOL   H16113193   7.836   5.690   5.211  1.1597 -1.3923 -1.0054
   37MOL   H16213194   7.758   5.543   5.230  2.3223  0.7459 -1.1309
   37MOL   H16313195   7.685   5.694   5.285  0.2767  2.6241 -1.2100
   37MOL   C16413196   0.162   5.393   5.063  0.6923 -1.1201 -0.4146
   37MOL   C16513197   0.241   5.492   5.148 -0.3523  0.3547 -0.1869
   37MOL   C16613198   0.242   5.434   5.298  0.1481 -0.8577 -0.2668
   37MOL   O16713199   0.342   5.398   5.357 -0.6316  0.0758  0.2115
   37MOL   O16813200   0.125   5.438   5.355  0.1419 -0.7368  0.6009
   37MOL   C16913201   0.096   5.413   5.497  0.0263 -0.6345 -0.3816
   37MOL   C17013202   7.833   5.445   5.520 -0.5441  0.1318  0.0635
   37MOL   C17113203   7.797   5.449   5.669  0.3622 -0.4201 -1.1915
   37MOL   H17213204   0.224   5.305   5.082  0.0085 -1.4294  0.3685
   37MOL   H17313205   0.058   5.377   5.089  0.7790  1.4170  1.7440
   37MOL   H17413206   0.191   5.588   5.157  2.0972  1.7335 -0.7896
   37MOL   H17513207   0.101   5.306   5.516  0.3480 -0.8702 -1.7130
   37MOL   H17613208   0.169   5.455   5.566  0.5351  1.0163 -1.8883
   37MOL   H17713209   7.807   5.548   5.494 -2.4009 -0.5171 -0.7148
   37MOL   H17813210   7.761   5.383   5.468 -0.8292 -0.3063  0.9665
   37MOL   H17913211   7.838   5.357   5.712 -0.3461 -0.9405 -1.6254
   37MOL   H18013212   7.691   5.459   5.692  1.0492  0.3309  1.8044
   37MOL   H18113213   7.848   5.532   5.717 -1.2213  0.5698 -1.1798
   37MOL   C18213214   0.385   5.524   5.093 -0.3523  0.0254  0.2181
   37MOL   C18313215   0.420   5.673   5.060  0.1218 -1.3505 -0.3284
   37MOL   C18413216   0.392   5.762   5.185 -0.3137  0.1606 -0.5812
   37MOL   O18513217   0.331   5.866   5.171  0.0103  0.4029  0.4739
   37MOL   O18613218   0.451   5.718   5.298 -0.1037  0.1912 -0.3003
   37MOL   C18713219   0.443   5.797   5.417  0.5933 -0.1921  0.5060
   37MOL   C18813220   0.349   5.722   5.510  0.1449 -0.0457 -0.1603
   37MOL   C18913221   0.205   5.770   5.501 -0.0014  0.1954  0.1104
   37MOL   H19013222   0.413   5.467   5.004 -1.8178 -1.1452  0.4867
   37MOL   H19113223   0.462   5.503   5.167  0.4360  0.8680 -0.3523
   37MOL   H19213224   0.357   5.715   4.982  0.3645 -2.0833 -0.9249
   37MOL   H19313225   0.538   5.807   5.468  2.4089 -1.3737 -2.5002
   37MOL   H19413226   0.405   5.899   5.402  1.8150  0.5493  2.3570
   37MOL   H19513227   0.358   5.614   5.499 -0.3935 -0.4121  2.7038
   37MOL   H19613228   0.389   5.740   5.609 -0.3203  0.4181 -0.0530
   37MOL   H19713229   0.159   5.711   5.422 -0.0611 -1.2088  1.1867
   37MOL   H19813230   0.193   5.873   5.467 -1.4364 -0.5745 -1.7919
   37MOL   H19913231   0.138   5.749   5.585  0.4042  0.1754  0.4332
   37MOL   C20013232   0.569   5.700   5.011 -0.4235  0.0999 -0.0292
   37MOL   C20113233   0.614   5.620   4.883  0.8424 -0.3231  0.6009
   37MOL   C20213234   0.524   5.642   4.759 -0.3403 -0.2848  0.6961
   37MOL   O20313235   0.496   5.541   4.690 -0.2832  0.0105 -0.3323
   37MOL   O20413236   0.475   5.770   4.737 -0.1489  0.5707  0.3163
   37MOL   C20513237   0.384   5.789   4.624 -0.9815 -0.2902 -0.4283
   37MOL   C20613238   0.350   5.932   4.632  0.4324 -0.1153 -0.5997
   37MOL   C20713239   0.451   6.050   4.614 -0.1081 -0.3734  0.3624
   37MOL   H20813240   0.643   5.677   5.088  1.1836 -0.7788 -1.7905
   37MOL   H20913241   0.595   5.804   4.992 -0.8922 -0.3718 -3.6573
   37MOL   H21013242   0.607   5.517   4.918  2.0564 -0.5554  0.1674
   37MOL   H21113243   0.421   5.776   4.522 -0.5488 -1.2856 -0.1499
   37MOL   H21213244   0.301   5.720   4.637  0.9337 -2.3823  1.1313
   37MOL   H21313245   0.276   5.952   4.554 -0.3981  1.6284  0.6066
   37MOL   H21413246   0.299   5.950   4.726 -2.4349 -0.6870 -1.9758
   37MOL   H21513247   0.494   6.058   4.514  0.3384 -1.2626  0.4686
   37MOL   H21613248   0.536   6.035   4.681 -0.5426  0.9107  1.2079
   37MOL   H21713249   0.417   6.149   4.644  1.8824  0.6066 -0.5103
   37MOL   C21813250   0.762   5.650   4.856  0.8315  0.0200 -1.0652
   37MOL   C21913251   0.860   5.571   4.949 -0.3391  0.6933 -0.3341
   37MOL   C22013252   0.852   5.418   4.923 -0.2622 -0.3667  0.0157
   37MOL   O22113253   0.806   5.336   5.003  0.5242  0.1063 -0.2180
   37MOL   O22213254   0.910   5.387   4.806 -0.6217  0.2277  0.5757
   37MOL   C22313255   0.942   5.250   4.770 -0.1154  0.5016  0.7413
   37MOL   C22413256   0.822   5.175   4.715  0.5626 -0.4642 -0.0829
   37MOL   C22513257   0.844   5.027   4.716  0.8192 -0.2606 -0.2407
   37MOL   H22613258   0.779   5.755   4.878  0.9785 -0.6616  2.3370
   37MOL   H22713259   0.791   5.629   4.753  0.0488  0.1107 -1.3083
   37MOL   H22813260   0.833   5.598   5.051  0.6274 -0.9790  0.3856
   37MOL   H22913261   1.016   5.256   4.690 -2.5479  0.0094 -1.6354
   37MOL   H23013262   0.989   5.195   4.851 -0.7685  0.2131  0.9224
   37MOL   H23113263   0.730   5.201   4.767 -2.0908 -5.0064 -2.1773
   37MOL   H23213264   0.796   5.214   4.617  0.3598  1.1770  0.6076
   37MOL   H23313265   0.813   4.981   4.810  2.2118 -2.4175 -0.8218
   37MOL   H23413266   0.946   5.000   4.689  0.7500 -1.4355  0.6652
   37MOL   H23513267   0.783   4.982   4.638  1.4540  3.0286 -2.7626
   37MOL   C23613268   1.008   5.617   4.926  0.3414  1.1106 -0.3162
   37MOL   C23713269   1.120   5.539   5.001 -0.2146  0.3397  0.0195
   37MOL   C23813270   1.253   5.564   4.927 -1.2732 -0.0181  0.0262
   37MOL   O23913271   1.328   5.655   4.966 -0.0337 -0.4252 -0.0026
   37MOL   O24013272   1.282   5.473   4.840 -0.3504  0.0677  0.4649
   37MOL   C24113273   1.396   5.492   4.751  0.1432  0.3314 -0.8014
   37MOL   C24213274   1.514   5.415   4.803 -0.5749  0.2054  0.6165
   37MOL   C24313275   1.586   5.482   4.924  0.0775  0.3832  0.4674
   37MOL   H24413276   1.001   5.722   4.955  2.2173  1.1606  0.0256
   37MOL   H24513277   1.031   5.611   4.819 -0.1045 -1.6103 -0.2930
   37MOL   H24613278   1.106   5.432   4.990 -0.9072  0.4368 -0.0631
   37MOL   H24713279   1.373   5.463   4.648 -1.2507  0.1279 -0.4543
   37MOL   H24813280   1.415   5.599   4.743 -2.4561  1.0415  1.6837
   37MOL   H24913281   1.488   5.310   4.804 -0.6205  0.2218  1.4735
   37MOL   H25013282   1.597   5.429   4.734 -0.2941  0.4213  0.9934
   37MOL   H25113283   1.686   5.444   4.945 -0.2468  0.0875  1.5047
   37MOL   H25213284   1.529   5.461   5.015  1.4585 -0.9782  1.0371
   37MOL   H25313285   1.595   5.589   4.906  1.9311 -0.1026 -1.7760
   37MOL   C25413286   1.118   5.578   5.156  0.0784 -0.2526  0.6123
   37MOL   C25513287   1.028   5.484   5.250  0.5301  0.3927 -0.4558
   37MOL   C25613288   1.100   5.346   5.256  0.3572  0.6328  0.2734
   37MOL   O25713289   1.216   5.338   5.221 -0.0165  0.0744  0.1717
   37MOL   O25813290   1.023   5.247   5.299  0.3374 -0.0421 -0.1847
   37MOL   C25913291   1.079   5.116   5.337  0.4915 -0.1892  0.2044
   37MOL   C26013292   1.136   5.111   5.480 -0.2271  0.8510 -0.2214
   37MOL   C26113293   1.257   5.203   5.498  0.9231 -0.2033  0.0424
   37MOL   H26213294   1.075   5.677   5.168 -1.9034 -0.8673 -1.0884
   37MOL   H26313295   1.221   5.595   5.187  0.0527 -0.2544  0.6996
   37MOL   H26413296   0.927   5.467   5.213  0.3291  0.3054  0.1276
   37MOL   H26513297   0.998   5.043   5.331 -0.4623  0.9230 -0.7668
   37MOL   H26613298   1.149   5.071   5.267 -0.5115 -3.2418  1.0641
   37MOL   H26713299   1.052   5.124   5.549 -0.0617  0.3264  0.0777
   37MOL   H26813300   1.163   5.007   5.497 -0.5064  0.8731  0.4014
   37MOL   H26913301   1.314   5.169   5.584 -2.2958 -4.4002  0.6630
   37MOL   H27013302   1.232   5.308   5.516  0.2067 -0.4400  0.4627
   37MOL   H27113303   1.309   5.200   5.402  0.2184 -0.7123 -0.3273
   37MOL   C27213304   1.016   5.541   5.392  0.2183 -0.5443 -0.2449
   37MOL   C27313305   0.929   5.655   5.420  0.0194  0.3551  0.6345
   37MOL   C27413306   0.784   5.613   5.416  0.4267 -0.2496 -0.0039
   37MOL   O27513307   0.717   5.617   5.310  0.4693 -0.4131  0.2507
   37MOL   O27613308   0.747   5.551   5.533  0.5935 -0.4331  0.1670
   37MOL   C27713309   0.631   5.471   5.533  0.5682 -0.1148  0.1235
   37MOL   C27813310   0.678   5.331   5.492 -0.0433  0.3730  0.5585
   37MOL   C27913311   0.790   5.279   5.582  0.5553  0.8299  0.0033
   37MOL   H28013312   1.122   5.560   5.405 -0.3637  1.6055  1.9177
   37MOL   H28113313   0.996   5.469   5.471  3.6113 -1.2384  0.0470
   37MOL   H28213314   0.933   5.715   5.329  2.7733  0.6168  0.8930
   37MOL   H28313315   0.588   5.470   5.633 -1.4939  0.0793 -0.7149
   37MOL   H28413316   0.549   5.512   5.473  0.7664 -1.4163 -1.0644
   37MOL   H28513317   0.598   5.257   5.494  2.2532 -2.2424 -1.0352
   37MOL   H28613318   0.706   5.324   5.387 -0.6198  4.2743  0.0719
   37MOL   H28713319   0.804   5.172   5.593 -0.5040  0.6420 -0.3540
   37MOL   H28813320   0.788   5.315   5.685 -2.1548  0.4718  0.1284
   37MOL   H28913321   0.887   5.320   5.553  1.4841 -0.6984  0.9180
   37MOL   C29013322   0.962   5.735   5.541 -0.7558 -0.1789 -0.9357
   37MOL   C29113323   0.863   5.856   5.569 -0.0064  0.2220  0.9729
   37MOL   C29213324   0.840   5.866   5.721 -0.4331 -0.2489 -0.0341
   37MOL   O29313325   0.912   5.941   5.788  0.0929 -0.0617  0.0869
   37MOL   O29413326   0.741   5.777   5.758 -0.4667  0.0798 -0.1469
   37MOL   C29513327   0.740   5.733   5.896  0.4368 -0.2730 -1.0383
   37MOL   C29613328   0.857   5.640   5.935 -0.3449 -0.1896  0.3446
   37MOL   C29713329   0.854   5.507   5.867  0.3821 -0.0613  0.2478
   37MOL   H29813330   1.064   5.764   5.516 -1.1800  1.1118 -1.1895
   37MOL   H29913331   0.972   5.683   5.636 -1.0855  1.4621  0.0194
   37MOL   H30013332   0.766   5.843   5.521  0.6700  0.7968 -0.5890
   37MOL   H30113333   0.741   5.823   5.957 -0.6467 -1.5471  0.9187
   37MOL   H30213334   0.644   5.687   5.919  1.4499 -1.3197  1.2358
   37MOL   H30313335   0.955   5.688   5.927 -0.0428 -0.8822 -0.1219
   37MOL   H30413336   0.832   5.632   6.040 -1.2369  0.3448  0.1767
   37MOL   H30513337   0.882   5.523   5.763  0.9033  0.3153  0.4420
   37MOL   H30613338   0.751   5.472   5.880  0.5040 -0.0279  1.3502
   37MOL   H30713339   0.929   5.437   5.902 -1.1799 -1.6776  0.4325
   37MOL   C30813340   0.911   5.998   5.520 -0.0145  0.6379 -0.1445
   37MOL   C30913341   0.904   6.030   5.367 -0.7277 -0.2443  0.1769
   37MOL   C31013342   0.762   6.048   5.321 -0.6174  0.1195 -0.5352
   37MOL   O31113343   0.707   5.961   5.259  0.0597  0.1350 -0.2932
   37MOL   O31213344   0.702   6.160   5.360 -0.0200 -0.0964  0.3511
   37MOL   C31313345   0.573   6.195   5.305 -0.7954  0.8575 -1.2053
   37MOL   C31413346   0.553   6.344   5.310  0.4808 -0.2140  0.6264
   37MOL   C31513347   0.652   6.423   5.216  0.9432  0.4843 -0.0354
   37MOL   H31613348   1.014   6.010   5.553  0.2771 -0.8163 -0.5215
   37MOL   H31713349   0.849   6.071   5.573 -1.9622 -1.0647 -0.0050
   37MOL   H31813350   0.956   5.947   5.320  0.1509  0.2483  0.2750
   37MOL   H31913351   0.581   6.157   5.204  0.6351 -0.1240 -0.7394
   37MOL   H32013352   0.496   6.138   5.356  0.1259  0.2865 -0.4287
   37MOL   H32113353   0.450   6.361   5.279  0.9902 -0.7004 -1.3978
   37MOL   H32213354   0.547   6.383   5.411 -1.1230 -2.5458  1.4779
   37MOL   H32313355   0.754   6.399   5.246  1.0667 -1.8086 -2.1249
   37MOL   H32413356   0.648   6.389   5.113 -0.5976 -0.2938  0.2662
   37MOL   H32513357   0.641   6.532   5.213  0.3919  0.3976 -2.2453
   37MOL   C32613358   0.986   6.163   5.354  0.1897 -0.2130 -0.4719
   37MOL   C32713359   1.135   6.134   5.315 -0.3103  0.2076  0.5669
   37MOL   C32813360   1.219   6.042   5.405  0.1251  0.5197  0.0534
   37MOL   O32913361   1.249   5.927   5.372 -0.0825 -0.5918  0.7082
   37MOL   O33013362   1.284   6.111   5.500 -0.1511 -0.3297  0.1082
   37MOL   C33113363   1.360   6.044   5.600  0.1442 -0.1231 -0.4090
   37MOL   C33213364   1.366   6.128   5.729  0.2650 -0.0620  0.4186
   37MOL   C33313365   1.232   6.115   5.791  0.0038  0.0362  0.3025
   37MOL   H33413366   0.987   6.213   5.451 -1.5294  3.0220 -2.0404
   37MOL   H33513367   0.942   6.240   5.291  1.6194  1.3482  0.3850
   37MOL   H33613368   1.179   6.234   5.314  2.5062 -1.0020 -1.1478
   37MOL   H33713369   1.309   5.950   5.621  0.3529 -0.0992  0.2081
   37MOL   H33813370   1.462   6.032   5.564  0.3672 -0.8181  0.4523
   37MOL   H33913371   1.441   6.084   5.796  0.9909 -2.6910 -2.0023
   37MOL   H34013372   1.379   6.234   5.710  0.3893 -0.2638 -0.6307
   37MOL   H34113373   1.160   6.188   5.755 -0.4838  0.0712  1.3455
   37MOL   H34213374   1.194   6.015   5.772 -0.0745  0.1010  0.1102
   37MOL   H34313375   1.245   6.131   5.898 -0.6822 -1.5081  0.6301
   37MOL   C34413376   1.139   6.087   5.171 -0.8199  0.7448  0.6364
   37MOL   C34513377   1.082   6.165   5.052 -0.0858 -0.0490 -0.5526
   37MOL   C34613378   1.139   6.307   5.048  0.0656 -1.0449  0.2005
   37MOL   O34713379   1.056   6.401   5.058 -0.4967  0.4671 -0.0254
   37MOL   O34813380   1.270   6.319   5.034  0.2425 -0.1326 -0.1910
   37MOL   C34913381   1.334   6.441   5.031 -0.8636  0.1301 -0.4635
   37MOL   C35013382   1.371   6.497   4.890 -0.6269  0.1807  0.8522
   37MOL   C35113383   1.425   6.634   4.907 -0.1643 -0.1341 -1.1040
   37MOL   H35213384   1.109   5.982   5.164 -0.5052  0.7266 -0.4993
   37MOL   H35313385   1.244   6.070   5.145 -0.0315  1.5779  3.1118
   37MOL   H35413386   0.977   6.194   5.051 -0.1025 -0.1399 -1.2274
   37MOL   H35513387   1.272   6.514   5.084  0.7233  1.9455 -1.0496
   37MOL   H35613388   1.425   6.428   5.088 -1.5146 -1.8053  0.1604
   37MOL   H35713389   1.454   6.434   4.857 -0.1833  0.4881  1.3619
   37MOL   H35813390   1.294   6.495   4.813  0.0949 -1.6970  0.1541
   37MOL   H35913391   1.492   6.677   4.833 -0.4681  1.8672 -0.2554
   37MOL   H36013392   1.347   6.708   4.926 -1.2544 -1.3157 -0.8512
   37MOL   H36113393   1.482   6.636   5.000  0.0792  0.2072 -1.2608
   37MOL   H36213394   1.097   6.106   4.962 -2.2985 -0.3908 -0.7268
   38MOL     C113395   0.578   4.501   4.030  0.1845 -0.4391  0.1500
   38MOL     C213396   0.714   4.419   4.030 -0.0112  0.1018 -0.1907
   38MOL     C313397   0.751   4.359   3.897  0.0271  0.1836  0.6548
   38MOL     O413398   0.830   4.265   3.895 -0.3228 -0.1114 -0.2166
   38MOL     O513399   0.686   4.408   3.785  0.3178 -0.0168  0.7516
   38MOL     C613400   0.742   4.374   3.660 -0.0295 -0.1644  0.1765
   38MOL     C713401   0.731   4.487   3.554 -0.1989 -0.7553 -0.0934
   38MOL     C813402   0.582   4.510   3.525 -0.1904 -0.2640 -0.2545
   38MOL     H913403   0.597   4.602   3.993 -1.0954 -0.3213 -0.2083
   38MOL    H1013404   0.496   4.457   3.973  0.4589 -0.3424 -0.3249
   38MOL    H1113405   0.715   4.319   4.074  0.5234  0.2568  0.1448
   38MOL    H1213406   0.850   4.359   3.659 -0.3776 -2.7984 -0.6756
   38MOL    H1313407   0.688   4.287   3.624 -1.2530  0.8667 -0.5734
   38MOL    H1413408   0.772   4.582   3.587  2.5069 -2.1656  0.6697
   38MOL    H1513409   0.782   4.462   3.461  1.2875  0.3121  0.4120
   38MOL    H1613410   0.564   4.594   3.458  0.4457 -2.0875 -2.7929
   38MOL    H1713411   0.535   4.422   3.482  1.5946  0.3362 -3.5909
   38MOL    H1813412   0.540   4.541   3.621 -2.1655  0.4350 -1.3236
   38MOL    H1913413   0.531   4.512   4.127 -1.8313 -0.4440 -0.7898
   38MOL    C2013414   0.818   4.515   4.091  0.6530  0.4547  1.0687
   38MOL    C2113415   0.822   4.495   4.248 -0.1510 -0.6885 -0.4030
   38MOL    C2213416   0.894   4.367   4.291  0.5063 -0.7678  0.4116
   38MOL    O2313417   0.980   4.308   4.223 -0.4544  0.4917 -0.2048
   38MOL    O2413418   0.853   4.315   4.409 -0.5448  0.5406 -0.1570
   38MOL    C2513419   0.925   4.210   4.471  0.7569 -0.6734  0.0318
   38MOL    C2613420   0.833   4.103   4.541  0.4193 -0.2358  0.1165
   38MOL    C2713421   0.750   4.162   4.653 -0.4396  0.0833 -0.7463
   38MOL    H2813422   0.798   4.612   4.045 -2.1342 -0.1259  0.9702
   38MOL    H2913423   0.916   4.484   4.055  0.6033 -1.4326  2.4676
   38MOL    H3013424   0.719   4.486   4.283  0.8042 -2.4764  2.1362
   38MOL    H3113425   0.980   4.145   4.403  2.4741  0.0233  0.7236
   38MOL    H3213426   0.996   4.253   4.542  0.7771 -2.2245  0.9726
   38MOL    H3313427   0.769   4.050   4.470  0.3352  0.0012  0.0149
   38MOL    H3413428   0.900   4.034   4.594  0.7929  0.1815  0.1890
   38MOL    H3513429   0.809   4.220   4.724 -1.1871  0.2637 -0.2671
   38MOL    H3613430   0.693   4.097   4.720  0.3954  0.5223  0.4057
   38MOL    H3713431   0.673   4.226   4.610  1.5087  2.0784 -1.3412
   38MOL    C3813432   0.885   4.617   4.319 -0.3014  0.3520  0.4854
   38MOL    C3913433   0.814   4.751   4.301  0.1378 -0.2901  0.1155
   38MOL    C4013434   0.690   4.765   4.384  0.6778  0.8940 -0.3909
   38MOL    O4113435   0.578   4.763   4.331  0.0905  0.8230  0.0967
   38MOL    O4213436   0.710   4.767   4.509 -0.4638 -0.0499  0.2201
   38MOL    C4313437   0.608   4.745   4.603 -0.4522  0.0260  0.3108
   38MOL    C4413438   0.656   4.648   4.715  0.7077 -0.4185  0.1122
   38MOL    C4513439   0.684   4.509   4.664 -0.0976 -0.1136  0.1933
   38MOL    H4613440   0.987   4.627   4.280 -0.5908 -1.4087 -0.7797
   38MOL    H4713441   0.888   4.592   4.425 -1.7781 -0.6134  0.3213
   38MOL    H4813442   0.787   4.756   4.195 -1.4187 -1.1147  0.4636
   38MOL    H4913443   0.570   4.836   4.649  1.1565  0.8413  0.0666
   38MOL    H5013444   0.518   4.702   4.558 -1.3617  1.6451  0.5387
   38MOL    H5113445   0.744   4.697   4.755  0.9843  1.3765 -2.5589
   38MOL    H5213446   0.572   4.654   4.784 -0.5591 -1.3033 -1.3228
   38MOL    H5313447   0.742   4.505   4.572 -1.4496  1.8694 -0.7852
   38MOL    H5413448   0.598   4.441   4.662  0.4705 -0.8214 -1.7424
   38MOL    H5513449   0.748   4.462   4.739  0.6681 -0.6394 -0.7741
   38MOL    C5613450   0.908   4.873   4.312  0.6056 -0.4405 -0.5931
   38MOL    C5713451   0.855   5.015   4.300  0.5703  0.0012  0.3137
   38MOL    C5813452   0.972   5.102   4.333  0.4779 -1.1809  0.4950
   38MOL    O5913453   0.965   5.175   4.438 -0.1554  0.0869  1.1766
   38MOL    O6013454   1.069   5.115   4.240 -0.1153  0.2786 -0.2029
   38MOL    C6113455   1.184   5.195   4.264 -0.8038 -0.1545 -0.1035
   38MOL    C6213456   1.280   5.186   4.139  0.3881 -0.0207 -0.0171
   38MOL    C6313457   1.366   5.066   4.125  0.5215 -0.6468  0.5685
   38MOL    H6413458   0.993   4.861   4.245  0.7353 -0.1010 -0.4859
   38MOL    H6513459   0.953   4.859   4.411  2.6194  0.1345 -1.4029
   38MOL    H6613460   0.777   5.044   4.371 -0.3252 -0.6738 -0.3797
   38MOL    H6713461   1.163   5.299   4.289  0.1780  0.6701 -2.5311
   38MOL    H6813462   1.232   5.177   4.360  1.7683 -1.9919 -1.6676
   38MOL    H6913463   1.222   5.197   4.047 -0.5837  0.8391  0.6949
   38MOL    H7013464   1.352   5.268   4.143  0.3948  0.0630 -1.4099
   38MOL    H7113465   1.457   5.091   4.071 -0.0617  1.2331  0.4069
   38MOL    H7213466   1.309   4.979   4.090  0.5021 -0.8817  1.1765
   38MOL    H7313467   1.417   5.049   4.220  1.8425 -0.7773 -0.1606
   38MOL    C7413468   0.790   5.045   4.160 -0.1193  0.5833  0.0190
   38MOL    C7513469   0.659   5.140   4.145  0.6048 -0.6622 -0.5742
   38MOL    C7613470   0.688   5.287   4.179  0.0746 -0.0899 -0.1264
   38MOL    O7713471   0.763   5.354   4.109  0.3512 -0.2543 -0.7228
   38MOL    O7813472   0.629   5.329   4.295  0.4509  0.8640  0.8280
   38MOL    C7913473   0.658   5.462   4.358  0.0385  0.0030  0.6641
   38MOL    C8013474   0.764   5.455   4.464 -0.2211  1.2295  0.7358
   38MOL    C8113475   0.839   5.585   4.474 -0.3307 -0.2431  0.0172
   38MOL    H8213476   0.765   4.946   4.124  1.3534 -0.4169  1.7049
   38MOL    H8313477   0.866   5.085   4.093  0.7678 -0.6023  0.3161
   38MOL    H8413478   0.584   5.110   4.218  1.0718 -0.6176 -0.0679
   38MOL    H8513479   0.683   5.532   4.279  1.8127  0.3381  1.4969
   38MOL    H8613480   0.571   5.498   4.413  0.0774 -2.0375  2.1446
   38MOL    H8713481   0.724   5.412   4.556  0.8099  1.0971  1.1231
   38MOL    H8813482   0.837   5.380   4.436 -0.3133  0.7744  1.6882
   38MOL    H8913483   0.931   5.564   4.529 -1.0503  0.8901  1.6796
   38MOL    H9013484   0.775   5.653   4.530 -1.7168 -1.4734 -0.0471
   38MOL    H9113485   0.870   5.630   4.379  0.7758  1.2461  1.0676
   38MOL    C9213486   0.593   5.130   4.001  0.2156  0.2022 -0.3683
   38MOL    C9313487   0.536   4.992   3.958  0.0894  0.6613  1.1586
   38MOL    C9413488   0.392   4.966   4.000 -0.2804  0.3955  0.9205
   38MOL    O9513489   0.323   5.060   4.024  0.4093 -0.7578 -0.0019
   38MOL    O9613490   0.368   4.832   4.004  0.1135  0.3940 -0.0779
   38MOL    C9713491   0.237   4.774   4.027 -0.5249  0.0781  0.6491
   38MOL    C9813492   0.239   4.680   4.150  0.5654  0.0482  0.6975
   38MOL    C9913493   0.108   4.620   4.171 -0.0948  0.9422  0.3618
   38MOL   H10013494   0.678   5.159   3.939  0.2629  0.1086 -0.3465
   38MOL   H10113495   0.517   5.206   3.979 -0.7984 -0.8207 -0.4303
   38MOL   H10213496   0.589   4.911   4.006 -1.1556 -0.0556  1.3443
   38MOL   H10313497   0.164   4.853   4.040 -2.3544 -1.3889 -0.4947
   38MOL   H10413498   0.211   4.716   3.938 -1.4911 -0.9906  1.6211
   38MOL   H10513499   0.317   4.604   4.141 -2.2199 -2.6657 -2.2334
   38MOL   H10613500   0.266   4.741   4.236  1.1547 -1.2092  1.4297
   38MOL   H10713501   0.084   4.559   4.085  2.6093 -0.6219  0.6588
   38MOL   H10813502   0.028   4.689   4.197 -2.1678 -1.2638  0.0266
   38MOL   H10913503   0.121   4.543   4.248 -0.4984  1.2277  0.7172
   38MOL   C11013504   0.543   4.981   3.802  0.2844  0.0344  0.4043
   38MOL   C11113505   0.682   4.984   3.730  0.2800  0.2752 -0.2349
   38MOL   C11213506   0.771   4.865   3.777 -0.5725 -0.3123 -0.9929
   38MOL   O11313507   0.735   4.743   3.779 -0.6258 -0.3797 -0.1608
   38MOL   O11413508   0.892   4.909   3.826  0.0663 -0.4209 -0.4757
   38MOL   C11513509   0.988   4.812   3.870 -0.5085  0.8204 -0.2350
   38MOL   C11613510   1.131   4.880   3.875 -0.5447 -0.1929 -0.3987
   38MOL   C11713511   1.176   4.934   3.741 -0.3373 -0.2015  0.1886
   38MOL   H11813512   0.496   5.074   3.769  0.8193 -0.3503 -1.5102
   38MOL   H11913513   0.485   4.896   3.767  1.4139 -0.2633 -0.7983
   38MOL   H12013514   0.732   5.076   3.759  0.5554  0.2623 -0.6698
   38MOL   H12113515   0.948   4.765   3.960 -0.8814 -1.2414 -1.4523
   38MOL   H12213516   0.988   4.725   3.804 -0.1382  1.0022 -0.4746
   38MOL   H12313517   1.111   4.963   3.943 -1.9911  1.3264 -2.6201
   38MOL   H12413518   1.208   4.826   3.931  0.9628  1.0364 -1.2623
   38MOL   H12513519   1.097   4.996   3.698  1.1482  2.0472  0.5650
   38MOL   H12613520   1.203   4.847   3.682  2.2727  0.1787  0.7343
   38MOL   H12713521   1.258   5.004   3.755 -0.2363 -0.0447 -1.1333
   38MOL   C12813522   0.667   4.994   3.580  0.8121 -0.4332 -0.2564
   38MOL   C12913523   0.798   5.037   3.514 -0.2007  0.1844  0.3031
   38MOL   C13013524   0.846   4.940   3.405 -0.5477 -0.8767  0.2377
   38MOL   O13113525   0.805   4.958   3.292  1.3120 -0.3346  0.2394
   38MOL   O13213526   0.932   4.835   3.443 -0.2532  0.1673 -0.2023
   38MOL   C13313527   0.996   4.762   3.341 -0.3189 -0.4760 -0.0150
   38MOL   C13413528   1.129   4.713   3.386 -0.8290  0.4983 -0.1991
   38MOL   C13513529   1.115   4.617   3.504 -0.0756 -0.6026 -0.0588
   38MOL   H13613530   0.599   5.077   3.566  1.3755  0.2226  0.8454
   38MOL   H13713531   0.622   4.900   3.545  0.6653 -0.7997  0.9092
   38MOL   H13813532   0.877   5.031   3.589  0.0370  2.9522  0.3294
   38MOL   H13913533   0.941   4.670   3.317  0.4258 -0.6961 -0.9097
   38MOL   H14013534   1.010   4.825   3.253  1.4034  1.3361  1.5340
   38MOL   H14113535   1.176   4.661   3.303 -0.7707 -0.6316  0.5342
   38MOL   H14213536   1.190   4.795   3.426  1.4783 -1.9950  1.5899
   38MOL   H14313537   1.092   4.515   3.474 -1.1483 -0.1794 -0.7293
   38MOL   H14413538   1.045   4.644   3.583  1.1250  1.4365  0.3492
   38MOL   H14513539   1.209   4.608   3.559  0.5111  2.2998 -0.5080
   38MOL   C14613540   0.798   5.187   3.462  0.2309  0.2236 -0.6533
   38MOL   C14713541   0.936   5.247   3.444 -0.3456 -0.3581 -0.3604
   38MOL   C14813542   0.979   5.269   3.300  0.3014  0.0586 -0.6460
   38MOL   O14913543   0.895   5.311   3.215  0.1781  0.0877  0.1876
   38MOL   O15013544   1.096   5.222   3.281  0.9858  0.0878  0.3621
   38MOL   C15113545   1.142   5.212   3.142 -0.1007 -0.3712 -0.5695
   38MOL   C15213546   1.281   5.156   3.131  0.0500  0.1605  0.2467
   38MOL   C15313547   1.284   5.017   3.192  0.0829  0.5757  0.3211
   38MOL   H15413548   0.750   5.242   3.543  0.5486  0.9936 -0.9778
   38MOL   H15513549   0.735   5.186   3.373  0.4077 -0.4990 -0.7720
   38MOL   H15613550   1.004   5.172   3.485 -0.3327 -0.0945  0.1060
   38MOL   H15713551   1.069   5.170   3.072 -0.4602  0.8076 -0.9132
   38MOL   H15813552   1.155   5.315   3.110  0.6767  0.8299  3.3590
   38MOL   H15913553   1.316   5.148   3.028 -1.5334  1.0911 -0.3983
   38MOL   H16013554   1.353   5.221   3.179 -1.9499  0.1019  3.4652
   38MOL   H16113555   1.256   5.003   3.297  0.0865 -0.0871  0.2325
   38MOL   H16213556   1.384   4.976   3.175 -0.7774 -0.8229 -1.5016
   38MOL   H16313557   1.214   4.952   3.141  0.9258 -1.1584  1.3095
   38MOL   C16413558   0.958   5.378   3.532 -0.5234  0.5816 -0.3901
   38MOL   C16513559   1.106   5.420   3.555  0.2503  0.5564  0.0775
   38MOL   C16613560   1.114   5.566   3.595  0.7274 -0.1697 -1.1480
   38MOL   O16713561   1.123   5.647   3.506  0.4148 -0.1212  0.4466
   38MOL   O16813562   1.107   5.596   3.731  0.0851  0.0301 -0.1744
   38MOL   C16913563   1.109   5.729   3.774  0.3440  0.7323  0.2327
   38MOL   C17013564   0.959   5.775   3.797 -0.3243  0.0146 -0.2710
   38MOL   C17113565   0.952   5.910   3.871 -0.3716 -0.8229  0.3050
   38MOL   H17213566   0.909   5.376   3.630  1.8233 -2.6148  0.7977
   38MOL   H17313567   0.901   5.455   3.480 -2.2506 -0.4124 -0.0386
   38MOL   H17413568   1.162   5.423   3.462 -0.9642 -0.3834 -0.6959
   38MOL   H17513569   1.174   5.724   3.862  0.2271 -0.0228  0.2788
   38MOL   H17613570   1.166   5.798   3.712 -0.1046  0.9310  0.0460
   38MOL   H17713571   0.916   5.775   3.697  0.9275  1.2554 -0.8142
   38MOL   H17813572   0.913   5.703   3.866 -1.8126  0.6062 -0.6228
   38MOL   H17913573   0.852   5.942   3.899 -0.4017 -1.6055  1.1226
   38MOL   H18013574   0.978   5.990   3.801  0.1591 -0.5363  0.8254
   38MOL   H18113575   1.013   5.917   3.961 -1.6399  0.8970  1.0617
   38MOL   C18213576   1.187   5.329   3.647 -0.6701 -0.3147  0.0754
   38MOL   C18313577   1.333   5.337   3.615 -0.5161 -0.3353 -0.4765
   38MOL   C18413578   1.404   5.318   3.752  0.7112  0.4510 -0.6907
   38MOL   O18513579   1.395   5.213   3.813  0.1280 -0.0812 -0.3723
   38MOL   O18613580   1.478   5.422   3.794  0.7965 -0.4732 -0.2806
   38MOL   C18713581   1.527   5.443   3.923 -0.4552 -0.2836 -0.1347
   38MOL   C18813582   1.607   5.574   3.930 -0.2851 -0.0899  0.5857
   38MOL   C18913583   1.532   5.691   3.868  0.1646  0.7248  0.5594
   38MOL   H19013584   1.149   5.227   3.633  0.3613 -0.6729 -0.1921
   38MOL   H19113585   1.170   5.359   3.750 -1.3031 -0.0046 -0.1197
   38MOL   H19213586   1.358   5.439   3.585 -0.2108 -0.5909 -1.1031
   38MOL   H19313587   1.439   5.440   3.987 -0.1383 -1.8111  0.2515
   38MOL   H19413588   1.580   5.353   3.955 -0.6291 -0.0193  0.8972
   38MOL   H19513589   1.660   5.597   4.023  2.4346  0.7128 -1.1077
   38MOL   H19613590   1.693   5.550   3.867 -1.4477 -0.8761 -0.7354
   38MOL   H19713591   1.574   5.749   3.786 -1.2338 -0.2147 -0.8317
   38MOL   H19813592   1.519   5.769   3.944 -1.5915  1.8243 -0.8553
   38MOL   H19913593   1.436   5.656   3.833  1.6485 -0.4929 -2.4312
   38MOL   C20013594   1.379   5.228   3.516  0.3816  0.2544 -0.0849
   38MOL   C20113595   1.531   5.222   3.468 -0.1636  0.0260  0.2590
   38MOL   C20213596   1.560   5.370   3.416 -0.3255  0.0241 -0.1090
   38MOL   O20313597   1.650   5.439   3.467 -0.3136 -0.3073 -0.1879
   38MOL   O20413598   1.489   5.400   3.304 -0.1025  0.4633 -0.8796
   38MOL   C20513599   1.489   5.528   3.248 -0.2958  0.0894  0.2079
   38MOL   C20613600   1.515   5.527   3.093 -0.1239  0.2178 -0.2192
   38MOL   C20713601   1.649   5.475   3.052  0.0984  0.1848 -0.4388
   38MOL   H20813602   1.319   5.238   3.426  0.4980  0.4124 -0.1456
   38MOL   H20913603   1.345   5.136   3.564 -0.9551  0.2950 -0.9307
   38MOL   H21013604   1.536   5.160   3.379 -0.3375  2.2311 -1.3070
   38MOL   H21113605   1.402   5.589   3.274  0.4752  0.2996  2.4529
   38MOL   H21213606   1.579   5.578   3.284 -0.2525  0.1110  0.0675
   38MOL   H21313607   1.431   5.481   3.041 -1.8428  1.6107  1.2452
   38MOL   H21413608   1.511   5.627   3.049  0.3870  0.4390  0.2428
   38MOL   H21513609   1.651   5.469   2.943  3.5452 -0.5358 -0.4052
   38MOL   H21613610   1.664   5.378   3.100  1.2903  0.8884  0.6488
   38MOL   H21713611   1.726   5.544   3.085 -0.6187 -0.1777  2.1301
   38MOL   C21813612   1.632   5.174   3.575  0.1038  0.6456  0.0559
   38MOL   C21913613   1.606   5.027   3.613 -0.4194  0.0137 -0.3057
   38MOL   C22013614   1.596   4.933   3.497 -0.4773 -0.2648  0.3128
   38MOL   O22113615   1.501   4.856   3.477  0.4910 -0.4890 -0.2430
   38MOL   O22213616   1.699   4.951   3.417 -0.0848 -0.2645  0.7990
   38MOL   C22313617   1.702   4.880   3.292  1.0914  0.1113 -0.0661
   38MOL   C22413618   1.825   4.949   3.234 -0.1138 -0.3694  0.3954
   38MOL   C22513619   1.807   5.093   3.194 -0.0734 -0.2079 -0.0823
   38MOL   H22613620   1.635   5.237   3.664  3.6141 -0.3821  0.7307
   38MOL   H22713621   1.731   5.186   3.531  0.1806  1.5176  0.4533
   38MOL   H22813622   1.507   5.024   3.659 -0.1999  1.9787  0.3490
   38MOL   H22913623   1.718   4.776   3.320  1.5325 -0.3257 -1.8561
   38MOL   H23013624   1.618   4.887   3.223 -0.8730 -1.0961  2.1119
   38MOL   H23113625   1.900   4.937   3.313  1.1359 -1.2860 -0.9068
   38MOL   H23213626   1.866   4.901   3.145  0.3778 -0.4532  0.6639
   38MOL   H23313627   1.900   5.138   3.159  0.4493  0.9491  2.6320
   38MOL   H23413628   1.781   5.149   3.284 -0.0454  0.6547 -0.5991
   38MOL   H23513629   1.735   5.090   3.112 -1.1651 -1.4183  0.9176
   38MOL   C23613630   1.709   4.984   3.719  1.0545  0.2605  0.0924
   38MOL   C23713631   1.696   4.847   3.781  1.4103  0.0437  0.2852
   38MOL   C23813632   1.794   4.744   3.714  0.4941 -0.5060 -0.6126
   38MOL   O23913633   1.758   4.657   3.638 -0.1294  0.1679  0.1387
   38MOL   O24013634   1.923   4.772   3.758 -0.1243 -0.1037 -0.3767
   38MOL   C24113635   2.032   4.684   3.707 -0.1445  0.1996 -0.0677
   38MOL   C24213636   2.133   4.671   3.827 -0.1280 -0.2893  0.4079
   38MOL   C24313637   2.069   4.591   3.941  0.4350 -0.2118  0.3699
   38MOL   H24413638   1.689   5.053   3.800 -1.7332 -1.7817  1.2086
   38MOL   H24513639   1.813   5.000   3.688  2.0505 -2.0604  2.0324
   38MOL   H24613640   1.598   4.803   3.765  1.0975  0.5805  0.6995
   38MOL   H24713641   1.990   4.587   3.681 -0.0689 -0.1083  0.9366
   38MOL   H24813642   2.079   4.733   3.622 -0.9152  0.2818 -0.4538
   38MOL   H24913643   2.223   4.618   3.795  0.0731 -0.7441  1.6940
   38MOL   H25013644   2.173   4.765   3.863  1.7138  0.0939 -2.4898
   38MOL   H25113645   2.065   4.486   3.913  0.1287 -0.1466  0.1667
   38MOL   H25213646   1.973   4.637   3.961 -0.0955  0.2266 -2.9330
   38MOL   H25313647   2.137   4.609   4.024  0.6291 -0.5751  0.2909
   38MOL   C25413648   1.713   4.853   3.932  0.3742  0.0518 -0.0333
   38MOL   C25513649   1.677   4.737   4.026  0.4259 -0.0833  0.4324
   38MOL   C25613650   1.763   4.732   4.154 -0.2795  0.4317  0.1514
   38MOL   O25713651   1.816   4.629   4.199 -0.1766 -0.3503  0.0788
   38MOL   O25813652   1.764   4.848   4.217  0.3362 -0.2084 -0.1570
   38MOL   C25913653   1.847   4.870   4.326 -0.0205 -0.2759  0.1651
   38MOL   C26013654   1.764   4.849   4.455 -0.3221  0.3795 -0.0975
   38MOL   C26113655   1.664   4.955   4.486  0.4638 -0.6643 -0.4916
   38MOL   H26213656   1.654   4.937   3.968 -0.0512  0.4996 -1.7612
   38MOL   H26313657   1.812   4.894   3.949  0.2637 -0.0445  0.8558
   38MOL   H26413658   1.688   4.647   3.966  1.0766  1.2684 -1.5257
   38MOL   H26513659   1.935   4.807   4.313 -0.0788 -0.2547 -0.3315
   38MOL   H26613660   1.873   4.976   4.326  0.9014 -0.4976 -1.5064
   38MOL   H26713661   1.728   4.746   4.452  0.3417  0.1410 -0.0964
   38MOL   H26813662   1.845   4.850   4.529  1.1632 -1.5364 -1.6351
   38MOL   H26913663   1.604   4.992   4.404 -1.8003  0.2637  1.5093
   38MOL   H27013664   1.718   5.042   4.522  0.6237  0.6329 -3.7243
   38MOL   H27113665   1.600   4.910   4.563  2.4166 -1.1533  0.8899
   38MOL   C27213666   1.532   4.746   4.054  0.5617  0.4779  0.1338
   38MOL   C27313667   1.464   4.601   4.070  0.2542 -0.3678 -0.7007
   38MOL   C27413668   1.464   4.509   3.940  0.3297 -0.8778  0.1666
   38MOL   O27513669   1.368   4.506   3.861  0.0394 -0.2234  0.3038
   38MOL   O27613670   1.567   4.426   3.937 -0.1074 -0.6968  0.2720
   38MOL   C27713671   1.593   4.348   3.820 -0.1062  0.0741 -0.4938
   38MOL   C27813672   1.740   4.309   3.821  0.5250 -0.1952 -0.4124
   38MOL   C27913673   1.790   4.238   3.950  0.2733  0.0760  0.1062
   38MOL   H28013674   1.475   4.789   3.971 -0.1100 -1.9571 -0.7025
   38MOL   H28113675   1.517   4.816   4.136 -3.9915 -0.3462  0.1577
   38MOL   H28213676   1.358   4.608   4.093  0.5867  2.4084  0.2309
   38MOL   H28313677   1.526   4.263   3.835 -0.9543  0.8311  0.0476
   38MOL   H28413678   1.559   4.405   3.734 -0.7413 -0.8775 -0.8890
   38MOL   H28513679   1.752   4.249   3.731 -0.7696  0.1304 -0.8150
   38MOL   H28613680   1.803   4.397   3.806  1.1099 -0.3351  1.1283
   38MOL   H28713681   1.761   4.290   4.041  0.0919  0.3838 -0.1258
   38MOL   H28813682   1.898   4.233   3.939 -0.0616 -3.5926 -2.4618
   38MOL   H28913683   1.748   4.138   3.958  1.8178 -0.5041  1.0784
   38MOL   C29013684   1.506   4.527   4.191 -0.4158 -0.4908  0.2260
   38MOL   C29113685   1.412   4.417   4.256  0.6373  0.3469  0.6410
   38MOL   C29213686   1.499   4.332   4.349  0.6865  0.6913  0.3687
   38MOL   O29313687   1.600   4.374   4.410 -0.2026  0.2353 -0.5260
   38MOL   O29413688   1.450   4.211   4.345 -0.1170  0.1227 -0.1371
   38MOL   C29513689   1.494   4.113   4.430  0.0512  0.1813 -0.0161
   38MOL   C29613690   1.393   4.092   4.541 -0.3066 -0.0927 -0.1519
   38MOL   C29713691   1.267   4.008   4.516 -0.7339  0.7636 -0.3041
   38MOL   H29813692   1.503   4.605   4.267 -0.3145  0.0796 -0.3542
   38MOL   H29913693   1.613   4.507   4.187 -0.3084  0.1935 -0.4239
   38MOL   H30013694   1.378   4.356   4.172  1.9234 -1.5491  1.4542
   38MOL   H30113695   1.516   4.020   4.377 -0.7362  0.3930 -0.7306
   38MOL   H30213696   1.588   4.136   4.480  0.9769 -5.0624  0.9741
   38MOL   H30313697   1.448   4.044   4.622  0.6705  0.2451 -0.6124
   38MOL   H30413698   1.364   4.188   4.583 -2.3236 -0.9467  0.4755
   38MOL   H30513699   1.205   3.987   4.603  2.0476  0.0255  1.5596
   38MOL   H30613700   1.283   3.908   4.475 -0.3838 -0.4503  2.7161
   38MOL   H30713701   1.209   4.061   4.441 -1.2353 -0.5236 -0.8556
   38MOL   C30813702   1.275   4.462   4.319  0.9728  0.0713 -0.2525
   38MOL   C30913703   1.293   4.560   4.437  0.4550 -0.4088  0.6618
   38MOL   C31013704   1.288   4.709   4.394 -0.0066 -0.4285 -0.9260
   38MOL   O31113705   1.241   4.746   4.285 -0.4025 -0.2083 -0.4722
   38MOL   O31213706   1.341   4.789   4.495 -0.9057 -0.0054  0.1256
   38MOL   C31313707   1.300   4.928   4.496  0.3967 -0.2301  0.1168
   38MOL   C31413708   1.281   4.976   4.637 -0.5009 -0.1643  0.5303
   38MOL   C31513709   1.266   5.127   4.652 -0.1171  0.4362  0.6614
   38MOL   H31613710   1.205   4.386   4.353  0.0832  0.5876 -0.9157
   38MOL   H31713711   1.223   4.504   4.234 -0.7445 -0.3256  0.5814
   38MOL   H31813712   1.392   4.535   4.476  0.8896 -0.7951 -0.6703
   38MOL   H31913713   1.388   4.973   4.451  1.2730 -0.5765  1.4416
   38MOL   H32013714   1.214   4.950   4.433  0.7976  2.1785  0.3494
   38MOL   H32113715   1.202   4.918   4.685 -0.5116 -1.2948 -0.8467
   38MOL   H32213716   1.365   4.957   4.703  0.5279  1.8134 -0.1798
   38MOL   H32313717   1.333   5.172   4.578  0.7037 -0.0199  1.1159
   38MOL   H32413718   1.165   5.157   4.626 -0.1683  2.8254  3.3825
   38MOL   H32513719   1.290   5.169   4.750 -0.5800  1.3939  0.3702
   38MOL   C32613720   1.185   4.534   4.545 -0.4650 -0.9406 -0.3246
   38MOL   C32713721   1.204   4.590   4.688 -0.6846 -0.0177  0.2404
   38MOL   C32813722   1.084   4.566   4.779 -0.0326  0.0407  0.1081
   38MOL   O32913723   1.018   4.460   4.773 -0.2261 -0.3888 -0.4689
   38MOL   O33013724   1.060   4.670   4.860 -0.2274 -0.3114 -0.3060
   38MOL   C33113725   0.969   4.647   4.963 -0.2516  0.6142  0.2297
   38MOL   C33213726   0.990   4.728   5.091  0.4441  0.6696  0.4374
   38MOL   C33313727   1.028   4.868   5.038 -0.1711  0.3874 -0.3421
   38MOL   H33413728   1.193   4.426   4.561 -2.9946 -0.7166  3.0163
   38MOL   H33513729   1.085   4.550   4.503 -0.8461  0.8805  1.1608
   38MOL   H33613730   1.204   4.699   4.684 -0.2423  0.0500  1.6353
   38MOL   H33713731   0.875   4.682   4.920 -0.3335  0.9178  0.6508
   38MOL   H33813732   0.972   4.545   5.001  0.7715  1.3385  2.1814
   38MOL   H33913733   0.895   4.729   5.146  0.3734  0.3354  0.3219
   38MOL   H34013734   1.063   4.684   5.159  0.6939 -0.0413 -0.2800
   38MOL   H34113735   0.990   4.945   5.106  3.0308  0.3142  1.6522
   38MOL   H34213736   1.136   4.878   5.036 -0.0408 -0.4616  1.3525
   38MOL   H34313737   0.992   4.892   4.938  0.4673 -2.2546 -1.2279
   38MOL   C34413738   1.335   4.537   4.746 -0.3674 -0.3125  0.5658
   38MOL   C34513739   1.371   4.605   4.880  0.0601  0.1365 -0.2228
   38MOL   C34613740   1.464   4.722   4.865  0.4803  0.0578  0.1239
   38MOL   O34713741   1.509   4.743   4.756  0.0860 -0.6180  0.4218
   38MOL   O34813742   1.466   4.802   4.977  0.3828 -0.4952 -0.5442
   38MOL   C34913743   1.536   4.923   4.988  0.2343 -0.6559  0.5371
   38MOL   C35013744   1.465   5.032   5.078  0.1342  0.4661 -0.1280
   38MOL   C35113745   1.553   5.145   5.141 -0.9953  0.1176  0.2634
   38MOL   H35213746   1.418   4.533   4.676  0.8659 -1.7754  2.0645
   38MOL   H35313747   1.305   4.433   4.763 -0.7460 -0.2790  0.1084
   38MOL   H35413748   1.424   4.531   4.940  1.6033  0.6564 -0.9237
   38MOL   H35513749   1.637   4.909   5.028  1.9181  2.0700 -2.5141
   38MOL   H35613750   1.575   4.967   4.896  2.0547 -0.1154  1.5407
   38MOL   H35713751   1.387   5.073   5.013  2.4309  1.4877 -2.3207
   38MOL   H35813752   1.412   4.969   5.149 -0.0880 -1.4575 -1.9486
   38MOL   H35913753   1.635   5.095   5.193 -1.3163  0.5684  1.2126
   38MOL   H36013754   1.598   5.213   5.068 -0.9164 -0.1698  0.0404
   38MOL   H36113755   1.490   5.194   5.215 -1.8543 -0.9052  0.2151
   38MOL   H36213756   1.288   4.644   4.939 -0.3777  4.0926 -3.2525
   39MOL     C113757   2.287   7.478   3.784 -0.0320 -0.4843  0.1372
   39MOL     C213758   2.159   7.426   3.716 -0.4583  0.3447  0.2240
   39MOL     C313759   2.196   7.382   3.571  0.2620  0.0414 -1.2951
   39MOL     O413760   2.257   7.279   3.541  0.3784  0.2924 -0.0994
   39MOL     O513761   2.151   7.471   3.477 -0.2656  0.2891  0.1939
   39MOL     C613762   2.187   7.456   3.337  0.9248 -0.2768 -0.2358
   39MOL     C713763   2.185   7.604   3.298 -0.2685  0.2435  0.1719
   39MOL     C813764   2.221   7.640   3.151 -0.0940 -0.2883 -0.1525
   39MOL     H913765   2.263   7.506   3.887  0.0438  1.1001 -0.2698
   39MOL    H1013766   2.374   7.412   3.782  0.5037  0.2421 -0.5930
   39MOL    H1113767   2.081   7.500   3.697 -0.3703  0.1324 -1.0400
   39MOL    H1213768   2.288   7.418   3.322  0.2136 -1.1651 -3.1902
   39MOL    H1313769   2.119   7.393   3.279 -0.8752  2.9885 -1.8224
   39MOL    H1413770   2.085   7.641   3.322 -0.1356  0.7543 -0.0533
   39MOL    H1513771   2.253   7.646   3.372 -1.4340  2.2980  0.0980
   39MOL    H1613772   2.210   7.746   3.129  0.7230  0.3063  2.1879
   39MOL    H1713773   2.323   7.611   3.124  0.2242  0.9719 -0.3254
   39MOL    H1813774   2.157   7.589   3.079  0.3613  0.7232 -1.2828
   39MOL    H1913775   2.297   7.580   3.748 -3.0035  0.0414  0.6592
   39MOL    C2013776   2.096   7.310   3.805 -0.2069 -0.1710 -0.7505
   39MOL    C2113777   1.980   7.227   3.747  0.0639 -0.6851  0.3907
   39MOL    C2213778   1.948   7.109   3.837  0.4072 -0.0565  0.4304
   39MOL    O2313779   1.915   7.122   3.957  0.0300  0.3298 -0.1762
   39MOL    O2413780   1.970   6.989   3.779  0.2924  0.7664 -0.5625
   39MOL    C2513781   1.948   6.864   3.838  0.2425  0.7299 -0.7290
   39MOL    C2613782   1.804   6.814   3.843  0.0588 -0.4229 -0.5845
   39MOL    C2713783   1.764   6.757   3.708  0.5203 -0.4445 -0.0836
   39MOL    H2813784   2.053   7.365   3.889 -2.1949 -0.2303 -1.6944
   39MOL    H2913785   2.179   7.249   3.842 -0.1252  1.5326  2.0471
   39MOL    H3013786   2.008   7.186   3.650  0.5547 -1.7800  0.9731
   39MOL    H3113787   2.012   6.790   3.792 -0.0492 -1.5016  2.2357
   39MOL    H3213788   1.984   6.879   3.940 -1.3056  0.2711 -0.0846
   39MOL    H3313789   1.789   6.731   3.913  3.3547 -0.4162  0.2363
   39MOL    H3413790   1.741   6.894   3.882  2.3625  1.2625 -0.2525
   39MOL    H3513791   1.656   6.745   3.693 -0.0233  0.5775  2.7744
   39MOL    H3613792   1.806   6.661   3.680 -0.3417 -0.6912 -0.5462
   39MOL    H3713793   1.787   6.832   3.632  0.7356  0.3537  0.7486
   39MOL    C3813794   1.851   7.312   3.732 -0.2605 -0.0372  0.3141
   39MOL    C3913795   1.736   7.255   3.644 -0.7863 -0.2741  0.0284
   39MOL    C4013796   1.782   7.240   3.496  0.1078  0.5295 -0.3713
   39MOL    O4113797   1.767   7.331   3.418 -0.1816  0.2747 -0.6087
   39MOL    O4213798   1.849   7.130   3.472 -0.1456  0.0459 -0.1236
   39MOL    C4313799   1.885   7.102   3.343 -0.1742 -0.4339  0.0673
   39MOL    C4413800   1.991   6.988   3.342  0.3557  0.2846 -0.3866
   39MOL    C4513801   2.038   6.941   3.201  0.0832  0.0347  0.2182
   39MOL    H4613802   1.874   7.416   3.709  0.8408 -0.5727 -1.0417
   39MOL    H4713803   1.812   7.330   3.832  0.1576  0.0130  0.4680
   39MOL    H4813804   1.665   7.337   3.634 -0.6805 -0.2699 -0.7724
   39MOL    H4913805   1.789   7.068   3.304  0.0938  1.0230 -1.9658
   39MOL    H5013806   1.917   7.195   3.294 -2.0554  0.8528  1.2198
   39MOL    H5113807   2.078   7.015   3.401 -1.0845 -0.8288  2.3100
   39MOL    H5213808   1.949   6.902   3.394  0.4507 -0.4644 -1.5280
   39MOL    H5313809   2.073   7.021   3.136 -2.4745  2.1691  1.3777
   39MOL    H5413810   1.955   6.908   3.140 -0.5254  0.4831  0.7894
   39MOL    H5513811   2.118   6.869   3.220  2.0656  2.0176 -0.4154
   39MOL    C5613812   1.663   7.133   3.696  0.8071 -1.2224 -0.2438
   39MOL    C5713813   1.521   7.120   3.649 -0.0782  0.0033  0.4720
   39MOL    C5813814   1.513   7.053   3.512  0.0642  0.3714  0.3430
   39MOL    O5913815   1.527   6.928   3.501  0.1935  0.1790 -0.0544
   39MOL    O6013816   1.470   7.132   3.411  0.3905 -0.3676  0.2484
   39MOL    C6113817   1.458   7.086   3.279  0.2460  0.1816  0.6287
   39MOL    C6213818   1.348   7.166   3.201 -0.0543  0.1739 -0.2836
   39MOL    C6313819   1.290   7.101   3.066  0.5673  0.5092 -0.9736
   39MOL    H6413820   1.665   7.134   3.805 -0.9360  0.2458 -0.2158
   39MOL    H6513821   1.705   7.039   3.658  1.9171 -0.4244 -1.0352
   39MOL    H6613822   1.487   7.222   3.633 -2.2682 -0.6565  0.7337
   39MOL    H6713823   1.558   7.092   3.235  0.0333 -0.4840  0.0580
   39MOL    H6813824   1.444   6.978   3.285 -1.1795  0.3170 -0.1036
   39MOL    H6913825   1.265   7.199   3.263  0.4270 -0.7330  0.8619
   39MOL    H7013826   1.412   7.249   3.171  0.7101 -0.5455 -0.6638
   39MOL    H7113827   1.378   7.070   3.009 -0.6827 -3.0292 -1.1206
   39MOL    H7213828   1.237   7.175   3.007  2.7375  2.9476  0.0307
   39MOL    H7313829   1.234   7.009   3.080  0.2930  0.8976  0.5418
   39MOL    C7413830   1.428   7.042   3.754 -0.0908  0.6300  0.2782
   39MOL    C7513831   1.280   7.029   3.706 -0.1806  1.3126 -0.1979
   39MOL    C7613832   1.200   6.935   3.790 -0.1212  1.1016  0.1990
   39MOL    O7713833   1.156   6.831   3.746  0.2576 -0.3108 -0.3214
   39MOL    O7813834   1.195   6.967   3.919  0.2869  0.0135 -0.5222
   39MOL    C7913835   1.133   6.886   4.014 -0.2690 -0.1040 -0.4238
   39MOL    C8013836   1.248   6.845   4.107  0.3314 -0.0120 -0.0144
   39MOL    C8113837   1.367   6.767   4.047  0.5763 -0.4903  0.2881
   39MOL    H8213838   1.414   7.095   3.848 -2.2251 -1.0157  0.9315
   39MOL    H8313839   1.455   6.938   3.774 -0.1653  0.6504  0.4893
   39MOL    H8413840   1.277   6.993   3.603 -1.2369  1.1610 -0.1143
   39MOL    H8513841   1.065   6.940   4.079 -0.2704 -0.9431  0.2749
   39MOL    H8613842   1.076   6.799   3.981  2.5507 -2.5222  0.9002
   39MOL    H8713843   1.286   6.938   4.149  1.4573 -0.0461 -0.9422
   39MOL    H8813844   1.211   6.784   4.189 -1.2671  0.6447 -0.2138
   39MOL    H8913845   1.393   6.816   3.953  0.6671 -0.7505  0.1777
   39MOL    H9013846   1.347   6.660   4.049  0.9512 -0.6116 -1.6480
   39MOL    H9113847   1.446   6.761   4.122 -0.9702 -2.7981  1.7877
   39MOL    C9213848   1.204   7.162   3.692 -0.2854 -0.0677 -0.3364
   39MOL    C9313849   1.066   7.160   3.627  0.2316 -0.1381  0.8573
   39MOL    C9413850   1.014   7.306   3.648  0.4668 -0.9886  0.2635
   39MOL    O9513851   1.059   7.406   3.586  0.2256  0.1878  0.2439
   39MOL    O9613852   0.917   7.315   3.737  0.4881  0.5483  0.5010
   39MOL    C9713853   0.863   7.428   3.797 -0.2135 -0.2907  0.2722
   39MOL    C9813854   0.707   7.419   3.794  0.0910 -0.2083 -1.1140
   39MOL    C9913855   0.650   7.324   3.894 -0.1385  0.8107 -0.1187
   39MOL   H10013856   1.266   7.235   3.640 -1.3778  0.1353 -1.3821
   39MOL   H10113857   1.202   7.214   3.788 -2.4508 -0.3803 -0.1877
   39MOL   H10213858   1.006   7.096   3.692  1.5743  0.6483  2.9172
   39MOL   H10313859   0.911   7.443   3.893 -0.0929  0.2235  0.1311
   39MOL   H10413860   0.897   7.521   3.752  0.3621 -0.3225  0.6378
   39MOL   H10513861   0.671   7.519   3.816  0.7803  0.0259 -1.0294
   39MOL   H10613862   0.674   7.391   3.693 -2.7461 -1.1703  0.0278
   39MOL   H10713863   0.708   7.350   3.983 -2.4495 -2.3062  2.4084
   39MOL   H10813864   0.663   7.219   3.868 -2.8448  0.9778 -2.3713
   39MOL   H10913865   0.546   7.347   3.916 -0.1419  1.0996 -0.4298
   39MOL   C11013866   1.081   7.114   3.473  0.2667 -0.0654 -0.2570
   39MOL   C11113867   0.955   7.058   3.403 -0.2965  0.0207 -0.2279
   39MOL   C11213868   0.833   7.147   3.404 -0.4869  0.1222  0.5699
   39MOL   O11313869   0.722   7.108   3.435  0.2903  0.1636 -0.4463
   39MOL   O11413870   0.857   7.270   3.363  0.6934  0.3820  0.8105
   39MOL   C11513871   0.757   7.367   3.351  0.1054  0.3719 -0.1874
   39MOL   C11613872   0.812   7.508   3.390  0.1373  0.3157 -0.3776
   39MOL   C11713873   0.945   7.537   3.316 -0.1311  0.2217  0.1022
   39MOL   H11813874   1.165   7.047   3.453  0.4604  0.4828 -1.3485
   39MOL   H11913875   1.114   7.204   3.422 -2.8518  0.4855 -1.4050
   39MOL   H12013876   0.922   6.971   3.460 -0.5667  0.9959  1.1587
   39MOL   H12113877   0.718   7.368   3.249 -2.0593  1.3484  0.6102
   39MOL   H12213878   0.676   7.342   3.419  1.1381 -1.1893  0.4845
   39MOL   H12313879   0.741   7.585   3.358 -0.1674  0.0568 -0.3273
   39MOL   H12413880   0.826   7.523   3.497 -1.4907  0.6416 -0.1950
   39MOL   H12513881   1.020   7.459   3.329 -0.0699  0.5472  1.9027
   39MOL   H12613882   0.988   7.632   3.348 -0.3134  0.1951  0.4313
   39MOL   H12713883   0.933   7.547   3.208 -0.4145  1.0470  0.2083
   39MOL   C12813884   0.988   7.022   3.258 -0.2053 -0.4612 -0.6586
   39MOL   C12913885   0.876   6.944   3.184 -0.7121  0.0284 -0.0897
   39MOL   C13013886   0.879   6.963   3.030  0.1152  0.0944 -0.1638
   39MOL   O13113887   0.987   6.953   2.967  0.4068  0.3353  0.2030
   39MOL   O13213888   0.756   6.982   2.976  0.0273  0.2877  0.1015
   39MOL   C13313889   0.755   7.031   2.839  0.1342  0.5346 -0.6626
   39MOL   C13413890   0.677   6.938   2.751 -0.3353 -0.4330  0.2443
   39MOL   C13513891   0.521   6.942   2.770  0.2323 -0.1682  0.2245
   39MOL   H13613892   1.071   6.953   3.269 -1.7234 -2.2038  0.1911
   39MOL   H13713893   1.024   7.113   3.209 -0.6510 -0.5022 -1.0712
   39MOL   H13813894   0.782   6.990   3.214 -0.7800 -0.4772  0.4803
   39MOL   H13913895   0.702   7.126   2.843 -0.7312 -0.0229  4.2375
   39MOL   H14013896   0.850   7.039   2.786  1.5660 -1.7276  1.4230
   39MOL   H14113897   0.690   6.970   2.648  0.9334  1.3069  0.9270
   39MOL   H14213898   0.707   6.835   2.769 -5.9401 -2.0471  1.4222
   39MOL   H14313899   0.499   7.046   2.795  1.3444  0.0797  0.1826
   39MOL   H14413900   0.485   6.879   2.851 -1.3730  1.6817  1.0047
   39MOL   H14513901   0.480   6.912   2.674 -0.3701 -1.5184  0.8898
   39MOL   C14613902   0.848   6.796   3.221  0.0601  0.5241 -0.4118
   39MOL   C14713903   0.708   6.766   3.290 -0.9417  0.3697 -0.2147
   39MOL   C14813904   0.589   6.811   3.212 -0.5321 -0.6468  0.1641
   39MOL   O14913905   0.535   6.734   3.126  0.1146 -0.2301 -0.4283
   39MOL   O15013906   0.547   6.941   3.240 -0.6688  0.0873 -0.4185
   39MOL   C15113907   0.424   6.992   3.182  0.3334  1.0190  0.5510
   39MOL   C15213908   0.408   7.135   3.201 -0.8884  0.4238  0.0956
   39MOL   C15313909   0.502   7.213   3.109  0.0046 -0.2589 -0.0042
   39MOL   H15413910   0.924   6.749   3.284  0.1361 -0.9135 -1.5621
   39MOL   H15513911   0.853   6.741   3.127 -1.9355  1.1824 -0.9234
   39MOL   H15613912   0.704   6.824   3.382  1.5852 -0.1129  0.2342
   39MOL   H15713913   0.414   6.956   3.080  1.7955 -2.0561  1.4445
   39MOL   H15813914   0.337   6.946   3.228  1.6676 -0.3745  1.7298
   39MOL   H15913915   0.300   7.141   3.194 -0.8455  1.4802  0.2015
   39MOL   H16013916   0.442   7.152   3.303 -1.2593 -0.8317  0.4327
   39MOL   H16113917   0.464   7.315   3.114 -1.8603 -0.8346 -1.7560
   39MOL   H16213918   0.498   7.174   3.007 -1.5086  0.2285 -0.1347
   39MOL   H16313919   0.607   7.203   3.138 -0.2471 -0.4406  0.8600
   39MOL   C16413920   0.708   6.616   3.330 -0.6997  0.3956  0.0428
   39MOL   C16513921   0.581   6.567   3.408  0.3949 -0.6958 -0.2634
   39MOL   C16613922   0.573   6.416   3.420  0.5404  0.0455  0.4330
   39MOL   O16713923   0.478   6.354   3.375 -0.1547 -0.2724 -0.4107
   39MOL   O16813924   0.681   6.358   3.476 -0.1467  0.0043  0.0918
   39MOL   C16913925   0.677   6.218   3.505 -0.7657 -0.1786  0.4024
   39MOL   C17013926   0.795   6.186   3.597  0.2565  0.4402 -0.2672
   39MOL   C17113927   0.931   6.218   3.527  0.5016  0.6685  0.4754
   39MOL   H17213928   0.796   6.593   3.389  0.5649 -0.4178 -2.0925
   39MOL   H17313929   0.718   6.554   3.241 -1.2362  0.6214 -0.1823
   39MOL   H17413930   0.495   6.598   3.349  1.0323  2.1275  0.1985
   39MOL   H17513931   0.586   6.197   3.561 -1.8814 -1.8106 -1.9717
   39MOL   H17613932   0.675   6.151   3.419 -3.1864 -0.4689  0.6672
   39MOL   H17713933   0.791   6.245   3.688  0.5302  1.2481 -0.7746
   39MOL   H17813934   0.796   6.079   3.617  2.9536  0.3666 -0.6384
   39MOL   H17913935   1.007   6.181   3.596  1.0196  1.8522  0.5453
   39MOL   H18013936   0.939   6.324   3.504 -2.2768  0.6734 -0.6067
   39MOL   H18113937   0.955   6.171   3.432  0.4837  2.3357 -0.3582
   39MOL   C18213938   0.553   6.634   3.555  0.0822  0.1449 -0.2845
   39MOL   C18313939   0.648   6.598   3.679 -0.1219 -0.8304  0.5075
   39MOL   C18413940   0.750   6.712   3.705  0.2355 -0.2988 -0.3602
   39MOL   O18513941   0.866   6.699   3.678  0.6287  0.2883 -0.0389
   39MOL   O18613942   0.699   6.815   3.760 -0.4547 -0.2142  0.4307
   39MOL   C18713943   0.762   6.943   3.768 -0.2351 -0.6244 -0.1339
   39MOL   C18813944   0.846   6.937   3.897 -0.1949 -0.0275 -0.1594
   39MOL   C18913945   0.765   6.919   4.028  0.0677  0.4936 -0.1889
   39MOL   H19013946   0.453   6.608   3.590 -0.3156 -0.3148 -1.7446
   39MOL   H19113947   0.551   6.741   3.540 -0.1615  0.0292 -1.1111
   39MOL   H19213948   0.704   6.509   3.656  2.4937  1.0787 -0.7240
   39MOL   H19313949   0.823   6.956   3.679 -0.2100 -0.6546 -0.1212
   39MOL   H19413950   0.685   7.020   3.776 -0.2597 -0.7480  0.9823
   39MOL   H19513951   0.923   6.860   3.884 -0.5591 -0.5336  0.6567
   39MOL   H19613952   0.894   7.035   3.902 -2.5415  1.0682  2.3238
   39MOL   H19713953   0.822   6.884   4.114 -1.5691 -0.7032  0.4460
   39MOL   H19813954   0.678   6.853   4.022  1.1879 -0.9617 -0.6842
   39MOL   H19913955   0.706   7.007   4.056 -1.5269 -0.6104 -0.0271
   39MOL   C20013956   0.560   6.557   3.799  0.6791 -0.2434  0.7391
   39MOL   C20113957   0.638   6.535   3.936 -0.4868  0.4638 -0.1215
   39MOL   C20213958   0.541   6.531   4.054  0.1043 -0.0282  0.0819
   39MOL   O20313959   0.550   6.612   4.144 -0.5910  0.1932  0.3021
   39MOL   O20413960   0.452   6.438   4.047  0.0718  0.2491  0.0426
   39MOL   C20513961   0.337   6.449   4.138  0.2114  0.6171  0.9081
   39MOL   C20613962   0.282   6.304   4.181 -0.1261  0.7039  0.4128
   39MOL   C20713963   0.378   6.234   4.282 -0.4276 -0.2749  0.5396
   39MOL   H20813964   0.501   6.469   3.772  1.5746 -0.8247  0.6644
   39MOL   H20913965   0.487   6.637   3.804  2.1706  1.2788 -1.0130
   39MOL   H21013966   0.694   6.625   3.962 -0.5241 -0.2228  2.5141
   39MOL   H21113967   0.360   6.506   4.228  1.5956 -0.0091  0.9459
   39MOL   H21213968   0.271   6.512   4.078  0.0938 -0.6334 -0.3060
   39MOL   H21313969   0.181   6.323   4.216 -1.3381 -1.1348 -1.9690
   39MOL   H21413970   0.276   6.236   4.096  0.5526 -0.6317  1.4130
   39MOL   H21513971   0.368   6.125   4.286 -1.9806 -0.1444  0.4738
   39MOL   H21613972   0.365   6.268   4.384  0.5931 -0.3611  0.7044
   39MOL   H21713973   0.476   6.257   4.239 -0.3066  0.3739  1.1552
   39MOL   C21813974   0.736   6.414   3.925  0.3402 -0.0427  0.7833
   39MOL   C21913975   0.820   6.388   4.054  0.4712 -0.3931  0.2544
   39MOL   C22013976   0.859   6.236   4.058 -0.7285 -0.1864 -0.4129
   39MOL   O22113977   0.918   6.186   3.968  0.4489 -0.2785  0.1115
   39MOL   O22213978   0.812   6.174   4.170  0.4596 -0.0153 -0.3583
   39MOL   C22313979   0.857   6.046   4.204 -0.4562 -0.6938  0.3635
   39MOL   C22413980   0.760   5.976   4.309  0.3653 -0.6687  0.5211
   39MOL   C22513981   0.618   5.946   4.254 -0.2811  0.1333 -0.0201
   39MOL   H22613982   0.795   6.415   3.833 -1.3025  2.3748 -0.3073
   39MOL   H22713983   0.673   6.331   3.895  3.5501 -0.9790 -4.0698
   39MOL   H22813984   0.764   6.409   4.145  2.2940  1.5658  0.9589
   39MOL   H22913985   0.876   5.982   4.118  0.9612 -2.9820  2.3237
   39MOL   H23013986   0.955   6.041   4.251  0.0614 -0.0813 -0.6421
   39MOL   H23113987   0.812   5.889   4.349  0.3551 -0.8764  0.0850
   39MOL   H23213988   0.735   6.047   4.388 -3.4931 -1.6539  0.2783
   39MOL   H23313989   0.534   5.960   4.323 -0.5523  2.8166 -0.8242
   39MOL   H23413990   0.615   5.850   4.203  1.6684 -0.1744  0.4047
   39MOL   H23513991   0.598   6.021   4.177  1.5397  1.0596  0.3572
   39MOL   C23613992   0.942   6.479   4.068  0.0169 -0.3653 -0.4064
   39MOL   C23713993   0.999   6.515   4.205  0.5898 -0.0242  0.0327
   39MOL   C23813994   0.903   6.598   4.292  0.4567 -0.2435  0.1656
   39MOL   O23913995   0.897   6.722   4.301  0.3165 -0.0822 -0.5092
   39MOL   O24013996   0.820   6.517   4.358  0.5853  0.5251 -0.3045
   39MOL   C24113997   0.721   6.561   4.447  0.3642  0.0268 -0.1563
   39MOL   C24213998   0.607   6.451   4.449  0.4609  0.0023 -0.0129
   39MOL   C24313999   0.492   6.477   4.549  0.1365  0.4023  0.1562
   39MOL   H24414000   0.921   6.573   4.017 -1.2758 -0.7961 -0.6947
   39MOL   H24514001   1.020   6.442   4.003  0.8780 -1.2299  1.0895
   39MOL   H24614002   1.085   6.580   4.196  0.0486  0.4850 -1.7421
   39MOL   H24714003   0.774   6.575   4.541  0.2187  0.5483 -0.1504
   39MOL   H24814004   0.688   6.661   4.418 -0.2893  0.0199  0.5452
   39MOL   H24914005   0.570   6.438   4.347  0.7904 -0.1799 -0.1126
   39MOL   H25014006   0.650   6.359   4.490 -2.1637 -1.4920 -0.4956
   39MOL   H25114007   0.433   6.387   4.566  0.5516  0.3196  1.1903
   39MOL   H25214008   0.422   6.546   4.501 -1.5367 -0.3854  1.4122
   39MOL   H25314009   0.536   6.526   4.635  2.5779 -0.7750 -0.3773
   39MOL   C25414010   1.057   6.395   4.282  0.3672 -0.1145  0.0792
   39MOL   C25514011   1.147   6.433   4.402 -0.3842 -0.8141 -0.1469
   39MOL   C25614012   1.113   6.365   4.534 -0.4966  0.5413 -0.5517
   39MOL   O25714013   1.191   6.294   4.594 -0.1752  0.0996 -0.5727
   39MOL   O25814014   0.992   6.404   4.593 -0.1401 -0.0669 -0.0927
   39MOL   C25914015   0.955   6.356   4.720 -0.6135 -0.4951  0.2179
   39MOL   C26014016   0.803   6.304   4.730 -0.3137  0.0344  0.2508
   39MOL   C26114017   0.768   6.244   4.864  0.0087 -0.0129 -0.1648
   39MOL   H26214018   1.115   6.334   4.213  0.8652  2.0014 -1.4162
   39MOL   H26314019   0.982   6.320   4.312  0.1849 -0.3831 -1.0480
   39MOL   H26414020   1.132   6.541   4.412 -0.5524 -0.8071 -0.4825
   39MOL   H26514021   1.020   6.274   4.751  0.6936  0.7610  0.8722
   39MOL   H26614022   0.977   6.432   4.795 -2.6980  1.1594 -0.7649
   39MOL   H26714023   0.734   6.387   4.712 -1.7047 -0.9243  1.1152
   39MOL   H26814024   0.779   6.241   4.645 -1.3660  0.8628 -0.0848
   39MOL   H26914025   0.808   6.143   4.875 -0.2981  0.0124  1.2236
   39MOL   H27014026   0.660   6.244   4.880  0.1395 -0.7315  0.7679
   39MOL   H27114027   0.805   6.305   4.946 -1.2663  0.7402 -0.1345
   39MOL   C27214028   1.295   6.422   4.369  0.3526 -0.8556 -0.2953
   39MOL   C27314029   1.386   6.502   4.464 -0.5427  0.3847 -0.0123
   39MOL   C27414030   1.513   6.428   4.509 -0.2690  0.0799  0.3174
   39MOL   O27514031   1.553   6.438   4.627 -0.1253 -0.3539  0.4080
   39MOL   O27614032   1.577   6.379   4.405  0.2466  0.0825 -0.2896
   39MOL   C27714033   1.706   6.321   4.425  0.0963  0.0539  0.6392
   39MOL   C27814034   1.765   6.256   4.295  0.2106 -0.2981  0.0232
   39MOL   C27914035   1.882   6.157   4.338 -0.5486 -0.6597  0.1901
   39MOL   H28014036   1.321   6.459   4.269 -0.3901 -1.7140 -0.8103
   39MOL   H28114037   1.312   6.315   4.373 -0.2492 -0.9342  0.2343
   39MOL   H28214038   1.336   6.533   4.556 -0.1833  0.1146  0.2758
   39MOL   H28314039   1.768   6.401   4.465  1.4919  1.3500 -3.8837
   39MOL   H28414040   1.688   6.244   4.500 -1.3310 -0.9422 -0.6945
   39MOL   H28514041   1.684   6.210   4.237  0.5583  2.1289 -2.4880
   39MOL   H28614042   1.807   6.323   4.220  0.5277 -1.2336 -0.6477
   39MOL   H28714043   1.927   6.111   4.250  0.6034 -0.0801  0.4597
   39MOL   H28814044   1.836   6.076   4.395 -0.6099 -0.2569  0.7269
   39MOL   H28914045   1.953   6.208   4.403 -1.2329  1.3212 -0.5940
   39MOL   C29014046   1.416   6.639   4.403 -0.1142  0.3219  0.3386
   39MOL   C29114047   1.495   6.743   4.486 -0.3440 -0.0050 -1.1008
   39MOL   C29214048   1.647   6.742   4.479  0.2564 -0.3771  0.2976
   39MOL   O29314049   1.714   6.746   4.583 -0.6589  0.5244 -0.0545
   39MOL   O29414050   1.691   6.730   4.355  0.7215  0.2216  0.0679
   39MOL   C29514051   1.826   6.701   4.325  0.6633  1.1973  0.2124
   39MOL   C29614052   1.881   6.791   4.216 -0.5106 -0.5096  0.0635
   39MOL   C29714053   1.934   6.929   4.265  0.3966  0.0470 -0.1799
   39MOL   H29814054   1.331   6.701   4.373  0.5847  0.8804 -0.5059
   39MOL   H29914055   1.462   6.640   4.305  0.9950  2.1436  0.8453
   39MOL   H30014056   1.470   6.710   4.587  0.2720  0.5229 -0.7729
   39MOL   H30114057   1.894   6.693   4.410  2.2886 -0.0844 -1.1645
   39MOL   H30214058   1.823   6.601   4.282 -0.5425  1.6184 -0.6939
   39MOL   H30314059   1.968   6.740   4.175  0.7929  0.4661  1.5690
   39MOL   H30414060   1.800   6.809   4.145 -0.6951 -2.0521 -0.1356
   39MOL   H30514061   1.868   6.972   4.340  0.8604 -0.6466  0.6430
   39MOL   H30614062   1.948   7.009   4.193 -0.9558 -0.0448 -0.5543
   39MOL   H30714063   2.023   6.910   4.326  0.5031  0.0438 -0.3362
   39MOL   C30814064   1.437   6.891   4.470  0.0762 -0.8324  0.2020
   39MOL   C30914065   1.361   6.957   4.596 -0.3612 -0.0590  0.5007
   39MOL   C31014066   1.460   7.003   4.701  1.4119 -0.4328 -0.0971
   39MOL   O31114067   1.566   7.061   4.673  0.0889 -0.4448 -0.3396
   39MOL   O31214068   1.405   6.996   4.821  0.5430  1.0242  0.1192
   39MOL   C31314069   1.484   7.016   4.939 -0.4346  0.5971 -0.8864
   39MOL   C31414070   1.414   7.122   5.021 -0.2484  0.0435 -0.4770
   39MOL   C31514071   1.277   7.091   5.070 -0.0084 -0.3649 -0.8961
   39MOL   H31614072   1.378   6.903   4.379 -3.2878 -2.9070  2.0020
   39MOL   H31714073   1.520   6.958   4.447  1.4135 -1.5774  2.7621
   39MOL   H31814074   1.299   6.877   4.637 -0.8391  0.5461  0.9660
   39MOL   H31914075   1.496   6.922   4.992 -0.8348  2.3695  2.4835
   39MOL   H32014076   1.579   7.061   4.913  0.7573 -1.4443 -0.1144
   39MOL   H32114077   1.468   7.158   5.109 -0.2749  0.7692 -0.7534
   39MOL   H32214078   1.402   7.216   4.967 -0.3416 -0.9566 -2.2210
   39MOL   H32314079   1.206   7.137   5.002  1.4014  1.8467 -0.9148
   39MOL   H32414080   1.237   6.991   5.090 -0.7101  0.4049  1.7162
   39MOL   H32514081   1.270   7.142   5.167  0.7337 -0.4809 -0.7778
   39MOL   C32614082   1.266   7.077   4.551 -0.2136 -0.0955 -0.6945
   39MOL   C32714083   1.146   7.086   4.646 -0.0400 -0.1602  0.0130
   39MOL   C32814084   1.117   7.232   4.689  0.4620  0.5492  0.0567
   39MOL   O32914085   1.034   7.302   4.636  0.1656  0.4704 -0.3625
   39MOL   O33014086   1.200   7.260   4.791  0.3187 -0.1671 -0.5455
   39MOL   C33114087   1.199   7.385   4.850  0.4270 -0.0853 -0.0702
   39MOL   C33214088   1.340   7.443   4.823 -1.3894 -0.1219 -0.7407
   39MOL   C33314089   1.362   7.492   4.676  0.1435  0.7810  0.4031
   39MOL   H33414090   1.235   7.092   4.448 -0.9151 -1.1510 -0.6418
   39MOL   H33514091   1.328   7.167   4.556  1.9038 -1.5687  0.5538
   39MOL   H33614092   1.173   7.041   4.741 -0.6404 -2.7175 -0.9740
   39MOL   H33714093   1.121   7.447   4.807 -1.5767 -2.1294  0.4978
   39MOL   H33814094   1.175   7.376   4.956  0.9103  1.4523  0.1838
   39MOL   H33914095   1.358   7.528   4.888  1.0050 -0.2316 -1.2122
   39MOL   H34014096   1.419   7.369   4.832 -2.2240 -0.9556 -0.2188
   39MOL   H34114097   1.468   7.500   4.649  0.2613  0.9564  0.9190
   39MOL   H34214098   1.315   7.415   4.614  1.9462  1.3692 -1.7665
   39MOL   H34314099   1.311   7.585   4.653  0.7963  0.4029 -2.9349
   39MOL   C34414100   1.022   7.017   4.588 -0.0893  0.4361 -0.2799
   39MOL   C34514101   1.021   6.864   4.579 -0.1334  0.1749 -0.2787
   39MOL   C34614102   1.046   6.789   4.709 -0.3466  0.2736 -0.7221
   39MOL   O34714103   1.135   6.703   4.718  0.2189  0.1792  0.2294
   39MOL   O34814104   0.970   6.832   4.814  0.0424 -0.4298 -0.2653
   39MOL   C34914105   0.968   6.769   4.941 -0.1511  0.0515 -0.6252
   39MOL   C35014106   0.817   6.742   4.982 -0.2405  0.4657 -0.6698
   39MOL   C35114107   0.766   6.632   4.889 -0.8406 -0.2309 -0.2943
   39MOL   H35214108   1.009   7.046   4.484  1.9735 -1.3636 -1.0965
   39MOL   H35314109   0.936   7.051   4.646  1.3823  0.6045  1.8717
   39MOL   H35414110   1.103   6.839   4.512  0.9144  1.8393  0.3768
   39MOL   H35514111   1.016   6.671   4.941 -0.4848 -0.1201  1.0140
   39MOL   H35614112   1.024   6.822   5.018 -0.6196  0.3663 -0.5032
   39MOL   H35714113   0.826   6.702   5.083 -0.9449  2.3806  0.1607
   39MOL   H35814114   0.764   6.837   4.984 -2.6729 -0.8447  2.5837
   39MOL   H35914115   0.828   6.543   4.900  2.5731  1.7858 -2.0997
   39MOL   H36014116   0.665   6.600   4.913 -0.5459 -0.0084  1.2773
   39MOL   H36114117   0.771   6.666   4.785 -1.4760  0.8518  0.0288
   39MOL   H36214118   0.936   6.815   4.531 -1.6498  0.9865  1.5342
   40MOL     C114119   0.411   4.675   0.326 -0.1184  0.2616  0.2611
   40MOL     C214120   0.557   4.720   0.353  0.3578 -0.3117  0.9082
   40MOL     C314121   0.587   4.874   0.365  0.0137 -0.3500  0.2131
   40MOL     O414122   0.667   4.932   0.302 -1.0017 -0.3133  0.2917
   40MOL     O514123   0.504   4.937   0.450 -0.3634 -0.1254  0.1049
   40MOL     C614124   0.526   5.070   0.492 -0.4459  0.7526  0.3621
   40MOL     C714125   0.616   5.075   0.616 -0.6013 -0.7248  0.3626
   40MOL     C814126   0.570   4.975   0.728 -0.1113 -0.1300  0.1136
   40MOL     H914127   0.348   4.670   0.415  0.2812  1.1253  0.6010
   40MOL    H1014128   0.349   4.734   0.258  1.9134  0.7590 -1.2143
   40MOL    H1114129   0.616   4.689   0.267 -1.3796 -1.5946  0.1422
   40MOL    H1214130   0.577   5.124   0.412 -2.1489 -0.9919 -1.9671
   40MOL    H1314131   0.427   5.115   0.498 -1.2850 -0.4729 -2.9302
   40MOL    H1414132   0.715   5.046   0.580 -1.3619 -0.7708 -1.8082
   40MOL    H1514133   0.607   5.178   0.651  1.4165 -0.8858  1.4053
   40MOL    H1614134   0.586   4.870   0.703  1.4438  0.4298 -1.3585
   40MOL    H1714135   0.623   5.005   0.818 -1.0789  5.6297 -1.0518
   40MOL    H1814136   0.463   4.992   0.741 -0.1149  1.2028 -1.4998
   40MOL    H1914137   0.406   4.579   0.275 -0.7048  1.8421 -2.7397
   40MOL    C2014138   0.614   4.637   0.467  0.5760  0.3873 -0.1460
   40MOL    C2114139   0.762   4.637   0.500  0.1566  0.3873 -0.5022
   40MOL    C2214140   0.786   4.574   0.644 -0.4214  0.4470  0.1818
   40MOL    O2314141   0.812   4.648   0.740 -0.4894  0.6678  0.3007
   40MOL    O2414142   0.779   4.442   0.653  0.7949  0.4528 -0.0449
   40MOL    C2514143   0.753   4.378   0.776 -0.2171 -0.6321  0.0866
   40MOL    C2614144   0.800   4.233   0.775 -0.2606  0.1655 -0.5815
   40MOL    C2714145   0.727   4.155   0.669  0.3285  0.3099  0.4645
   40MOL    H2814146   0.588   4.534   0.444  1.0597  0.1200  0.4625
   40MOL    H2914147   0.564   4.659   0.561  0.1006 -0.6398 -0.1597
   40MOL    H3014148   0.793   4.741   0.506 -0.5685  0.6742 -1.8016
   40MOL    H3114149   0.799   4.429   0.861  0.6722 -1.7639  0.3025
   40MOL    H3214150   0.646   4.379   0.797 -0.2841  0.6519 -0.2938
   40MOL    H3314151   0.908   4.225   0.770 -0.2182  0.8534 -0.8209
   40MOL    H3414152   0.773   4.192   0.872 -0.2404  0.6244 -0.3814
   40MOL    H3514153   0.622   4.128   0.682 -0.5700  3.6333  0.7442
   40MOL    H3614154   0.799   4.075   0.655  0.0129  0.5169 -2.9758
   40MOL    H3714155   0.728   4.205   0.571 -0.7675  0.9322  0.7644
   40MOL    C3814156   0.844   4.570   0.389 -0.6483 -0.0714  0.3809
   40MOL    C3914157   1.006   4.585   0.401  0.2750  0.6093 -0.2161
   40MOL    C4014158   1.078   4.452   0.439 -0.0122  0.4497 -0.0269
   40MOL    O4114159   1.125   4.376   0.354 -0.5416 -0.0339  0.6163
   40MOL    O4214160   1.088   4.436   0.569  0.0271 -0.0625 -0.4045
   40MOL    C4314161   1.151   4.326   0.630 -0.5200  0.1691  0.2420
   40MOL    C4414162   1.158   4.353   0.782 -0.4313 -0.1715  0.2376
   40MOL    C4514163   1.284   4.433   0.832  0.3596 -0.2451  0.2339
   40MOL    H4614164   0.823   4.614   0.291  1.2788  0.0897  0.0004
   40MOL    H4714165   0.815   4.469   0.362 -1.0734  0.2257 -0.2868
   40MOL    H4814166   1.034   4.658   0.477 -1.5141  1.0174  0.0673
   40MOL    H4914167   1.105   4.227   0.626  0.6132 -0.4199  1.5426
   40MOL    H5014168   1.252   4.324   0.588 -1.1870 -1.5579 -1.3396
   40MOL    H5114169   1.062   4.386   0.823 -0.3819  0.9652 -0.5287
   40MOL    H5214170   1.167   4.255   0.827 -0.6214 -0.8182 -1.1155
   40MOL    H5314171   1.359   4.377   0.889  0.4945  0.2665  0.5539
   40MOL    H5414172   1.261   4.514   0.901  0.4341  0.4172 -0.5107
   40MOL    H5514173   1.337   4.482   0.750 -0.8127 -0.7745 -0.8464
   40MOL    C5614174   1.066   4.645   0.271  0.0929  0.5743 -0.9159
   40MOL    C5714175   1.216   4.646   0.258 -1.0449 -0.1541  0.8787
   40MOL    C5814176   1.263   4.572   0.126 -0.9736 -0.4443  0.2244
   40MOL    O5914177   1.196   4.560   0.025  0.5359  0.0119  0.5109
   40MOL    O6014178   1.396   4.539   0.139  0.2080  0.1898  0.6684
   40MOL    C6114179   1.466   4.450   0.049 -0.4253 -0.5028  0.2713
   40MOL    C6214180   1.424   4.301   0.058  0.8584  0.6034 -0.2561
   40MOL    C6314181   1.444   4.234   0.194  0.1165 -0.8626  0.5092
   40MOL    H6414182   1.042   4.750   0.259 -1.4152  0.4642  0.8480
   40MOL    H6514183   1.016   4.587   0.194  1.0348 -0.9004 -0.4497
   40MOL    H6614184   1.250   4.585   0.342 -0.6315 -1.1150  0.0359
   40MOL    H6714185   1.443   4.481   7.827 -1.0125 -0.1123  0.5212
   40MOL    H6814186   1.574   4.461   0.061 -0.3195 -0.7823 -0.3844
   40MOL    H6914187   1.319   4.282   0.032  0.7257 -2.0050  1.8625
   40MOL    H7014188   1.472   4.231   7.870  2.4265 -1.1677  2.5368
   40MOL    H7114189   1.551   4.227   0.216  0.2315 -1.7147 -0.2716
   40MOL    H7214190   1.404   4.132   0.194  0.0422 -0.8487  2.3089
   40MOL    H7314191   1.387   4.281   0.274 -0.9259  0.1302 -0.7950
   40MOL    C7414192   1.280   4.781   0.275 -0.6967 -0.1590  0.4205
   40MOL    C7514193   1.275   4.838   0.418 -0.3824 -0.2647 -0.2939
   40MOL    C7614194   1.358   4.754   0.520 -0.6343  0.2429  0.9164
   40MOL    O7714195   1.317   4.727   0.633 -0.3729  0.1242  0.0965
   40MOL    O7814196   1.480   4.720   0.475 -0.0502  0.3967  0.0426
   40MOL    C7914197   1.579   4.643   0.554  0.5117 -0.5482  0.7208
   40MOL    C8014198   1.664   4.586   0.440 -0.3328  1.0727  0.3587
   40MOL    C8114199   1.763   4.468   0.475  0.0809  0.4840 -0.3015
   40MOL    H8214200   1.234   4.856   0.211  0.2039 -0.7500 -0.9463
   40MOL    H8314201   1.382   4.782   0.237 -2.1278  0.3057 -3.6857
   40MOL    H8414202   1.173   4.838   0.457 -0.6144  0.3256 -0.8915
   40MOL    H8514203   1.632   4.709   0.623 -1.0662  0.0092  1.4218
   40MOL    H8614204   1.524   4.566   0.609 -1.4302 -0.3683 -0.9253
   40MOL    H8714205   1.610   4.548   0.353 -0.2176 -0.2158  0.8438
   40MOL    H8814206   1.729   4.664   0.401  0.5210 -0.1819 -0.7908
   40MOL    H8914207   1.711   4.374   0.493  1.9190 -0.5332 -0.1776
   40MOL    H9014208   1.822   4.488   0.565 -1.3655  1.5821  0.4265
   40MOL    H9114209   1.831   4.441   0.395 -0.2152  3.6078 -1.6472
   40MOL    C9214210   1.334   4.984   0.409 -0.0882 -0.7656 -0.3750
   40MOL    C9314211   1.318   5.071   0.544 -0.4956 -0.5006 -0.5080
   40MOL    C9414212   1.447   5.136   0.604  0.3735  0.8064 -0.2794
   40MOL    O9514213   1.457   5.257   0.636 -0.0313  0.3299 -0.3718
   40MOL    O9614214   1.547   5.049   0.615 -0.0778  0.2586  0.8125
   40MOL    C9714215   1.678   5.081   0.666  0.2160 -0.3357  0.4463
   40MOL    C9814216   1.791   4.998   0.607 -0.6415 -0.2927  0.1651
   40MOL    C9914217   1.810   5.018   0.452 -0.9514 -0.2228  0.1903
   40MOL   H10014218   1.288   5.044   0.330  0.8427  0.9333  0.3452
   40MOL   H10114219   1.442   4.985   0.390  0.0333  1.4689  0.2496
   40MOL   H10214220   1.287   5.000   0.621  1.1904 -0.7295 -0.0204
   40MOL   H10314221   1.698   5.186   0.642 -0.5013  0.2445  2.2965
   40MOL   H10414222   1.677   5.083   0.775  3.2339 -1.4279  0.5374
   40MOL   H10514223   1.886   5.013   0.659 -1.1248  1.0080  0.6895
   40MOL   H10614224   1.764   4.893   0.619  0.6189 -0.6558 -0.0684
   40MOL   H10714225   1.887   4.951   0.414 -0.4401  2.1403 -3.1394
   40MOL   H10814226   1.826   5.121   0.421  0.8158 -0.9986 -1.5224
   40MOL   H10914227   1.719   4.990   0.399 -1.6603  1.8379  0.2728
   40MOL   C11014228   1.200   5.175   0.553  0.3011  0.8585  0.2003
   40MOL   C11114229   1.059   5.125   0.498 -0.1795  0.2176 -0.4201
   40MOL   C11214230   0.996   5.018   0.576  0.1936 -0.6021 -0.1799
   40MOL   O11314231   0.947   4.918   0.516 -0.2792  0.5571 -0.8902
   40MOL   O11414232   0.995   5.044   0.702  0.1422  0.0814 -0.4120
   40MOL   C11514233   0.949   4.941   0.788 -0.3831 -0.7904 -0.5164
   40MOL   C11614234   1.053   4.838   0.822 -0.0368  0.0048 -0.2730
   40MOL   C11714235   1.175   4.894   0.900  0.1034 -0.3680  0.2095
   40MOL   H11814236   1.230   5.262   0.495  0.4281  0.9625  0.4218
   40MOL   H11914237   1.186   5.212   0.655 -1.9270 -0.1963  0.3115
   40MOL   H12014238   1.076   5.088   0.397 -1.8044  0.4246 -0.7888
   40MOL   H12114239   0.919   4.984   0.884 -0.8447 -3.7607  0.7208
   40MOL   H12214240   0.856   4.897   0.752 -1.7499  1.4377  0.1640
   40MOL   H12314241   1.003   4.756   0.872  2.6516 -1.5217  0.0245
   40MOL   H12414242   1.092   4.782   0.737 -0.4778 -1.1156  0.2469
   40MOL   H12514243   1.230   4.803   0.921  0.9587 -0.3624 -1.8718
   40MOL   H12614244   1.142   4.943   0.992 -1.4600  1.6643 -1.3821
   40MOL   H12714245   1.232   4.968   0.844  0.8702 -0.3079  1.0650
   40MOL   C12814246   0.959   5.242   0.487  0.0385  0.4038  0.0560
   40MOL   C12914247   1.006   5.335   0.371 -0.3774  0.1432 -0.2619
   40MOL   C13014248   1.045   5.273   0.239 -0.1994 -0.2044 -0.6426
   40MOL   O13114249   1.155   5.301   0.193 -0.2010 -0.1057 -0.5546
   40MOL   O13214250   0.962   5.178   0.192 -0.2805  0.3101  0.4526
   40MOL   C13314251   1.007   5.091   0.084 -0.3984  0.2177 -0.4328
   40MOL   C13414252   0.929   4.954   0.072 -0.2467  0.8805  0.8353
   40MOL   C13514253   0.978   4.866   7.840  0.0529 -0.1645  0.1770
   40MOL   H13614254   0.961   5.301   0.579  1.8875 -0.1360  0.3942
   40MOL   H13714255   0.856   5.215   0.464  0.0857 -1.3252  1.6924
   40MOL   H13814256   1.095   5.389   0.404 -0.2812  0.3329 -0.8334
   40MOL   H13914257   1.009   5.152   7.874  3.9471  0.9969  0.0504
   40MOL   H14014258   1.107   5.051   0.104 -1.1321 -1.7265 -0.4942
   40MOL   H14114259   0.921   4.895   0.163 -1.0718 -1.4708 -0.6891
   40MOL   H14214260   0.824   4.974   0.048 -1.3583 -3.2970  1.7361
   40MOL   H14314261   0.957   4.906   7.740  0.4122  1.1308  0.6089
   40MOL   H14414262   0.933   4.767   7.838 -0.3287 -0.0449  1.9792
   40MOL   H14514263   1.087   4.864   7.836  0.0195 -2.0150 -0.1317
   40MOL   C14614264   0.898   5.445   0.354 -0.1436 -0.0096 -0.0659
   40MOL   C14714265   0.854   5.531   0.473 -0.0116 -0.4071 -0.5077
   40MOL   C14814266   0.968   5.630   0.510  0.2635 -0.0128  0.3480
   40MOL   O14914267   1.026   5.628   0.621 -0.0369  0.1497 -0.7191
   40MOL   O15014268   1.003   5.715   0.407  0.2543  0.2875  0.7869
   40MOL   C15114269   1.109   5.813   0.430  0.2835 -0.6922 -0.3672
   40MOL   C15214270   1.059   5.941   0.488  0.7250 -0.3662  0.7383
   40MOL   C15314271   0.937   5.999   0.414 -0.3017 -0.2216  0.4730
   40MOL   H15414272   0.805   5.396   0.323 -0.7847  0.5893  0.8605
   40MOL   H15514273   0.916   5.505   0.265 -0.5766 -0.5563 -0.5327
   40MOL   H15614274   0.844   5.466   0.561 -0.1759 -0.7486 -0.7786
   40MOL   H15714275   1.188   5.780   0.498  0.0569  1.1519  0.8419
   40MOL   H15814276   1.158   5.845   0.338 -2.3797  3.2156 -0.5097
   40MOL   H15914277   1.037   5.926   0.594 -0.3802 -1.7356  0.3350
   40MOL   H16014278   1.137   6.017   0.491  0.3054  0.0953  0.0690
   40MOL   H16114279   0.914   6.098   0.454  0.4151  0.9149 -1.8266
   40MOL   H16214280   0.849   5.936   0.430  0.3730 -1.4190 -0.4176
   40MOL   H16314281   0.972   6.024   0.314  1.1399  1.0473  1.2783
   40MOL   C16414282   0.717   5.601   0.446 -0.3344 -0.2588 -0.1335
   40MOL   C16514283   0.596   5.529   0.500  0.1084  0.6773 -0.3655
   40MOL   C16614284   0.581   5.542   0.653  0.1617 -0.3432 -0.3265
   40MOL   O16714285   0.496   5.621   0.699 -0.7776  0.2741  0.3300
   40MOL   O16814286   0.666   5.475   0.721  0.3850 -0.0831  0.0866
   40MOL   C16914287   0.686   5.503   0.864  0.8220  0.1399 -0.2603
   40MOL   C17014288   0.826   5.440   0.899  0.0091 -1.0670  0.2723
   40MOL   C17114289   0.831   5.284   0.896 -0.3606  0.5713  0.2484
   40MOL   H17214290   0.725   5.644   0.346  3.5268  1.1018  0.6782
   40MOL   H17314291   0.720   5.690   0.507 -1.0050 -2.3549  3.0897
   40MOL   H17414292   0.602   5.427   0.462  1.9795  1.0064 -1.0084
   40MOL   H17514293   0.686   5.609   0.889 -0.4297  0.3279 -1.0062
   40MOL   H17614294   0.610   5.456   0.927  1.0457  1.1784  0.7835
   40MOL   H17714295   0.887   5.470   0.814 -0.5100 -1.9141 -0.3991
   40MOL   H17814296   0.860   5.490   0.990 -0.9893  2.0780 -1.0038
   40MOL   H17914297   0.920   5.249   0.948  0.7138 -0.0886 -1.9698
   40MOL   H18014298   0.830   5.223   0.805  1.0711 -1.4169  1.5497
   40MOL   H18114299   0.754   5.237   0.957  0.0691 -1.5278 -0.7748
   40MOL   C18214300   0.462   5.590   0.432  0.2641 -0.5187  0.0881
   40MOL   C18314301   0.447   5.567   0.281 -0.3038 -0.3758 -0.2926
   40MOL   C18414302   0.424   5.414   0.251 -0.9177 -0.9171 -0.0753
   40MOL   O18514303   0.415   5.338   0.347  0.2983 -0.0688 -0.0013
   40MOL   O18614304   0.430   5.386   0.117  0.6869  0.4620  0.3336
   40MOL   C18714305   0.441   5.250   0.073  0.1155 -0.1765 -0.2734
   40MOL   C18814306   0.582   5.204   0.079 -0.4496  0.0092  0.3905
   40MOL   C18914307   0.671   5.284   7.868 -0.1628  0.0072  0.0904
   40MOL   H19014308   0.460   5.696   0.455  0.0403 -0.7908  1.3683
   40MOL   H19114309   0.373   5.556   0.485  0.0557  0.8845  0.6594
   40MOL   H19214310   0.539   5.597   0.232  0.5148 -0.3171  1.2646
   40MOL   H19314311   0.376   5.198   0.144 -1.5102 -0.3650 -1.8790
   40MOL   H19414312   0.399   5.226   7.856  0.7187  0.3598 -0.6641
   40MOL   H19514313   0.619   5.206   0.181 -1.5444 -1.4832  0.8367
   40MOL   H19614314   0.587   5.101   0.045  1.6140  0.0231  0.5757
   40MOL   H19714315   0.775   5.250   7.871  0.4416  1.7520 -0.2236
   40MOL   H19814316   0.684   5.387   0.022  3.2031 -0.6620  1.0465
   40MOL   H19914317   0.636   5.286   7.765  2.6713 -2.2977 -0.9883
   40MOL   C20014318   0.332   5.655   0.217  0.4654  1.0205 -0.0441
   40MOL   C20114319   0.359   5.809   0.194  0.3476 -0.3876 -0.3310
   40MOL   C20214320   0.456   5.822   0.076  0.4503 -0.1778 -0.1585
   40MOL   O20314321   0.570   5.875   0.082 -0.5181 -0.7028 -0.4090
   40MOL   O20414322   0.397   5.776   7.837 -0.1919  0.0147  0.1057
   40MOL   C20514323   0.459   5.804   7.715  0.3013  0.2769  0.7009
   40MOL   C20614324   0.481   5.674   7.642 -0.6607  0.1935  0.1346
   40MOL   C20714325   0.361   5.595   7.609  1.0663 -0.4271  0.4134
   40MOL   H20814326   0.247   5.639   0.283 -1.2082  1.1920 -2.1349
   40MOL   H20914327   0.297   5.618   0.121 -0.7714  0.9569  0.4309
   40MOL   H21014328   0.412   5.850   0.281  0.2820 -0.9844 -0.0067
   40MOL   H21114329   0.398   5.869   7.652 -0.7164 -1.0252  0.3130
   40MOL   H21214330   0.547   5.866   7.732 -0.1654  1.1867 -0.1212
   40MOL   H21314331   0.535   5.688   7.548 -0.3342  1.6824  0.5435
   40MOL   H21414332   0.549   5.611   7.700 -0.6137  0.4984  0.4087
   40MOL   H21514333   0.291   5.659   7.556  1.3560  0.5210  1.1460
   40MOL   H21614334   0.322   5.549   7.700  0.2864  0.0047  0.2964
   40MOL   H21714335   0.386   5.518   7.536 -1.2244 -0.3255 -0.5149
   40MOL   C21814336   0.231   5.897   0.167  0.0146 -0.3066 -0.4649
   40MOL   C21914337   0.107   5.876   0.263  0.9903 -0.2567 -0.2989
   40MOL   C22014338   0.155   5.879   0.409  0.0200 -0.5908  0.2864
   40MOL   O22114339   0.145   5.787   0.485  0.2525  0.0504  0.0117
   40MOL   O22214340   0.213   5.994   0.450  0.5052 -0.4766 -0.0572
   40MOL   C22314341   0.247   6.013   0.585  0.8247 -0.2350  0.3500
   40MOL   C22414342   0.399   5.970   0.622  0.2519  0.2189  0.0739
   40MOL   C22514343   0.498   6.035   0.523 -0.0005 -0.0422  0.0606
   40MOL   H22614344   0.200   5.899   0.063 -0.2263  0.4265 -0.3835
   40MOL   H22714345   0.265   6.001   0.169  2.5314 -1.0822 -0.7553
   40MOL   H22814346   0.067   5.776   0.252 -0.6632  0.1145  2.0053
   40MOL   H22914347   0.218   6.113   0.618  3.2718  0.4653  0.5294
   40MOL   H23014348   0.179   5.958   0.650  0.7726  1.5283  1.8409
   40MOL   H23114349   0.425   5.995   0.724  0.4271  1.4177 -0.2490
   40MOL   H23214350   0.387   5.862   0.617  0.4684  0.2054 -0.1607
   40MOL   H23314351   0.598   5.992   0.517 -0.5660 -1.3591 -0.1541
   40MOL   H23414352   0.498   6.142   0.540  2.1571 -0.6499  4.4856
   40MOL   H23514353   0.460   6.028   0.421  0.8867 -3.1076 -0.1192
   40MOL   C23614354   7.877   5.979   0.239  0.2043  0.2408 -0.6495
   40MOL   C23714355   7.741   5.934   0.298 -1.3727 -0.6052 -0.0564
   40MOL   C23814356   7.691   6.033   0.408 -0.1907 -0.5196  0.1678
   40MOL   O23914357   7.688   6.159   0.397 -0.8901 -0.0040 -0.0441
   40MOL   O24014358   7.639   5.969   0.506 -0.3569  0.4957  0.6053
   40MOL   C24114359   7.579   6.034   0.617 -0.6193  0.5239  0.0469
   40MOL   C24214360   7.681   6.105   0.713 -0.2868  0.5059  0.1842
   40MOL   C24314361   7.796   6.007   0.764  0.6259  0.2373 -0.2238
   40MOL   H24414362   7.868   5.984   0.130  1.6343  1.0313 -0.7468
   40MOL   H24514363   0.019   6.080   0.272 -1.3606  0.3276  0.1506
   40MOL   H24614364   7.764   5.841   0.350  1.4555 -1.3827 -2.5618
   40MOL   H24714365   7.494   6.095   0.585 -1.1838  1.4008  3.0444
   40MOL   H24814366   7.531   5.957   0.678 -0.3238 -0.2055 -0.6466
   40MOL   H24914367   7.722   6.196   0.669 -0.8419  0.5630 -0.2191
   40MOL   H25014368   7.619   6.133   0.798  0.8506 -2.0706  1.9500
   40MOL   H25114369   7.874   6.070   0.807  1.7175 -1.8218  0.9039
   40MOL   H25214370   7.828   5.951   0.676  0.7301  2.0526 -1.3645
   40MOL   H25314371   7.756   5.947   0.846  1.2944 -0.8649 -0.6957
   40MOL   C25414372   7.637   5.913   0.191  0.5823  0.8525 -0.0940
   40MOL   C25514373   7.589   5.768   0.164 -0.6092 -0.4973  0.5411
   40MOL   C25614374   7.514   5.698   0.282 -0.2994  0.3115  0.6350
   40MOL   O25714375   7.558   5.592   0.324 -0.1149  0.0194  0.1926
   40MOL   O25814376   7.405   5.770   0.331  0.0308 -0.1564  0.0913
   40MOL   C25914377   7.323   5.727   0.440  0.1209 -0.5365 -0.5700
   40MOL   C26014378   7.239   5.855   0.481 -0.2280  0.1180  0.1088
   40MOL   C26114379   7.115   5.874   0.383 -0.1337  0.1216  0.4265
   40MOL   H26214380   7.673   5.955   0.097  0.9976  0.4529 -0.1148
   40MOL   H26314381   7.549   5.966   0.228  0.1193 -0.3178  0.5109
   40MOL   H26414382   7.686   5.718   0.158 -0.5149 -0.1623 -0.8828
   40MOL   H26514383   7.261   5.640   0.417  2.5594 -1.5771 -3.4092
   40MOL   H26614384   7.381   5.694   0.526  1.3410 -1.6378 -1.7919
   40MOL   H26714385   7.201   5.842   0.582 -0.0032 -1.1385  0.0446
   40MOL   H26814386   7.300   5.946   0.478  0.8761 -0.5507  1.7598
   40MOL   H26914387   7.148   5.896   0.282 -0.7413  0.0224  0.2123
   40MOL   H27014388   7.061   5.961   0.420 -0.3230  0.7257 -1.2512
   40MOL   H27114389   7.047   5.789   0.380  0.6763 -0.5706  1.3038
   40MOL   C27214390   7.513   5.766   0.029  0.2223 -0.0665  0.0823
   40MOL   C27314391   7.507   5.625   7.857  0.4959  0.0904  0.2362
   40MOL   C27414392   7.370   5.562   7.874 -0.0348  0.2501 -1.4539
   40MOL   O27514393   7.355   5.450   0.049 -0.0947  0.4126  0.3380
   40MOL   O27614394   7.271   5.637   7.822  0.1264 -0.1003  0.3253
   40MOL   C27714395   7.144   5.585   7.836 -0.0117 -0.1447 -0.2727
   40MOL   C27814396   7.026   5.664   7.770  0.2459  0.1326  0.1719
   40MOL   C27914397   7.036   5.812   7.827  0.3786 -0.1440  0.9023
   40MOL   H28014398   7.561   5.837   7.842 -0.7639 -0.2722 -0.8620
   40MOL   H28114399   7.414   5.803   0.056 -0.0806 -0.7653 -0.0559
   40MOL   H28214400   7.565   5.568   0.050  2.4264  1.6503 -0.0327
   40MOL   H28314401   7.143   5.481   7.803 -2.3094 -0.3549  0.3299
   40MOL   H28414402   7.119   5.582   0.062  1.3775  0.2697  0.0705
   40MOL   H28514403   7.028   5.662   7.661 -3.2538 -0.4060  0.0547
   40MOL   H28614404   6.931   5.617   7.798 -0.8724  1.2856 -1.6245
   40MOL   H28714405   7.128   5.858   7.791 -0.5990  1.6506  0.6627
   40MOL   H28814406   7.021   5.817   0.055  0.6111 -4.4344  1.2348
   40MOL   H28914407   6.956   5.872   7.784  0.9268 -0.1243 -0.1081
   40MOL   C29014408   7.568   5.597   7.718  0.6099 -0.5583  0.0129
   40MOL   C29114409   7.717   5.638   7.697  0.2922  0.1490  0.1851
   40MOL   C29214410   7.813   5.578   7.797  0.1309 -0.1282  0.2572
   40MOL   O29314411   0.019   5.648   7.845 -0.3645 -0.0491 -0.1100
   40MOL   O29414412   7.801   5.445   7.816 -0.6933 -0.4932  0.4390
   40MOL   C29514413   0.010   5.372   0.022  0.4947 -0.5141  0.2639
   40MOL   C29614414   7.861   5.387   0.168  0.0592  0.5007  0.1474
   40MOL   C29714415   7.716   5.348   0.200 -0.4911 -0.8822 -0.3279
   40MOL   H29814416   7.516   5.645   7.635  0.0057 -1.9177 -0.4120
   40MOL   H29914417   7.559   5.490   7.701  0.6504 -0.6196  0.3728
   40MOL   H30014418   7.719   5.746   7.712 -3.9905  0.2667  0.6123
   40MOL   H30114419   7.867   5.268   7.880 -0.4085  0.1072 -1.7785
   40MOL   H30214420   0.117   5.391   0.010  0.2543  1.1586  0.6228
   40MOL   H30314421   0.040   5.312   0.220 -1.0341 -1.9784 -2.0908
   40MOL   H30414422   0.001   5.488   0.206  2.0228 -0.1892  0.9900
   40MOL   H30514423   7.709   5.239   0.200  1.4607 -1.0986  3.1081
   40MOL   H30614424   7.639   5.382   0.132  0.6255  0.6971 -0.8369
   40MOL   H30714425   7.695   5.383   0.302 -0.6729  0.1780 -0.7239
   40MOL   C30814426   7.759   5.600   7.547 -0.0288  0.0415 -0.4121
   40MOL   C30914427   7.863   5.697   7.488 -0.3403  0.3554 -0.0764
   40MOL   C31014428   0.039   5.632   7.363 -0.0096 -0.2630 -0.7807
   40MOL   O31114429   0.050   5.705   7.260 -0.5885 -0.3131 -0.4149
   40MOL   O31214430   0.068   5.505   7.369 -0.0912  0.8140  0.0216
   40MOL   C31314431   0.123   5.431   7.257  0.5146  0.6273 -0.2750
   40MOL   C31414432   0.056   5.293   7.240 -0.2371  0.0465  0.1346
   40MOL   C31514433   0.111   5.194   7.136 -0.1597  0.1413 -0.6864
   40MOL   H31614434   7.667   5.607   7.488 -0.8138  0.5525  0.8333
   40MOL   H31714435   7.786   5.495   7.555 -1.4106 -0.1302  2.8069
   40MOL   H31814436   0.066   5.706   7.558 -0.6326  1.1993  0.1658
   40MOL   H31914437   0.119   5.485   7.163  0.3840  1.2822  0.1035
   40MOL   H32014438   0.228   5.411   7.281 -0.0737  0.4783  2.3365
   40MOL   H32114439   0.059   5.240   7.335  1.7660 -0.2973 -0.0874
   40MOL   H32214440   7.831   5.310   7.216 -0.0572  0.7794 -0.1408
   40MOL   H32314441   0.218   5.176   7.148  0.0283  0.7007 -1.3993
   40MOL   H32414442   0.061   5.098   7.137 -0.6000  0.3666 -0.7231
   40MOL   H32514443   0.084   5.243   7.042  2.0115  1.7262 -0.5264
   40MOL   C32614444   7.809   5.847   7.461 -0.7828  0.3599 -0.0585
   40MOL   C32714445   0.048   5.959   7.463 -0.5605 -0.1485 -0.2482
   40MOL   C32814446   0.020   6.075   7.372  0.0927  0.0846 -0.2528
   40MOL   O32914447   0.094   6.118   7.290  0.0807  0.4051  0.0928
   40MOL   O33014448   7.785   6.125   7.409 -0.0071  0.5329 -0.4551
   40MOL   C33114449   7.762   6.259   7.380  0.7975 -0.2083  0.1444
   40MOL   C33214450   7.618   6.296   7.426  0.2285 -0.1057  0.3289
   40MOL   C33314451   7.510   6.246   7.329  0.6706 -0.0621  0.7014
   40MOL   H33414452   7.746   5.886   7.541 -1.7169 -0.1178 -0.5533
   40MOL   H33514453   7.755   5.858   7.368 -1.2503 -0.1971  0.1463
   40MOL   H33614454   0.142   5.916   7.426 -0.4404 -1.1322  1.1503
   40MOL   H33714455   7.836   6.320   7.433  0.0753  1.6230 -0.9235
   40MOL   H33814456   7.769   6.283   7.274 -0.4188  1.8868  0.5109
   40MOL   H33914457   7.601   6.254   7.525  0.3788  0.1653  0.4702
   40MOL   H34014458   7.606   6.404   7.435  0.9304 -0.1123  1.4417
   40MOL   H34114459   7.412   6.237   7.375 -0.5958  0.8912 -1.6701
   40MOL   H34214460   7.510   6.305   7.237 -0.2037 -0.1262  0.6546
   40MOL   H34314461   7.536   6.147   7.293 -1.3689  0.5082 -2.6428
   40MOL   C34414462   0.078   5.999   7.617  0.5994 -0.3118  0.5452
   40MOL   C34514463   0.160   6.132   7.623 -0.1536 -0.4331  0.0134
   40MOL   C34614464   0.231   6.150   7.757  0.8711 -0.5251  0.4701
   40MOL   O34714465   0.160   6.153   7.861  0.1579  0.1986 -0.3841
   40MOL   O34814466   0.357   6.182   7.751 -0.5349 -0.1603  0.4261
   40MOL   C34914467   0.442   6.188   7.865  0.5622 -0.8084 -0.4508
   40MOL   C35014468   0.595   6.172   7.848  0.0073 -0.6980 -0.9222
   40MOL   C35114469   0.680   6.176   0.103  0.8120  0.4905  0.2947
   40MOL   H35214470   0.136   5.919   7.663  1.6744 -0.0932 -0.4218
   40MOL   H35314471   7.873   6.006   7.684 -1.0344  0.1425 -1.5363
   40MOL   H35414472   0.095   6.219   7.608 -0.0950  0.0147  2.2773
   40MOL   H35514473   0.416   6.270   0.051 -0.1224  0.6472 -2.4537
   40MOL   H35614474   0.411   6.102   0.043  0.7198  0.0124  0.8757
   40MOL   H35714475   0.608   6.072   7.806  1.5221 -0.5783 -0.7881
   40MOL   H35814476   0.637   6.248   7.782 -1.3475  0.9714  0.0874
   40MOL   H35914477   0.787   6.192   0.098  0.7906  0.7938  0.7049
   40MOL   H36014478   0.638   6.260   0.159 -0.3380  0.5334 -0.6106
   40MOL   H36114479   0.672   6.082   0.158 -4.1313  0.9426  0.5550
   40MOL   H36214480   0.233   6.134   7.542  0.8459 -2.2934  0.8474
   41MOL     C114481   2.778   3.045   5.239  0.6511  0.5924 -0.3933
   41MOL     C214482   2.734   2.914   5.192  1.2365  0.2030 -0.1578
   41MOL     C314483   2.663   2.849   5.306 -0.1267  0.4883  0.1992
   41MOL     O414484   2.540   2.823   5.301  0.0359 -0.1900  0.3320
   41MOL     O514485   2.732   2.838   5.413 -0.0069  0.2517  0.0593
   41MOL     C614486   2.676   2.787   5.539  0.1129  0.2046 -0.7408
   41MOL     C714487   2.724   2.647   5.584  0.1787 -0.2239 -0.1089
   41MOL     C814488   2.693   2.538   5.480  0.2029 -0.4842 -0.2706
   41MOL     H914489   2.866   3.052   5.304  1.8698  0.6223 -1.9991
   41MOL    H1014490   2.788   3.110   5.152 -1.1093  0.9045 -0.3729
   41MOL    H1114491   2.817   2.843   5.185  0.3324 -0.9103  0.3071
   41MOL    H1214492   2.693   2.877   5.597 -0.5367  0.0053 -0.2352
   41MOL    H1314493   2.568   2.778   5.532  0.0525  0.9549 -0.7570
   41MOL    H1414494   2.833   2.639   5.593  0.0324 -1.2955  0.7417
   41MOL    H1514495   2.676   2.617   5.677  0.8095 -0.3283  0.1900
   41MOL    H1614496   2.599   2.557   5.428  1.7478 -1.6207 -3.6452
   41MOL    H1714497   2.772   2.522   5.407  1.1850 -1.1521  0.9197
   41MOL    H1814498   2.679   2.434   5.512 -0.7917  0.3136  1.9946
   41MOL    H1914499   2.699   3.092   5.297 -0.3581 -0.6863 -0.7285
   41MOL    C2014500   2.656   2.926   5.062  0.3190 -0.2298  1.0066
   41MOL    C2114501   2.614   2.793   4.993  0.0880 -0.0489  0.4822
   41MOL    C2214502   2.501   2.832   4.898  0.4459  0.0141  0.2234
   41MOL    O2314503   2.389   2.782   4.894 -0.1134 -0.5734 -0.3586
   41MOL    O2414504   2.539   2.923   4.806 -0.4411  0.4394  0.1090
   41MOL    C2514505   2.456   2.962   4.704  0.5787 -1.5293 -0.4700
   41MOL    C2614506   2.377   3.088   4.736 -0.4854 -1.1033 -0.1767
   41MOL    C2714507   2.298   3.131   4.616  0.3312  0.4376  0.1718
   41MOL    H2814508   2.712   2.993   4.996 -3.4476  1.1850 -0.9333
   41MOL    H2914509   2.568   2.988   5.076  0.2615 -0.4949  1.8055
   41MOL    H3014510   2.566   2.731   5.069 -3.5712 -1.2014 -2.6281
   41MOL    H3114511   2.522   2.983   4.620  0.3259  1.5353  0.0139
   41MOL    H3214512   2.386   2.885   4.672 -1.4240 -0.5757  1.4410
   41MOL    H3314513   2.310   3.078   4.822  1.4478 -1.0095  1.3769
   41MOL    H3414514   2.433   3.177   4.764  0.5135 -2.2372  1.5319
   41MOL    H3514515   2.231   3.049   4.591  2.2263 -0.5389 -1.7841
   41MOL    H3614516   2.372   3.148   4.538 -0.9233  1.9761 -0.7070
   41MOL    H3714517   2.234   3.219   4.631 -1.7106 -0.7503 -1.3123
   41MOL    C3814518   2.732   2.713   4.924  0.3787  0.0794  0.2194
   41MOL    C3914519   2.826   2.626   5.007 -0.4128  0.3657  0.0119
   41MOL    C4014520   2.765   2.490   5.046  0.1656 -1.0425 -0.1946
   41MOL    O4114521   2.821   2.387   5.010 -1.0077 -0.2581 -0.4642
   41MOL    O4214522   2.648   2.496   5.109 -0.9781  0.3152  0.1561
   41MOL    C4314523   2.591   2.368   5.150  1.1186 -0.1002 -0.6458
   41MOL    C4414524   2.440   2.369   5.141 -0.4563 -0.2922 -0.2323
   41MOL    C4514525   2.374   2.483   5.214 -0.0418 -0.0568 -0.5920
   41MOL    H4614526   2.789   2.796   4.882 -0.2769  1.1944  1.4864
   41MOL    H4714527   2.690   2.652   4.844 -1.1299  0.3889  0.7664
   41MOL    H4814528   2.836   2.669   5.106 -0.7905  2.4876 -0.8345
   41MOL    H4914529   2.628   2.283   5.092  0.2369 -2.0827  1.6117
   41MOL    H5014530   2.630   2.360   5.251 -1.7844  0.8026  0.6076
   41MOL    H5114531   2.413   2.396   5.039 -2.2751  0.5030  0.4369
   41MOL    H5214532   2.405   2.268   5.162 -0.4307 -0.1250  0.6547
   41MOL    H5314533   2.429   2.576   5.197  0.6306 -0.5421 -1.1268
   41MOL    H5414534   2.375   2.468   5.322 -0.2861  0.9709 -0.4391
   41MOL    H5514535   2.273   2.499   5.177 -0.7040  0.4164  1.3431
   41MOL    C5614536   2.979   2.623   4.953 -0.5811  0.2209 -0.1160
   41MOL    C5714537   3.077   2.722   5.010 -0.3588  0.1736 -0.4041
   41MOL    C5814538   3.073   2.741   5.164  0.6727  1.0799  0.7063
   41MOL    O5914539   3.064   2.851   5.219  0.6600  0.5248  0.5797
   41MOL    O6014540   3.074   2.613   5.221  0.0451  0.0885 -0.2824
   41MOL    C6114541   3.102   2.602   5.358  0.3264 -0.6355 -0.6273
   41MOL    C6214542   3.251   2.579   5.376 -0.0095 -0.0361  0.5835
   41MOL    C6314543   3.313   2.468   5.294 -0.1157  0.2395 -0.4036
   41MOL    H6414544   2.986   2.635   4.845 -0.7591 -0.0772 -0.1605
   41MOL    H6514545   3.019   2.525   4.980 -0.7546 -0.2966 -1.6980
   41MOL    H6614546   3.045   2.814   4.962 -0.2673  0.5881  0.3170
   41MOL    H6714547   3.075   2.697   5.406 -0.8879 -1.0056 -0.5635
   41MOL    H6814548   3.041   2.529   5.412  2.5572 -0.2185  2.6054
   41MOL    H6914549   3.295   2.670   5.334  1.1504 -1.2210 -0.8033
   41MOL    H7014550   3.284   2.571   5.480 -1.2739 -0.8383  0.9283
   41MOL    H7114551   3.415   2.463   5.333 -0.0078  1.0128 -0.5834
   41MOL    H7214552   3.322   2.483   5.186  0.5941  1.5783 -0.1629
   41MOL    H7314553   3.267   2.371   5.314  2.9265 -0.9860  1.0991
   41MOL    C7414554   3.221   2.697   4.964 -0.2498 -0.4363  0.0550
   41MOL    C7514555   3.328   2.812   5.000 -0.3731 -0.9784 -0.8501
   41MOL    C7614556   3.469   2.764   4.964 -0.4601  0.4768 -0.0071
   41MOL    O7714557   3.539   2.811   4.867  0.4841 -1.2095  0.2630
   41MOL    O7814558   3.508   2.681   5.061 -0.5394  0.1933  0.2981
   41MOL    C7914559   3.640   2.634   5.054 -0.0681 -0.2976 -0.0156
   41MOL    C8014560   3.727   2.695   5.163  0.3603 -0.7697 -0.1330
   41MOL    C8114561   3.700   2.620   5.293 -0.7872  0.7676 -0.5373
   41MOL    H8214562   3.220   2.700   4.855 -0.0659  1.1797  0.0892
   41MOL    H8314563   3.244   2.597   5.001 -2.1742 -0.2649  1.7957
   41MOL    H8414564   3.317   2.814   5.108 -0.7010  1.9877 -0.8889
   41MOL    H8514565   3.633   2.525   5.056 -0.6227 -0.2615  2.6593
   41MOL    H8614566   3.678   2.648   4.953 -0.5469  1.6123  0.0601
   41MOL    H8714567   3.832   2.680   5.141  1.1739  1.5887  1.9306
   41MOL    H8814568   3.704   2.801   5.171  2.0869 -0.3166 -1.0410
   41MOL    H8914569   3.766   2.534   5.299 -1.2753  0.3585 -1.0408
   41MOL    H9014570   3.592   2.604   5.298 -0.5336 -0.6356  0.8006
   41MOL    H9114571   3.711   2.692   5.374 -1.7816  1.1010 -0.6860
   41MOL    C9214572   3.298   2.956   4.946 -0.3235 -0.3692  0.2042
   41MOL    C9314573   3.387   3.063   5.013  0.1035 -0.0650 -0.1448
   41MOL    C9414574   3.443   3.163   4.904  0.2506 -0.6661 -0.5740
   41MOL    O9514575   3.549   3.219   4.940 -0.5097  0.8818  0.8891
   41MOL    O9614576   3.365   3.196   4.798 -0.1396 -0.1232 -0.1306
   41MOL    C9714577   3.379   3.322   4.740  0.3730 -0.7806 -0.6315
   41MOL    C9814578   3.337   3.318   4.589 -0.2268  0.6034  0.0702
   41MOL    C9914579   3.320   3.458   4.531 -0.2459 -0.1316  0.2408
   41MOL   H10014580   3.192   2.982   4.951 -0.3337 -0.0192 -1.3312
   41MOL   H10114581   3.312   2.957   4.838  1.0256  0.9302  0.3761
   41MOL   H10214582   3.470   3.017   5.065 -0.1773 -0.4016  0.0034
   41MOL   H10314583   3.321   3.387   4.804  2.6237  0.0471  0.6275
   41MOL   H10414584   3.482   3.358   4.742 -0.0858  0.4721  3.3371
   41MOL   H10514585   3.414   3.262   4.536 -0.6115 -0.3845  0.5249
   41MOL   H10614586   3.241   3.267   4.577 -0.2064  0.6665 -0.3820
   41MOL   H10714587   3.252   3.524   4.585  0.7419  1.4786 -0.4304
   41MOL   H10814588   3.263   3.441   4.440 -0.5977 -0.5284  0.5304
   41MOL   H10914589   3.416   3.507   4.514  0.0384 -0.2423  1.4581
   41MOL   C11014590   3.315   3.138   5.128  0.7581  0.1433 -0.4577
   41MOL   C11114591   3.302   3.063   5.254 -0.4965  1.1370 -0.2773
   41MOL   C11214592   3.432   2.993   5.296  0.5181  0.6590  0.3326
   41MOL   O11314593   3.442   2.873   5.298  0.3485  0.3630  0.4048
   41MOL   O11414594   3.523   3.083   5.331 -0.7975 -0.3521 -0.2066
   41MOL   C11514595   3.654   3.032   5.361  0.1370 -0.0625  0.3668
   41MOL   C11614596   3.723   3.115   5.480 -0.7691 -0.7600  0.0944
   41MOL   C11714597   3.863   3.062   5.515  0.4620 -0.3545  0.3405
   41MOL   H11814598   3.216   3.170   5.094 -0.8835 -3.5295  0.6395
   41MOL   H11914599   3.379   3.223   5.152 -2.3292  1.7551  2.6182
   41MOL   H12014600   3.237   2.981   5.224  0.4817  0.0195  0.6250
   41MOL   H12114601   3.657   2.928   5.394  0.5609 -0.3802 -0.6724
   41MOL   H12214602   3.714   3.021   5.271 -0.1350 -0.3980  0.2267
   41MOL   H12314603   3.744   3.216   5.446 -0.4859 -0.9403 -0.2737
   41MOL   H12414604   3.655   3.117   5.565 -2.4974  0.2414 -1.2695
   41MOL   H12514605   3.914   3.029   5.425 -1.5825 -2.3087 -0.1397
   41MOL   H12614606   3.862   2.984   5.592 -3.6690 -0.0098  0.7767
   41MOL   H12714607   3.933   3.136   5.554  0.3642  0.3284 -0.7842
   41MOL   C12814608   3.229   3.142   5.373 -0.1417  0.2370  0.4759
   41MOL   C12914609   3.226   3.072   5.513  0.3245  0.1760 -0.4976
   41MOL   C13014610   3.310   3.158   5.606  0.3470  0.7251  0.6736
   41MOL   O13114611   3.416   3.126   5.659  0.2334  0.1723  0.0782
   41MOL   O13214612   3.261   3.278   5.626  0.3147 -0.0699 -0.5705
   41MOL   C13314613   3.329   3.374   5.714 -0.5018 -0.4927 -0.6266
   41MOL   C13414614   3.465   3.421   5.672  0.1747 -0.1336  0.7833
   41MOL   C13514615   3.465   3.523   5.558  0.4580  0.0544  0.0647
   41MOL   H13614616   3.130   3.157   5.329 -0.0640 -2.4712 -0.7202
   41MOL   H13714617   3.269   3.244   5.378 -1.8428  0.8940  1.1234
   41MOL   H13814618   3.280   2.978   5.503 -0.4459 -0.2429 -0.7942
   41MOL   H13914619   3.255   3.447   5.745 -0.4953 -0.9698  0.5284
   41MOL   H14014620   3.335   3.319   5.807 -0.0051 -0.6658 -0.7580
   41MOL   H14114621   3.515   3.451   5.764  3.1902  1.2363 -1.2474
   41MOL   H14214622   3.530   3.340   5.640  0.6145  1.5801 -2.8154
   41MOL   H14314623   3.388   3.508   5.482 -0.8774  1.8699  1.0221
   41MOL   H14414624   3.557   3.548   5.504 -1.2240  0.7083 -2.6046
   41MOL   H14514625   3.427   3.612   5.607 -2.1524 -2.3676  2.6159
   41MOL   C14614626   3.079   3.061   5.568 -0.0823  0.0948  0.0723
   41MOL   C14714627   3.057   2.962   5.682 -0.2651 -0.5615 -0.4572
   41MOL   C14814628   3.125   2.826   5.690  0.7433 -0.5801  0.6146
   41MOL   O14914629   3.067   2.718   5.666 -0.2769  0.0307  0.3233
   41MOL   O15014630   3.260   2.841   5.701 -0.2456  0.1222  0.5407
   41MOL   C15114631   3.335   2.731   5.740  0.5554 -0.0664 -0.0011
   41MOL   C15214632   3.483   2.766   5.736 -0.0802 -0.2241 -0.0112
   41MOL   C15314633   3.532   2.811   5.597  0.3109 -0.4475 -0.1642
   41MOL   H15414634   3.019   3.039   5.480 -0.2878 -0.9875  0.4777
   41MOL   H15514635   3.050   3.159   5.606  0.2705  0.1711  0.1572
   41MOL   H15614636   2.951   2.939   5.666 -1.2698  2.4639  1.3132
   41MOL   H15714637   3.313   2.694   5.840 -0.2761 -1.8970 -0.8429
   41MOL   H15814638   3.322   2.659   5.659 -2.5998 -1.2560  1.4741
   41MOL   H15914639   3.516   2.834   5.815 -0.0647  1.3298 -1.3447
   41MOL   H16014640   3.532   2.673   5.765  0.9637  0.5549  0.7649
   41MOL   H16114641   3.464   2.890   5.567  0.3739 -0.2111  0.3040
   41MOL   H16214642   3.540   2.738   5.517  1.2136  0.2391 -0.7254
   41MOL   H16314643   3.633   2.853   5.603 -0.3327  1.1120  0.0561
   41MOL   C16414644   3.071   3.034   5.814  0.5143 -0.7011 -0.1015
   41MOL   C16514645   3.007   2.962   5.938  0.0532 -0.1273 -0.3104
   41MOL   C16614646   3.111   2.909   6.043  0.4200  0.0321 -0.1809
   41MOL   O16714647   3.124   2.788   6.048 -0.7044 -0.2124 -0.3533
   41MOL   O16814648   3.173   3.002   6.118 -0.1501 -0.0885  0.1873
   41MOL   C16914649   3.270   2.973   6.213 -0.5060 -0.8277  0.5783
   41MOL   C17014650   3.202   2.915   6.341 -1.0703 -0.2717 -0.1093
   41MOL   C17114651   3.308   2.873   6.450  0.3754 -0.4378  0.0350
   41MOL   H17214652   3.032   3.136   5.805  0.3892 -0.8593 -1.3901
   41MOL   H17314653   3.176   3.054   5.835  0.6329 -0.0733 -1.2373
   41MOL   H17414654   2.966   2.865   5.907  1.7322 -1.4499  1.4420
   41MOL   H17514655   3.335   2.893   6.178 -0.5094 -0.3570 -0.5352
   41MOL   H17614656   3.336   3.059   6.228 -2.2088  0.4659  0.7659
   41MOL   H17714657   3.136   2.996   6.375  1.8963  1.3482  2.0104
   41MOL   H17814658   3.140   2.827   6.325  0.5101 -1.1034 -1.8249
   41MOL   H17914659   3.387   2.809   6.412 -0.3722 -0.7234 -1.0617
   41MOL   H18014660   3.259   2.815   6.528 -3.1637  1.6719 -0.5076
   41MOL   H18114661   3.359   2.959   6.494 -1.8576  1.3035 -0.6521
   41MOL   C18214662   2.904   3.052   6.013 -1.0036  0.6401  0.5773
   41MOL   C18314663   2.795   2.961   6.068  0.0060  0.6021  0.4682
   41MOL   C18414664   2.724   3.033   6.183 -0.0650  1.0636 -0.2155
   41MOL   O18514665   2.602   3.022   6.191  0.4735 -0.0533  0.1098
   41MOL   O18614666   2.801   3.078   6.283  0.1360 -0.4628  0.1230
   41MOL   C18714667   2.756   3.133   6.407  0.1282 -0.7038 -0.5979
   41MOL   C18814668   2.788   3.049   6.530 -0.0584  0.4799 -0.0999
   41MOL   C18914669   2.717   2.915   6.534 -0.0972 -0.9025  1.3541
   41MOL   H19014670   2.864   3.125   5.943 -3.1013  2.0419  3.1437
   41MOL   H19114671   2.954   3.107   6.093 -0.0464 -0.8668  1.0374
   41MOL   H19214672   2.838   2.865   6.094  0.2107  0.9069  1.2818
   41MOL   H19314673   2.815   3.223   6.422 -0.5202 -0.5179  0.8830
   41MOL   H19414674   2.656   3.174   6.414 -0.2859 -1.8208  0.2609
   41MOL   H19514675   2.895   3.032   6.521 -0.0583 -1.1245  2.3954
   41MOL   H19614676   2.778   3.107   6.621  0.8553  0.1759  0.1989
   41MOL   H19714677   2.611   2.925   6.514 -0.0508 -2.4723  0.2395
   41MOL   H19814678   2.725   2.876   6.635  1.1510 -0.2365  1.5300
   41MOL   H19914679   2.763   2.850   6.459  1.5406  1.9550 -0.2274
   41MOL   C20014680   2.700   2.928   5.953  0.0903  0.4981 -0.5051
   41MOL   C20114681   2.628   2.792   5.982  0.9093 -0.1731  1.2562
   41MOL   C20214682   2.504   2.783   5.886  0.1029 -0.0483  0.4998
   41MOL   O20314683   2.464   2.883   5.828 -0.1747 -0.3634  0.0171
   41MOL   O20414684   2.445   2.664   5.874  0.5601  0.3391  0.0633
   41MOL   C20514685   2.343   2.661   5.778 -0.5302  1.4345 -0.4796
   41MOL   C20614686   2.300   2.519   5.745  0.6435 -0.0687  0.0351
   41MOL   C20714687   2.178   2.520   5.658 -0.4212  0.6108  0.1759
   41MOL   H20814688   2.736   2.929   5.850  0.0662  1.9861 -0.5198
   41MOL   H20914689   2.631   3.012   5.951 -1.1044 -0.4542  0.2653
   41MOL   H21014690   2.588   2.799   6.084  1.2625  0.5112  1.3532
   41MOL   H21114691   2.258   2.719   5.814 -2.3820 -1.1765 -0.5037
   41MOL   H21214692   2.373   2.709   5.685  0.6055  0.9101 -0.3955
   41MOL   H21314693   2.388   2.471   5.702  0.8796 -0.6255  1.1051
   41MOL   H21414694   2.271   2.459   5.831  0.6189  0.2167  0.2271
   41MOL   H21514695   2.155   2.415   5.636  0.6093  0.2467  0.8102
   41MOL   H21614696   2.192   2.576   5.566 -2.9491 -0.2129 -0.7788
   41MOL   H21714697   2.090   2.558   5.710  1.3412  2.2581  2.0508
   41MOL   C21814698   2.719   2.665   5.981 -0.1745 -0.5381 -0.0534
   41MOL   C21914699   2.730   2.601   6.122  0.3047 -0.4077 -0.6607
   41MOL   C22014700   2.601   2.529   6.166  0.3977 -0.8559  0.8353
   41MOL   O22114701   2.540   2.554   6.270  0.5349 -0.6042  0.6769
   41MOL   O22214702   2.569   2.436   6.078  0.2640 -0.0070  0.1654
   41MOL   C22314703   2.445   2.373   6.092 -0.4237  0.0309 -0.3089
   41MOL   C22414704   2.439   2.276   5.969  0.7036 -0.1750  0.4871
   41MOL   C22514705   2.517   2.138   5.964 -0.3033 -1.1892  0.1713
   41MOL   H22614706   2.819   2.678   5.941 -0.0928 -1.5923 -0.1808
   41MOL   H22714707   2.680   2.594   5.909 -3.3824 -0.1437  1.1784
   41MOL   H22814708   2.752   2.674   6.199 -1.3121 -1.1073  0.4877
   41MOL   H22914709   2.436   2.329   6.192 -1.7832  3.3790  1.0875
   41MOL   H23014710   2.361   2.440   6.077 -2.2296 -2.3046 -0.9785
   41MOL   H23114711   2.335   2.244   5.961 -0.0736  2.0811  1.1826
   41MOL   H23214712   2.466   2.334   5.880 -0.7357 -1.2770 -0.6885
   41MOL   H23314713   2.487   2.065   6.040 -0.7642 -1.3398 -0.1530
   41MOL   H23414714   2.623   2.162   5.968 -0.5269 -0.2155  0.5564
   41MOL   H23514715   2.490   2.094   5.868 -1.3956  2.0155 -1.0531
   41MOL   C23614716   2.846   2.502   6.118  0.4540  0.6707 -0.3480
   41MOL   C23714717   2.886   2.437   6.252 -0.2742  0.5538  0.6730
   41MOL   C23814718   2.989   2.327   6.217 -0.0147 -0.3368 -0.3942
   41MOL   O23914719   2.969   2.210   6.238  1.1173 -0.2819  0.3612
   41MOL   O24014720   3.105   2.373   6.166 -0.3462  0.0783  0.1537
   41MOL   C24114721   3.221   2.293   6.146 -0.1150  0.6303  0.9566
   41MOL   C24214722   3.325   2.307   6.253 -0.6184 -0.4263  0.1531
   41MOL   C24314723   3.366   2.456   6.278 -0.8230 -0.2518  0.2765
   41MOL   H24414724   2.938   2.548   6.081  2.0772  0.3770  3.1535
   41MOL   H24514725   2.830   2.422   6.044  0.3891 -1.6376  2.0927
   41MOL   H24614726   2.804   2.371   6.280  1.0638 -0.9789  1.0951
   41MOL   H24714727   3.193   2.187   6.142  1.4965  0.1822  1.0167
   41MOL   H24814728   3.257   2.312   6.045  0.3076 -1.6707  0.6301
   41MOL   H24914729   3.285   2.273   6.348 -0.1760  0.2527  0.5866
   41MOL   H25014730   3.410   2.244   6.226  0.2340  1.4540 -1.6709
   41MOL   H25114731   3.445   2.475   6.350  0.0879  0.8191 -0.9755
   41MOL   H25214732   3.286   2.524   6.308 -0.4512  0.2412  0.1568
   41MOL   H25314733   3.405   2.497   6.184 -1.7465  0.7765  0.3295
   41MOL   C25414734   2.926   2.532   6.362  0.2118 -0.1008 -0.7628
   41MOL   C25514735   3.004   2.467   6.479 -0.6558 -0.2832  0.4448
   41MOL   C25614736   3.060   2.568   6.571  0.1348  0.1506 -0.2337
   41MOL   O25714737   2.994   2.673   6.599  0.1679  0.3811  0.6161
   41MOL   O25814738   3.177   2.538   6.618 -0.5050  0.0466  0.1181
   41MOL   C25914739   3.232   2.610   6.732  0.4818  0.2023  0.2082
   41MOL   C26014740   3.378   2.577   6.763  0.0725  0.4217  0.3479
   41MOL   C26114741   3.418   2.436   6.725 -0.4016  0.4101 -0.6783
   41MOL   H26214742   2.844   2.582   6.414 -1.0706 -2.4548 -0.4592
   41MOL   H26314743   2.994   2.612   6.335  0.6419  0.4213  1.7568
   41MOL   H26414744   3.088   2.418   6.431 -0.3961  1.2544 -0.7233
   41MOL   H26514745   3.202   2.715   6.726 -1.5736 -0.3269  0.8473
   41MOL   H26614746   3.174   2.580   6.819  0.8649 -2.0895 -0.2866
   41MOL   H26714747   3.451   2.644   6.719 -1.8898  1.0712 -2.0642
   41MOL   H26814748   3.408   2.582   6.867  0.8378  0.4534  0.1255
   41MOL   H26914749   3.349   2.363   6.769  1.5591  0.6476  3.0350
   41MOL   H27014750   3.519   2.409   6.755 -0.7092 -0.8819 -0.7914
   41MOL   H27114751   3.408   2.428   6.617 -0.6097 -1.5005 -0.5350
   41MOL   C27214752   2.929   2.363   6.560 -0.2398 -0.2967 -0.7314
   41MOL   C27314753   2.999   2.266   6.661  0.5259  0.9416  0.7538
   41MOL   C27414754   2.966   2.293   6.800 -0.0564 -0.6664  0.4648
   41MOL   O27514755   2.882   2.221   6.854 -0.2325  0.6504  0.1103
   41MOL   O27614756   3.029   2.395   6.854  0.1907 -0.4465 -0.2092
   41MOL   C27714757   2.981   2.454   6.972 -0.7741  0.3363  0.0272
   41MOL   C27814758   2.898   2.585   6.935  0.9762  0.0723  0.7892
   41MOL   C27914759   2.757   2.572   6.875 -0.0133 -0.4036  0.8631
   41MOL   H28014760   2.889   2.295   6.485  0.5149 -1.6239  0.0536
   41MOL   H28114761   2.842   2.407   6.608 -0.7610 -0.5881 -1.3956
   41MOL   H28214762   3.104   2.294   6.671  1.1132  0.4702 -3.2347
   41MOL   H28314763   2.919   2.382   7.024  0.3394 -0.6954 -0.0333
   41MOL   H28414764   3.061   2.484   7.039  0.9060 -0.7945 -1.4062
   41MOL   H28514765   2.891   2.621   7.038 -0.9976  0.6952  0.4473
   41MOL   H28614766   2.959   2.657   6.881 -0.7701  1.5594  0.7636
   41MOL   H28714767   2.756   2.516   6.781 -1.4829 -0.2737  0.7923
   41MOL   H28814768   2.716   2.667   6.840  1.7439  0.3301  0.7504
   41MOL   H28914769   2.678   2.534   6.939  1.3157  0.0361  2.7979
   41MOL   C29014770   2.993   2.115   6.635 -0.6262 -0.0860  0.3942
   41MOL   C29114771   3.098   2.050   6.536 -0.0329 -0.5113  0.5021
   41MOL   C29214772   3.244   2.055   6.584  0.1975 -0.0716  0.3195
   41MOL   O29314773   3.330   2.110   6.518 -0.4097 -0.7469  0.3072
   41MOL   O29414774   3.250   1.970   6.693  0.2478 -0.6999  0.4951
   41MOL   C29514775   3.378   1.925   6.737 -0.0605 -0.1827  0.4379
   41MOL   C29614776   3.449   2.024   6.826 -0.5391 -0.0574 -0.2496
   41MOL   C29714777   3.416   2.014   6.971  0.2924  0.1537 -0.8561
   41MOL   H29814778   2.893   2.101   6.594 -0.4715  3.9757 -1.6528
   41MOL   H29914779   2.990   2.052   6.724 -2.3782 -1.0926 -0.3564
   41MOL   H30014780   3.095   2.097   6.437  1.3632  0.6353  0.9856
   41MOL   H30114781   3.364   1.829   6.786 -0.3509 -0.0126  0.6867
   41MOL   H30214782   3.433   1.908   6.644  1.0212 -1.2029  1.2644
   41MOL   H30314783   3.553   1.990   6.827  0.2589  2.3280  1.3876
   41MOL   H30414784   3.458   2.123   6.783  0.8361 -0.2140 -0.3504
   41MOL   H30514785   3.314   2.039   7.001  1.5254  1.6465  2.3572
   41MOL   H30614786   3.484   2.076   7.029  0.2669 -0.9749  0.4137
   41MOL   H30714787   3.444   1.920   7.018  1.0497  0.6851 -0.2192
   41MOL   C30814788   3.058   1.906   6.504 -0.7480 -0.8852 -0.1070
   41MOL   C30914789   2.941   1.881   6.411  0.0874  0.2066  0.1917
   41MOL   C31014790   2.986   1.914   6.266 -0.4230 -0.1108 -0.3494
   41MOL   O31114791   3.104   1.940   6.236  0.0063  0.8475  0.6125
   41MOL   O31214792   2.885   1.907   6.181 -0.5782 -0.2519  0.6152
   41MOL   C31314793   2.913   1.953   6.052 -1.2040  0.0877 -0.8929
   41MOL   C31414794   2.804   1.912   5.953 -0.0858 -0.2747 -0.0856
   41MOL   C31514795   2.808   1.986   5.822  0.5970  0.2423  0.5940
   41MOL   H31614796   3.043   1.847   6.595 -1.7638  0.3255  0.5306
   41MOL   H31714797   3.142   1.854   6.459  1.4752  2.3567  0.1193
   41MOL   H31814798   2.858   1.948   6.434 -0.0837 -0.7114  2.3839
   41MOL   H31914799   2.921   2.062   6.051 -0.8952  0.1346  2.1228
   41MOL   H32014800   3.010   1.926   6.011  0.0058  1.3134  1.1229
   41MOL   H32114801   2.826   1.808   5.932 -1.0406 -0.4935  0.0083
   41MOL   H32214802   2.708   1.927   6.001 -0.8101 -3.2664 -0.5054
   41MOL   H32314803   2.767   2.086   5.836  0.4919  0.0085  2.1014
   41MOL   H32414804   2.909   1.982   5.782  0.6451 -1.2481  0.8294
   41MOL   H32514805   2.746   1.936   5.747  1.8639 -2.1490  1.0766
   41MOL   C32614806   2.875   1.742   6.431 -0.1427  0.5777 -0.1287
   41MOL   C32714807   2.816   1.704   6.573  0.0867 -0.8436  0.9802
   41MOL   C32814808   2.724   1.812   6.633 -0.1258  0.4900 -0.2396
   41MOL   O32914809   2.758   1.855   6.741  0.2934 -1.0536 -0.3706
   41MOL   O33014810   2.626   1.850   6.560  0.3445 -0.1368  0.4782
   41MOL   C33114811   2.539   1.956   6.606  0.0663 -0.4098  0.1658
   41MOL   C33214812   2.486   2.020   6.478 -0.3498 -1.2272  0.3133
   41MOL   C33314813   2.578   2.113   6.396 -0.0236  0.1332  0.0165
   41MOL   H33414814   2.947   1.662   6.411  0.3291  0.9868 -0.0757
   41MOL   H33514815   2.791   1.739   6.361  0.1989 -0.5188 -0.5024
   41MOL   H33614816   2.902   1.690   6.638  0.5652  1.7434  0.9601
   41MOL   H33714817   2.449   1.919   6.657 -0.5796  0.3708 -0.3960
   41MOL   H33814818   2.584   2.033   6.668  0.1797 -0.0581 -0.3528
   41MOL   H33914819   2.445   1.947   6.408  0.1712 -0.3041 -0.9817
   41MOL   H34014820   2.405   2.083   6.515  0.0505 -0.5519  0.0372
   41MOL   H34114821   2.520   2.156   6.314  2.3469 -1.6485 -2.6809
   41MOL   H34214822   2.619   2.200   6.447 -1.1247  0.7018 -0.0629
   41MOL   H34314823   2.657   2.062   6.340  0.4233  2.7977 -1.8464
   41MOL   C34414824   2.740   1.563   6.572  0.8576  0.4088  0.2362
   41MOL   C34514825   2.778   1.476   6.687 -0.1555  0.6913 -0.3512
   41MOL   C34614826   2.898   1.385   6.658  0.1173 -0.5169  0.4967
   41MOL   O34714827   2.884   1.279   6.601  0.0549  0.2745  0.0860
   41MOL   O34814828   3.014   1.443   6.689 -0.1499 -0.0314 -0.4518
   41MOL   C34914829   3.137   1.379   6.659  0.1038 -0.3359  0.1341
   41MOL   C35014830   3.195   1.456   6.544  0.3218 -0.3491  0.3937
   41MOL   C35114831   3.230   1.603   6.579 -0.0979  0.1750 -0.4075
   41MOL   H35214832   2.762   1.509   6.480  2.1605 -0.8750  1.2687
   41MOL   H35314833   2.634   1.580   6.586  0.7326 -0.1814  0.0023
   41MOL   H35414834   2.704   1.407   6.727 -2.9503  2.4996 -2.2512
   41MOL   H35514835   3.192   1.387   6.753 -0.9260 -2.0719  0.9105
   41MOL   H35614836   3.119   1.272   6.651 -1.6100 -0.1029  0.6265
   41MOL   H35714837   3.284   1.398   6.521  1.5097  1.2750  0.8188
   41MOL   H35814838   3.135   1.445   6.454  1.2767 -3.5488  0.0759
   41MOL   H35914839   3.309   1.602   6.655  0.1293  2.3078 -0.5840
   41MOL   H36014840   3.275   1.652   6.493 -3.1254  1.4527 -1.3366
   41MOL   H36114841   3.147   1.662   6.620  0.5482  1.0963 -0.3980
   41MOL   H36214842   2.805   1.545   6.767 -1.1918 -0.8306  1.3741
   42MOL     C114843   1.374   7.756   5.660 -0.1944  0.1313  0.0486
   42MOL     C214844   1.458   7.669   5.562  0.7934 -0.1423 -0.3018
   42MOL     C314845   1.535   7.565   5.641 -0.5821  0.4125 -0.1745
   42MOL     O414846   1.654   7.554   5.616 -0.0449 -0.6463 -0.2423
   42MOL     O514847   1.458   7.501   5.727  0.4600 -0.6954  0.0864
   42MOL     C614848   1.509   7.403   5.814 -1.2070  0.3236 -0.5739
   42MOL     C714849   1.498   7.452   5.957 -0.4691  0.6297 -0.9074
   42MOL     C814850   1.590   7.367   6.051 -0.5346  0.4047  0.0061
   42MOL     H914851   1.270   7.725   5.674 -0.2122  0.6027  1.0330
   42MOL    H1014852   1.424   7.778   5.754  1.1302  2.7460 -1.2274
   42MOL    H1114853   1.539   7.736   5.532  0.2868  1.1024  1.0234
   42MOL    H1214854   1.452   7.311   5.802 -2.1636  0.9621 -1.0070
   42MOL    H1314855   1.613   7.379   5.794 -0.8871  0.1321  1.1927
   42MOL    H1414856   1.542   7.552   5.962 -0.3146  0.6382 -2.2847
   42MOL    H1514857   1.397   7.439   5.996 -0.3694  0.5180 -0.6828
   42MOL    H1614858   1.569   7.262   6.069  1.5004 -0.1530 -0.7894
   42MOL    H1714859   1.688   7.374   6.004 -0.1297  1.5714  0.9943
   42MOL    H1814860   1.595   7.415   6.149 -0.5486  1.7719 -0.6567
   42MOL    H1914861   1.365   7.856   5.617  1.3058  0.1259 -0.3036
   42MOL    C2014862   1.377   7.601   5.449  0.6500  0.8890  0.4683
   42MOL    C2114863   1.442   7.501   5.352  0.0724  0.0379  0.6540
   42MOL    C2214864   1.330   7.436   5.263 -0.8378  0.3309 -0.8233
   42MOL    O2314865   1.332   7.434   5.140  0.3053  0.4725 -0.1377
   42MOL    O2414866   1.231   7.385   5.337 -0.1810 -0.0621 -0.3587
   42MOL    C2514867   1.113   7.338   5.271 -0.0101  0.0146  0.0799
   42MOL    C2614868   1.003   7.444   5.272  0.9332  0.5604 -0.5643
   42MOL    C2714869   0.950   7.473   5.414  0.7190  0.6090 -0.7869
   42MOL    H2814870   1.332   7.677   5.385 -1.3566 -1.2154 -0.6724
   42MOL    H2914871   1.288   7.554   5.492  1.4318 -1.1257 -0.0768
   42MOL    H3014872   1.495   7.426   5.410  1.9146  0.2546 -0.7144
   42MOL    H3114873   1.132   7.312   5.166 -0.3260 -0.0897  0.0475
   42MOL    H3214874   1.075   7.244   5.311 -1.7594  0.5987 -0.1993
   42MOL    H3314875   1.025   7.532   5.211 -0.4924  1.5320  0.2975
   42MOL    H3414876   0.922   7.406   5.208 -0.1540 -0.0936  1.1625
   42MOL    H3514877   0.999   7.557   5.463  1.1854 -0.9103  1.4249
   42MOL    H3614878   0.974   7.389   5.479 -0.8307 -0.7606 -1.9290
   42MOL    H3714879   0.841   7.483   5.410  0.3820 -0.2775  3.8515
   42MOL    C3814880   1.547   7.573   5.261 -0.8818  0.5235  0.8175
   42MOL    C3914881   1.643   7.478   5.189 -0.1704  1.1217 -1.0659
   42MOL    C4014882   1.703   7.542   5.064  0.3627 -0.3622 -0.4147
   42MOL    O4114883   1.715   7.666   5.061 -0.1634  0.2195 -0.9174
   42MOL    O4214884   1.723   7.452   4.967 -0.7702 -0.2719  0.7524
   42MOL    C4314885   1.730   7.496   4.834 -0.1584 -0.0393  0.3611
   42MOL    C4414886   1.796   7.399   4.740 -0.7142  0.3200 -0.1412
   42MOL    C4514887   1.935   7.363   4.789 -0.5030  0.2779 -0.5040
   42MOL    H4614888   1.616   7.629   5.324  1.7869 -0.8996 -0.7624
   42MOL    H4714889   1.512   7.638   5.180 -0.4485 -0.3247 -0.0641
   42MOL    H4814890   1.599   7.387   5.148  1.1261  0.5130 -1.0962
   42MOL    H4914891   1.635   7.517   4.785  0.3555 -1.7086 -1.3878
   42MOL    H5014892   1.800   7.579   4.828 -0.5052  0.1811 -0.7642
   42MOL    H5114893   1.729   7.313   4.737 -0.4931  0.1322  0.3073
   42MOL    H5214894   1.798   7.449   4.643 -1.2743 -0.1314 -0.3896
   42MOL    H5314895   1.987   7.301   4.716  1.2381  3.2968 -1.9300
   42MOL    H5414896   1.931   7.321   4.889  2.4613 -0.0717 -0.4993
   42MOL    H5514897   1.991   7.456   4.801 -0.4903  0.1834  0.2201
   42MOL    C5614898   1.755   7.417   5.274  0.4715  0.1757 -0.2405
   42MOL    C5714899   1.774   7.273   5.287 -0.5262  0.8051  0.0438
   42MOL    C5814900   1.676   7.203   5.388 -0.0147  0.1852  0.9112
   42MOL    O5914901   1.718   7.174   5.501 -1.0889 -0.5515 -0.4093
   42MOL    O6014902   1.555   7.186   5.337  0.1746 -0.2711  0.0631
   42MOL    C6114903   1.465   7.120   5.415 -0.1421 -0.0761  0.3559
   42MOL    C6214904   1.475   6.968   5.406 -0.8846  0.4880 -0.3386
   42MOL    C6314905   1.553   6.898   5.514 -0.5032  0.2320  0.2850
   42MOL    H6414906   1.755   7.454   5.377 -3.8853  0.3559 -0.2028
   42MOL    H6514907   1.854   7.449   5.242  0.0828  2.7968  1.0136
   42MOL    H6614908   1.874   7.263   5.329  0.9915  0.6559 -3.4472
   42MOL    H6714909   1.469   7.162   5.516  0.4038  0.5492  0.0740
   42MOL    H6814910   1.364   7.144   5.380 -0.4022 -1.5833  0.0453
   42MOL    H6914911   1.373   6.930   5.415 -1.3843  1.5716 -1.3390
   42MOL    H7014912   1.494   6.933   5.305 -1.2102 -0.7266  0.0143
   42MOL    H7114913   1.517   6.935   5.611 -0.0097 -0.6404  0.8040
   42MOL    H7214914   1.659   6.924   5.511 -0.5299  0.1983 -0.9156
   42MOL    H7314915   1.550   6.790   5.516  2.2218  0.1181  3.7050
   42MOL    C7414916   1.793   7.183   5.153 -0.2346 -0.0399  0.2949
   42MOL    C7514917   1.851   7.040   5.165 -0.1738  0.4822  0.4969
   42MOL    C7614918   1.821   6.954   5.041 -0.4917 -0.0632  0.2525
   42MOL    O7714919   1.739   6.862   5.051  0.1292  0.3026  0.2717
   42MOL    O7814920   1.888   6.996   4.929 -0.1193 -0.0269 -0.2729
   42MOL    C7914921   1.868   6.916   4.812  0.2302  0.0630 -0.7261
   42MOL    C8014922   1.938   6.969   4.691  0.1082 -0.1258 -0.3355
   42MOL    C8114923   2.083   6.993   4.707 -0.0884 -0.2167 -0.3762
   42MOL    H8214924   1.864   7.226   5.082  0.9344  0.0612  1.5018
   42MOL    H8314925   1.694   7.175   5.108 -0.4194  1.4806  0.4042
   42MOL    H8414926   1.788   6.987   5.236 -0.4274 -1.2883 -0.9833
   42MOL    H8514927   1.908   6.819   4.839  1.0359 -0.5745 -4.0339
   42MOL    H8614928   1.760   6.910   4.797 -0.2065  1.0871  1.6739
   42MOL    H8714929   1.926   6.888   4.619  1.6273 -0.5045 -0.1758
   42MOL    H8814930   1.894   7.060   4.651 -3.0341 -0.3689  2.3966
   42MOL    H8914931   2.131   6.912   4.763  0.0021 -1.1363 -1.7572
   42MOL    H9014932   2.099   7.091   4.751 -0.9698  0.3652 -1.3208
   42MOL    H9114933   2.144   6.997   4.617 -0.3446  0.5816 -0.5091
   42MOL    C9214934   2.003   7.044   5.202  0.0365 -0.1762 -0.1324
   42MOL    C9314935   2.054   6.908   5.242  0.7036 -0.5985 -0.2950
   42MOL    C9414936   2.201   6.893   5.210 -0.1766  0.3495 -0.6582
   42MOL    O9514937   2.281   6.860   5.294 -0.2357 -0.2318 -0.0256
   42MOL    O9614938   2.230   6.908   5.079  0.2845  0.4310 -0.0919
   42MOL    C9714939   2.357   6.870   5.034 -0.3295  0.1310 -0.1755
   42MOL    C9814940   2.367   6.723   5.020 -0.7136  0.9149  0.1603
   42MOL    C9914941   2.294   6.662   4.900  0.2001 -0.4893 -0.3892
   42MOL   H10014942   2.034   7.118   5.276  0.4972  1.7344 -2.1879
   42MOL   H10114943   2.065   7.070   5.117  1.6568 -2.8973  0.1649
   42MOL   H10214944   2.001   6.832   5.184 -0.7417 -1.1544  1.6845
   42MOL   H10314945   2.379   6.922   4.940 -1.1630 -0.0121 -0.4509
   42MOL   H10414946   2.433   6.907   5.103 -1.1609  0.5024  0.5474
   42MOL   H10514947   2.473   6.698   5.009 -1.0089 -1.0828  1.6306
   42MOL   H10614948   2.332   6.672   5.110 -1.0236 -0.6518 -0.8184
   42MOL   H10714949   2.193   6.702   4.893 -0.2420 -1.5576 -0.0928
   42MOL   H10814950   2.279   6.555   4.910 -2.7040 -0.2550 -1.8520
   42MOL   H10914951   2.338   6.683   4.802  0.9020 -0.3137 -0.0453
   42MOL   C11014952   2.017   6.879   5.385 -0.9844 -0.3207 -0.9801
   42MOL   C11114953   2.008   6.735   5.430 -0.1215  0.0041  0.1945
   42MOL   C11214954   2.047   6.717   5.581  0.9203  0.0450 -0.5737
   42MOL   O11314955   1.971   6.669   5.664  0.4081 -0.0389 -0.0992
   42MOL   O11414956   2.173   6.761   5.601 -0.5425  0.1771 -0.1674
   42MOL   C11514957   2.225   6.760   5.736 -0.2176  0.1285  0.0032
   42MOL   C11614958   2.314   6.636   5.741  0.1805 -0.1755  0.4616
   42MOL   C11714959   2.237   6.504   5.757 -0.7135 -0.3160  0.1768
   42MOL   H11814960   1.921   6.924   5.410 -0.4254  1.6230 -2.1964
   42MOL   H11914961   2.083   6.939   5.447 -0.2125 -0.6791 -1.4494
   42MOL   H12014962   2.088   6.686   5.376 -1.6256 -2.8570  0.4824
   42MOL   H12114963   2.288   6.848   5.742  0.6077 -0.4435 -0.2368
   42MOL   H12214964   2.150   6.769   5.814  0.4819 -2.1461  0.9965
   42MOL   H12314965   2.396   6.645   5.670  1.8048 -2.0937  2.0294
   42MOL   H12414966   2.357   6.640   5.841  1.7507  2.5586 -0.2707
   42MOL   H12514967   2.232   6.465   5.656 -0.5071 -2.6620  1.0382
   42MOL   H12614968   2.136   6.515   5.798 -0.4665 -0.5239  0.8547
   42MOL   H12714969   2.277   6.425   5.820 -0.7456  0.3367  1.0343
   42MOL   C12814970   1.875   6.667   5.385 -0.7658 -0.1133 -0.0252
   42MOL   C12914971   1.903   6.544   5.306 -0.3587 -0.2667  0.5700
   42MOL   C13014972   1.945   6.432   5.403  0.1770  0.3627  0.0106
   42MOL   O13114973   2.053   6.377   5.389 -0.1206  0.4386 -0.1344
   42MOL   O13214974   1.850   6.400   5.500 -0.1163  0.0382 -0.1050
   42MOL   C13314975   1.866   6.287   5.588 -0.0985 -0.4598  0.2781
   42MOL   C13414976   1.774   6.192   5.515 -0.3401  0.4342 -0.3059
   42MOL   C13514977   1.761   6.050   5.581 -0.3788  0.0462 -0.1138
   42MOL   H13614978   1.802   6.734   5.338 -0.1358  1.0770  0.6734
   42MOL   H13714979   1.823   6.643   5.478 -0.2455  0.6406  0.4666
   42MOL   H13814980   1.988   6.566   5.241  0.2248 -0.8770  1.1336
   42MOL   H13914981   1.965   6.242   5.591  0.6095  1.0273 -0.2735
   42MOL   H14014982   1.836   6.318   5.689 -0.1217 -2.3991  0.8839
   42MOL   H14114983   1.673   6.230   5.506  0.2262  1.5429 -2.2452
   42MOL   H14214984   1.817   6.166   5.418  0.1652  0.2569 -0.0427
   42MOL   H14314985   1.721   6.066   5.681 -1.4680 -1.0024 -0.3788
   42MOL   H14414986   1.855   5.995   5.581  0.3201  1.1569 -2.7297
   42MOL   H14514987   1.687   5.992   5.526 -1.6582 -1.3111  2.9574
   42MOL   C14614988   1.786   6.507   5.214  0.5223 -0.7868 -0.5298
   42MOL   C14714989   1.817   6.393   5.117  0.1961  0.0541 -0.3476
   42MOL   C14814990   1.701   6.286   5.094  0.9373  0.5965 -0.2619
   42MOL   O14914991   1.634   6.291   4.993 -0.4003  0.1071  0.5370
   42MOL   O15014992   1.679   6.210   5.210  0.0765  0.0139  0.5763
   42MOL   C15114993   1.571   6.117   5.210 -0.2083 -0.0957 -0.4234
   42MOL   C15214994   1.651   5.990   5.210  0.0839  0.4336  0.1835
   42MOL   C15314995   1.558   5.863   5.209  0.1950 -0.7047  0.0041
   42MOL   H15414996   1.757   6.589   5.148  0.7415 -1.0576 -0.9651
   42MOL   H15514997   1.704   6.483   5.282  1.4915 -0.5735  0.7201
   42MOL   H15614998   1.894   6.331   5.162 -0.6521 -0.6530  0.1336
   42MOL   H15714999   1.507   6.123   5.297  0.3855  1.9618 -0.1067
   42MOL   H15815000   1.514   6.133   5.118  1.1612 -3.2916 -1.9039
   42MOL   H15915001   1.689   5.989   5.108 -1.5268 -0.1221 -0.4229
   42MOL   H16015002   1.723   5.983   5.292 -0.1371 -1.3535  0.2325
   42MOL   H16115003   1.515   5.843   5.307  0.0287 -0.3537  0.0043
   42MOL   H16215004   1.620   5.778   5.179 -1.7072 -1.2736 -2.5390
   42MOL   H16315005   1.479   5.856   5.133  0.5398 -2.1831 -0.2391
   42MOL   C16415006   1.873   6.448   4.984 -0.8778 -0.0063  1.0280
   42MOL   C16515007   1.934   6.334   4.891 -0.5861  0.2757  0.3582
   42MOL   C16615008   1.935   6.382   4.750 -0.8016  0.5612 -0.3132
   42MOL   O16715009   1.879   6.320   4.662  0.2329 -0.2196 -0.0544
   42MOL   O16815010   1.993   6.500   4.731 -0.5089  0.0358  0.0565
   42MOL   C16915011   2.018   6.558   4.604  0.3733 -0.7158 -0.1462
   42MOL   C17015012   2.131   6.479   4.537  0.3947 -0.3381  0.5367
   42MOL   C17115013   2.135   6.494   4.377 -0.6208  0.6858  0.2682
   42MOL   H17215014   1.955   6.517   5.007 -1.5191  1.9417 -2.1926
   42MOL   H17315015   1.793   6.491   4.925  0.8464  0.6750 -0.8817
   42MOL   H17415016   1.864   6.255   4.864  1.3198 -1.9683  1.7578
   42MOL   H17515017   1.919   6.560   4.560  0.8664 -1.4993 -1.3024
   42MOL   H17615018   2.043   6.664   4.616 -0.6569 -0.3930 -0.7427
   42MOL   H17715019   2.225   6.511   4.581 -0.2020  1.3807  0.6153
   42MOL   H17815020   2.121   6.371   4.550 -1.3388 -0.3041 -0.3640
   42MOL   H17915021   2.231   6.450   4.349 -1.2025 -2.0264  2.2420
   42MOL   H18015022   2.128   6.597   4.342  0.5925  0.2974 -1.1635
   42MOL   H18115023   2.056   6.439   4.326  1.4788  1.4148 -3.9154
   42MOL   C18215024   2.077   6.280   4.938  0.2923  0.1756  0.1440
   42MOL   C18315025   2.123   6.154   4.861  0.4675  0.1639 -0.3045
   42MOL   C18415026   2.270   6.121   4.892  0.3296 -0.0547  0.5512
   42MOL   O18515027   2.309   6.042   4.978 -1.3491 -0.3148  0.0205
   42MOL   O18615028   2.351   6.196   4.823 -0.3953 -0.0068  0.1380
   42MOL   C18715029   2.489   6.192   4.844 -0.5419 -0.5291 -0.3243
   42MOL   C18815030   2.532   6.329   4.897 -0.2451  0.0825  0.0308
   42MOL   C18915031   2.491   6.354   5.046 -0.4804 -0.1879 -0.9890
   42MOL   H19015032   2.072   6.259   5.045  1.6850  1.4652  0.4947
   42MOL   H19115033   2.159   6.349   4.917  0.4121  0.0825  0.3028
   42MOL   H19215034   2.121   6.187   4.757 -1.5364 -0.8490 -0.6050
   42MOL   H19315035   2.511   6.107   4.908  0.1782 -0.1391 -0.0414
   42MOL   H19415036   2.537   6.179   4.747 -0.4421 -3.4040  0.0693
   42MOL   H19515037   2.640   6.341   4.885 -0.0167  0.3310  2.1193
   42MOL   H19615038   2.493   6.417   4.847 -2.0166 -0.2359  0.8104
   42MOL   H19715039   2.386   6.379   5.058  0.2440  1.8790  1.5931
   42MOL   H19815040   2.548   6.433   5.095  0.6266 -1.3527 -0.3703
   42MOL   H19915041   2.501   6.260   5.100 -0.8441 -0.6499 -1.7189
   42MOL   C20015042   2.031   6.028   4.870  0.5416  0.7639 -0.1076
   42MOL   C20115043   2.066   5.912   4.773  0.6736 -0.0087 -0.2500
   42MOL   C20215044   1.999   5.786   4.822  0.1394  0.3846  0.1146
   42MOL   O20315045   1.917   5.721   4.752 -0.0154  0.2538  0.6709
   42MOL   O20415046   2.045   5.733   4.942 -0.1809  0.4491  0.2014
   42MOL   C20515047   1.986   5.616   4.996  0.2123 -0.3429 -0.0244
   42MOL   C20615048   1.867   5.647   5.088 -0.5439 -0.0185 -0.4489
   42MOL   C20715049   1.853   5.540   5.197 -0.2718 -0.1986 -0.5609
   42MOL   H20815050   1.930   6.061   4.845  1.1758  1.3696 -1.9020
   42MOL   H20915051   2.024   5.992   4.973 -0.8546  0.6785 -0.2221
   42MOL   H21015052   2.171   5.886   4.768  0.5053 -0.9873  1.0143
   42MOL   H21115053   1.958   5.545   4.918 -0.3041  2.2095 -2.2619
   42MOL   H21215054   2.056   5.560   5.058  1.0096  1.7491  1.0525
   42MOL   H21315055   1.894   5.729   5.154 -2.3013 -0.9961  1.5766
   42MOL   H21415056   1.773   5.675   5.039  0.0925  2.6774 -0.1702
   42MOL   H21515057   1.873   5.437   5.168 -0.5209 -0.4157  0.0499
   42MOL   H21615058   1.753   5.535   5.240 -1.5498  0.5500 -3.3283
   42MOL   H21715059   1.918   5.550   5.283 -1.6853  0.4494  0.4415
   42MOL   C21815060   2.024   5.951   4.630  0.9130 -0.4750 -0.1571
   42MOL   C21915061   2.108   5.906   4.506  0.7681 -0.0243  0.2742
   42MOL   C22015062   2.246   5.979   4.504 -0.4364 -0.2301  0.7601
   42MOL   O22115063   2.259   6.091   4.451  0.7262 -0.4971 -0.0382
   42MOL   O22215064   2.340   5.908   4.574  0.2715  0.4277 -0.1081
   42MOL   C22315065   2.471   5.942   4.565 -0.5668 -0.3466 -0.0633
   42MOL   C22415066   2.550   5.831   4.489  0.4855 -0.1318  0.0282
   42MOL   C22515067   2.702   5.846   4.492 -0.0953 -0.3946 -0.4929
   42MOL   H22615068   2.011   6.059   4.621  1.2310 -0.3975  0.2806
   42MOL   H22715069   1.927   5.910   4.602  1.4558 -2.0833  0.3138
   42MOL   H22815070   2.042   5.940   4.425  0.6691  0.1093  0.4117
   42MOL   H22915071   2.473   6.041   4.521 -2.2622  0.1236  0.8688
   42MOL   H23015072   2.516   5.955   4.663 -0.9424 -0.1081  0.0812
   42MOL   H23115073   2.526   5.732   4.528 -2.4007 -0.2804 -1.9613
   42MOL   H23215074   2.510   5.820   4.388 -2.1724 -2.2143  1.2450
   42MOL   H23315075   2.747   5.763   4.437 -2.1367 -1.2069 -0.9839
   42MOL   H23415076   2.738   5.838   4.594 -1.5885 -1.7412 -0.0528
   42MOL   H23515077   2.729   5.945   4.455 -1.2595  0.5453  1.1160
   42MOL   C23615078   2.133   5.758   4.479 -0.2334 -0.5421 -0.5206
   42MOL   C23715079   2.014   5.664   4.430  0.2453  0.3809 -0.3203
   42MOL   C23815080   2.001   5.672   4.274  0.3355 -0.6348  0.1813
   42MOL   O23915081   2.005   5.574   4.198  0.0452 -0.5045 -0.0132
   42MOL   O24015082   1.995   5.805   4.229 -0.6286  0.5926 -0.1501
   42MOL   C24115083   1.975   5.839   4.093  0.9100 -0.3446  0.0552
   42MOL   C24215084   1.829   5.872   4.060  0.1307 -0.6394 -0.1284
   42MOL   C24315085   1.801   5.919   3.918 -0.3187  0.1698  0.1190
   42MOL   H24415086   2.165   5.724   4.578 -1.0806 -0.0485 -0.0711
   42MOL   H24515087   2.214   5.737   4.409 -0.7238 -3.7759 -0.2227
   42MOL   H24615088   1.917   5.702   4.461  0.0104  2.7806 -3.7445
   42MOL   H24715089   2.024   5.934   4.074 -0.7424  0.5596  0.2221
   42MOL   H24815090   2.014   5.770   4.017  1.1280  0.3382 -0.4586
   42MOL   H24915091   1.769   5.783   4.079  0.8850 -0.9944  0.5949
   42MOL   H25015092   1.794   5.944   4.134  0.7970 -0.9188  0.4658
   42MOL   H25115093   1.819   5.833   3.853 -1.5542 -1.2362  1.6031
   42MOL   H25215094   1.869   6.003   3.903 -0.4368  0.6686  2.2657
   42MOL   H25315095   1.699   5.955   3.901 -0.0706  1.4789  1.2616
   42MOL   C25415096   2.032   5.525   4.495  0.2488  0.9689 -0.4580
   42MOL   C25515097   1.934   5.410   4.449 -0.0628  0.0563 -0.3968
   42MOL   C25615098   1.984   5.279   4.513 -0.1694  0.7717 -0.8225
   42MOL   O25715099   2.026   5.189   4.446  0.8429  0.0001 -0.2055
   42MOL   O25815100   1.974   5.276   4.645  0.3251 -0.0625  0.4105
   42MOL   C25915101   2.022   5.161   4.709 -0.1333  0.8765  0.2917
   42MOL   C26015102   1.960   5.163   4.855  0.4273  0.7637  0.0620
   42MOL   C26115103   1.816   5.105   4.853  0.2662  0.1826  0.1601
   42MOL   H26215104   2.019   5.538   4.602  2.0600 -2.8044  0.3077
   42MOL   H26315105   2.136   5.491   4.496 -0.2924 -0.6973  0.3741
   42MOL   H26415106   1.943   5.401   4.341 -3.7904  1.3096 -0.9021
   42MOL   H26515107   1.984   5.078   4.650 -1.3120 -0.0160  2.2358
   42MOL   H26615108   2.130   5.156   4.696 -0.2065  1.0367 -0.3728
   42MOL   H26715109   2.021   5.106   4.924  2.8608  0.2345 -2.4362
   42MOL   H26815110   1.956   5.264   4.896 -2.3848  0.4168  0.7277
   42MOL   H26915111   1.757   5.188   4.815  0.5545  0.7597  0.9661
   42MOL   H27015112   1.775   5.083   4.952  0.0209 -1.4209 -0.2733
   42MOL   H27115113   1.816   5.011   4.797 -0.0538  0.1110  0.2784
   42MOL   C27215114   1.788   5.445   4.482  0.2892  0.6480  0.7782
   42MOL   C27315115   1.694   5.464   4.365 -0.4982 -0.4081 -0.4895
   42MOL   C27415116   1.680   5.334   4.283  1.1115  0.2310 -0.2782
   42MOL   O27515117   1.588   5.254   4.304  0.0294 -0.4870  0.4693
   42MOL   O27615118   1.770   5.321   4.183  0.1404  0.7536 -0.3688
   42MOL   C27715119   1.772   5.198   4.111 -0.6633 -0.3339  0.1353
   42MOL   C27815120   1.900   5.202   4.022 -0.3102 -0.2581 -0.4482
   42MOL   C27915121   2.028   5.168   4.094 -0.3646  0.5086  0.1761
   42MOL   H28015122   1.784   5.529   4.552  1.4762  1.3523  0.0123
   42MOL   H28115123   1.741   5.359   4.531  0.5327  0.3065  0.4199
   42MOL   H28215124   1.731   5.543   4.299  0.0070  0.3674  0.7075
   42MOL   H28315125   1.771   5.110   4.177  0.9861 -0.5437 -0.0972
   42MOL   H28415126   1.680   5.197   4.053 -1.3740 -0.4268  1.2510
   42MOL   H28515127   1.883   5.141   3.933 -2.5957  2.2082 -1.7643
   42MOL   H28615128   1.908   5.306   3.990  1.1583  0.0542  0.8684
   42MOL   H28715129   2.113   5.226   4.060  0.8629 -0.5218  1.4409
   42MOL   H28815130   2.040   5.059   4.097 -1.2956  0.3905 -0.0306
   42MOL   H28915131   2.018   5.203   4.197 -0.6816  1.4730 -0.1762
   42MOL   C29015132   1.557   5.513   4.416 -0.7983  0.3367 -0.2368
   42MOL   C29115133   1.472   5.590   4.309  0.1644 -0.6037  0.0031
   42MOL   C29215134   1.321   5.598   4.346 -0.0442  0.4924  0.8119
   42MOL   O29315135   1.284   5.603   4.465  0.2299  0.4983  0.3071
   42MOL   O29415136   1.246   5.597   4.234 -0.3671 -0.3007 -0.2919
   42MOL   C29515137   1.107   5.589   4.240 -0.2979 -1.0092 -0.6676
   42MOL   C29615138   1.063   5.589   4.093  0.7726  0.1827 -0.2520
   42MOL   C29715139   1.091   5.456   4.025  0.0256 -0.0538  0.6196
   42MOL   H29815140   1.569   5.581   4.501 -2.8156  0.5010 -0.0620
   42MOL   H29915141   1.495   5.432   4.452 -3.3511  2.5641  0.5858
   42MOL   H30015142   1.470   5.528   4.220 -0.1615 -1.8950  0.8952
   42MOL   H30115143   1.073   5.493   4.279 -0.8935 -0.2855  0.6471
   42MOL   H30215144   1.061   5.664   4.305  0.5713 -1.5538  0.6014
   42MOL   H30315145   0.955   5.601   4.090  0.6779 -0.3868  0.5127
   42MOL   H30415146   1.107   5.674   4.042  0.1592 -0.3989 -1.7997
   42MOL   H30515147   1.043   5.446   3.928  1.6164  0.1833 -0.2091
   42MOL   H30615148   1.071   5.370   4.089  1.3887 -0.2071  0.8684
   42MOL   H30715149   1.197   5.445   4.003 -0.3460  1.5520 -2.2260
   42MOL   C30815150   1.541   5.731   4.269  0.0144  0.3818 -0.4678
   42MOL   C30915151   1.500   5.845   4.370 -0.0320  0.2738 -0.2350
   42MOL   C31015152   1.599   5.855   4.490  0.1151  0.3651  0.1719
   42MOL   O31115153   1.718   5.853   4.478  0.7191 -0.2788  0.8494
   42MOL   O31215154   1.534   5.857   4.607  0.1061 -0.0835  0.2044
   42MOL   C31315155   1.601   5.890   4.725  0.0539  0.4803 -0.7034
   42MOL   C31415156   1.537   6.003   4.802 -0.1304 -1.2163  0.0734
   42MOL   C31515157   1.560   6.133   4.729  0.4220  0.0968  0.7118
   42MOL   H31615158   1.520   5.759   4.166  0.2211  0.8523 -0.3826
   42MOL   H31715159   1.650   5.724   4.263  0.0571 -1.1300  1.7508
   42MOL   H31815160   1.404   5.826   4.418  0.7901  0.7317  1.6285
   42MOL   H31915161   1.612   5.805   4.793  3.9211  0.7660 -0.8453
   42MOL   H32015162   1.708   5.909   4.715  0.3042 -0.3002  0.4352
   42MOL   H32115163   1.430   5.993   4.821 -0.0910  1.2906  1.8778
   42MOL   H32215164   1.578   6.006   4.903 -1.4501 -2.2814  0.6644
   42MOL   H32315165   1.659   6.169   4.754  0.1785 -0.2464  2.2933
   42MOL   H32415166   1.550   6.124   4.621  2.7205  0.1379  0.4775
   42MOL   H32515167   1.496   6.217   4.755 -0.6909 -1.1631  2.1907
   42MOL   C32615168   1.492   5.980   4.289 -0.3395 -0.8020 -0.0569
   42MOL   C32715169   1.374   6.007   4.189  0.5749 -0.4228 -0.1165
   42MOL   C32815170   1.238   5.974   4.252 -0.4745 -0.8508  0.7999
   42MOL   O32915171   1.149   5.905   4.200  0.2170 -0.5912  0.4093
   42MOL   O33015172   1.222   6.032   4.379  0.1246 -0.2418  0.5637
   42MOL   C33115173   1.105   6.001   4.460 -0.1496 -1.1394  0.2087
   42MOL   C33215174   1.148   5.975   4.602 -0.0095  0.2045 -0.7774
   42MOL   C33315175   1.166   5.827   4.636 -0.0722  0.3541  0.0408
   42MOL   H33415176   1.590   5.985   4.241 -0.8426 -2.6988 -1.3406
   42MOL   H33515177   1.492   6.064   4.358  0.8604  0.0194 -1.0197
   42MOL   H33615178   1.371   5.926   4.116 -5.5682  0.1383 -0.7270
   42MOL   H33715179   1.046   6.092   4.452  1.6701 -0.0672 -1.5954
   42MOL   H33815180   1.057   5.911   4.420  2.9048 -1.4785 -2.9348
   42MOL   H33915181   1.241   6.025   4.628  0.2819 -1.7290  2.0844
   42MOL   H34015182   1.077   6.020   4.670 -1.2913 -1.8725 -0.7063
   42MOL   H34115183   1.262   5.796   4.593 -0.4759 -0.1445 -0.5159
   42MOL   H34215184   1.184   5.816   4.743  0.1641 -2.2558 -0.2174
   42MOL   H34315185   1.083   5.770   4.595  0.8695 -0.4388 -0.8126
   42MOL   C34415186   1.380   6.143   4.127 -1.0859 -0.1434  0.2530
   42MOL   C34515187   1.289   6.161   4.004  0.3018 -0.0481  0.4686
   42MOL   C34615188   1.288   6.302   3.940  0.0537  0.5204 -0.7685
   42MOL   O34715189   1.301   6.402   4.012  0.0344  0.1247 -0.1713
   42MOL   O34815190   1.276   6.299   3.806  0.4603 -0.2447  0.9567
   42MOL   C34915191   1.293   6.415   3.729 -0.2785 -0.4256 -0.0916
   42MOL   C35015192   1.438   6.465   3.733 -0.3189 -0.2338 -0.2751
   42MOL   C35115193   1.544   6.376   3.671 -0.3826  0.1160  0.3784
   42MOL   H35215194   1.482   6.171   4.102 -1.1169 -0.9768 -0.8473
   42MOL   H35315195   1.353   6.221   4.198  0.2219  0.9575 -0.4537
   42MOL   H35415196   1.191   6.131   4.040 -0.3090  1.7025  0.2917
   42MOL   H35515197   1.271   6.389   3.625  1.7365 -0.0816 -0.6497
   42MOL   H35615198   1.218   6.484   3.767  0.6358  0.8180 -0.4772
   42MOL   H35715199   1.446   6.566   3.693 -0.1014 -0.1070  0.0942
   42MOL   H35815200   1.472   6.479   3.836 -1.8692 -0.7608  0.3281
   42MOL   H35915201   1.532   6.272   3.701 -2.3411  1.0312  2.9989
   42MOL   H36015202   1.541   6.382   3.562  1.7228  0.2555  0.2978
   42MOL   H36115203   1.649   6.405   3.682 -0.1993  0.2152 -1.4536
   42MOL   H36215204   1.322   6.091   3.927 -1.8938  0.9600 -1.4380
   43MOL     C115205   5.186   0.169   3.744  0.3263 -0.2059  0.5955
   43MOL     C215206   5.270   0.262   3.644 -0.7260 -0.0815 -0.7627
   43MOL     C315207   5.396   0.181   3.604  0.2871  0.2976 -0.1436
   43MOL     O415208   5.509   0.222   3.619 -0.7126 -0.0183  0.8952
   43MOL     O515209   5.351   0.059   3.557  0.1375 -0.4964  0.6532
   43MOL     C615210   5.444   7.851   3.496  0.6290 -0.2274  0.1751
   43MOL     C715211   5.404   7.703   3.492 -0.3166 -0.4477  0.4763
   43MOL     C815212   5.402   7.638   3.628  0.3315  0.5554 -0.4090
   43MOL     H915213   5.145   0.232   3.823  1.0153 -2.6549  3.0130
   43MOL    H1015214   5.096   0.140   3.690  0.7235 -0.7593  0.2204
   43MOL    H1115215   5.300   0.346   3.706 -0.6631  1.2389 -2.5501
   43MOL    H1215216   5.442   0.002   3.392  0.9461  1.1768  0.5838
   43MOL    H1315217   5.546   7.869   3.531  0.6260  0.5166 -0.2039
   43MOL    H1415218   5.307   7.705   3.442 -0.5299  1.6602  0.8980
   43MOL    H1515219   5.478   7.650   3.432 -2.7825 -2.5940 -0.7494
   43MOL    H1615220   5.355   7.540   3.628 -1.5750  1.4584 -1.2949
   43MOL    H1715221   5.505   7.627   3.664 -0.3516  2.3208  2.1712
   43MOL    H1815222   5.341   7.687   3.703 -0.3703  1.6867 -1.7062
   43MOL    H1915223   5.233   0.077   3.778  1.2761 -0.6666 -1.8992
   43MOL    C2015224   5.188   0.319   3.530  0.1680 -0.4610  0.5840
   43MOL    C2115225   5.078   0.419   3.573 -0.0692 -0.5576  0.3347
   43MOL    C2215226   5.130   0.563   3.591 -0.5189  0.1717 -0.7677
   43MOL    O2315227   5.238   0.592   3.540 -0.3102  1.3104  0.0071
   43MOL    O2415228   5.055   0.644   3.667  0.3177 -0.3088  0.3099
   43MOL    C2515229   5.104   0.775   3.710 -0.4906  0.2621 -0.2039
   43MOL    C2615230   4.990   0.829   3.782 -0.7990  0.1695  0.0485
   43MOL    C2715231   4.999   0.976   3.803  1.0589 -0.1291  0.4965
   43MOL    H2815232   5.136   0.229   3.497 -0.6997  1.0680 -2.3553
   43MOL    H2915233   5.237   0.342   3.435 -1.4016 -0.4207 -0.2346
   43MOL    H3015234   5.028   0.391   3.665 -0.7257 -1.6880 -0.3489
   43MOL    H3115235   5.186   0.744   3.774 -2.8553 -1.5938  2.0247
   43MOL    H3215236   5.138   0.819   3.616 -0.8539 -0.9794 -0.9349
   43MOL    H3315237   4.897   0.805   3.730 -0.7113 -0.9533  0.3939
   43MOL    H3415238   4.989   0.766   3.871  0.9853 -1.2485 -0.8829
   43MOL    H3515239   4.900   0.998   3.842  0.4686  0.4693 -1.2729
   43MOL    H3615240   5.007   1.035   3.711  0.4242  0.6888  0.9611
   43MOL    H3715241   5.077   1.004   3.873 -0.0711  1.9489  0.9624
   43MOL    C3815242   4.965   0.422   3.476 -0.7587 -0.4940  0.3271
   43MOL    C3915243   4.831   0.493   3.519 -0.2470 -0.2518  0.1078
   43MOL    C4015244   4.800   0.617   3.437 -0.0535 -0.4055  0.2280
   43MOL    O4115245   4.784   0.724   3.493  0.4014  0.3282  0.2939
   43MOL    O4215246   4.790   0.596   3.311 -0.5742  0.2845 -0.1032
   43MOL    C4315247   4.759   0.705   3.220  0.3009 -0.0802  0.5328
   43MOL    C4415248   4.821   0.686   3.083  0.2191  0.2353  0.4245
   43MOL    C4515249   4.746   0.578   3.006  0.1486  0.0273  0.9019
   43MOL    H4615250   4.949   0.318   3.450 -0.5124 -0.3621 -0.3670
   43MOL    H4715251   4.993   0.462   3.378 -0.9932  3.0855  1.6216
   43MOL    H4815252   4.840   0.521   3.624 -2.7176 -0.4327  0.4048
   43MOL    H4915253   4.650   0.710   3.215  0.3828  3.0929  1.2990
   43MOL    H5015254   4.794   0.798   3.264 -1.3966  0.9453 -0.2657
   43MOL    H5115255   4.803   0.778   3.028  2.2554 -0.2262 -1.0619
   43MOL    H5215256   4.929   0.678   3.092  0.3057 -0.8814 -1.3515
   43MOL    H5315257   4.645   0.617   2.993  0.9733  2.7770  2.2797
   43MOL    H5415258   4.760   0.479   3.049  0.1972 -0.4414 -0.1799
   43MOL    H5515259   4.792   0.561   2.909 -1.7684 -0.1925  0.0240
   43MOL    C5615260   4.709   0.397   3.532 -0.0099  0.3214  1.1626
   43MOL    C5715261   4.648   0.327   3.406 -0.7112 -0.4354  0.6131
   43MOL    C5815262   4.735   0.206   3.348 -0.3067  0.2358  0.1177
   43MOL    O5915263   4.816   0.145   3.418  0.0641  0.4411  0.2791
   43MOL    O6015264   4.702   0.161   3.225 -0.2409  0.1033 -0.5254
   43MOL    C6115265   4.750   0.038   3.173  0.6533  0.3963 -0.4943
   43MOL    C6215266   4.637   7.862   3.086  0.5102  0.9688 -0.3468
   43MOL    C6315267   4.665   7.724   3.027  0.4517  0.0744  0.4880
   43MOL    H6415268   4.635   0.453   3.590 -0.2300  0.1563  1.0405
   43MOL    H6515269   4.745   0.315   3.593 -1.0443 -2.0790 -1.3676
   43MOL    H6615270   4.643   0.403   3.328 -0.7475 -1.7375 -0.6629
   43MOL    H6715271   4.846   0.033   3.124 -0.1612 -0.1616 -2.0423
   43MOL    H6815272   4.775   7.857   3.259 -1.3528  0.1989 -0.0123
   43MOL    H6915273   4.548   7.837   3.144  0.1773 -0.7382 -1.5360
   43MOL    H7015274   4.604   0.054   3.012 -1.6083  0.9129  0.5124
   43MOL    H7115275   4.721   7.652   3.087  0.9359  3.3316  4.1197
   43MOL    H7215276   4.725   7.738   2.938 -1.2249 -2.3748 -1.1136
   43MOL    H7315277   4.579   7.678   2.977  1.6162 -2.7028  0.9513
   43MOL    C7415278   4.500   0.289   3.433  0.2513  0.8191  0.1358
   43MOL    C7515279   4.412   0.254   3.309 -0.0750  0.1083  0.3064
   43MOL    C7615280   4.295   0.150   3.334 -0.8809 -0.5671 -0.4771
   43MOL    O7715281   4.255   0.134   3.445  0.6353  0.2663 -0.4961
   43MOL    O7815282   4.261   0.082   3.224  0.6992  0.4680 -0.0325
   43MOL    C7915283   4.149   7.873   3.232  0.2451 -0.4789 -0.4001
   43MOL    C8015284   4.009   0.057   3.212  0.1940  0.7445  0.1224
   43MOL    C8115285   3.901   7.828   3.248 -0.4227 -0.3291  0.2742
   43MOL    H8215286   4.454   0.367   3.493  0.4536 -0.4816  2.0283
   43MOL    H8315287   4.507   0.199   3.493 -2.2516 -0.4387 -1.3792
   43MOL    H8415288   4.476   0.194   3.245  0.7202 -0.7275  1.8401
   43MOL    H8515289   4.168   7.799   3.155 -1.4725 -0.4072 -0.9136
   43MOL    H8615290   4.150   7.822   3.328  2.6128  1.7863  0.8233
   43MOL    H8715291   4.004   0.141   3.281  0.3522  0.9572 -0.1236
   43MOL    H8815292   4.003   0.102   3.113  0.0233  0.7473  0.1349
   43MOL    H8915293   3.942   7.745   3.191  0.7374  0.3033  0.1717
   43MOL    H9015294   3.808   7.864   3.205  0.9074  0.4709 -2.0459
   43MOL    H9115295   3.893   7.806   3.355 -2.4072  0.8469  0.3928
   43MOL    C9215296   4.359   0.382   3.246  0.6511  0.2158  0.1296
   43MOL    C9315297   4.295   0.375   3.104 -0.0898  0.5284  0.1579
   43MOL    C9415298   4.187   0.485   3.105  0.3299  0.0236  0.4691
   43MOL    O9515299   4.206   0.589   3.043 -0.5854 -0.0294  0.0178
   43MOL    O9615300   4.076   0.455   3.172 -0.4061  0.1106 -0.2283
   43MOL    C9715301   3.965   0.545   3.170  0.1482  0.5969 -0.5524
   43MOL    C9815302   3.840   0.465   3.222  0.2508  0.3347 -0.8237
   43MOL    C9915303   3.762   0.394   3.109 -0.4166  0.7170  0.4216
   43MOL   H10015304   4.439   0.456   3.237  0.0546  1.1036  2.0035
   43MOL   H10115305   4.291   0.436   3.312 -0.4555 -0.2655 -0.5986
   43MOL   H10215306   4.238   0.284   3.086  0.2507  0.1145  1.1492
   43MOL   H10315307   3.994   0.631   3.230  1.9988 -1.8341  2.1547
   43MOL   H10415308   3.958   0.588   3.069  0.0733 -0.2670 -0.9182
   43MOL   H10515309   3.873   0.402   3.304  0.0674  1.4759  0.1315
   43MOL   H10615310   3.775   0.540   3.266 -1.4857 -1.2163 -0.6992
   43MOL   H10715311   3.669   0.352   3.147  0.8014 -0.7706  1.7932
   43MOL   H10815312   3.834   0.321   3.071  0.3524  0.7822  1.7523
   43MOL   H10915313   3.742   0.470   3.033  1.2138  1.1246  0.3970
   43MOL   C11015314   4.406   0.400   2.996  0.2431  0.3504 -0.3249
   43MOL   C11115315   4.372   0.366   2.852  0.6382  0.9163  0.1539
   43MOL   C11215316   4.477   0.422   2.756  0.0502  0.0485 -0.3497
   43MOL   O11315317   4.447   0.508   2.666  0.1228 -0.2872 -0.4612
   43MOL   O11415318   4.598   0.387   2.782  0.1738  0.0401  0.5040
   43MOL   C11515319   4.706   0.424   2.696 -0.2016  0.1998 -0.4360
   43MOL   C11615320   4.828   0.341   2.732 -0.0003 -0.5176  0.1839
   43MOL   C11715321   4.952   0.365   2.638  0.5811 -0.7209 -0.5309
   43MOL   H11815322   4.490   0.335   3.025 -0.1742  0.7255  1.8347
   43MOL   H11915323   4.437   0.504   2.996  1.0016  0.1698 -3.2005
   43MOL   H12015324   4.277   0.409   2.821 -0.0999 -0.7453  0.0552
   43MOL   H12115325   4.676   0.405   2.592 -0.6072  0.9895 -0.4652
   43MOL   H12215326   4.730   0.528   2.717 -0.2373  0.4022 -1.3585
   43MOL   H12315327   4.850   0.346   2.839 -2.3710  1.4900  0.6310
   43MOL   H12415328   4.793   0.243   2.700  1.0822 -0.5206 -1.0310
   43MOL   H12515329   5.021   0.284   2.660  2.4468  0.7620 -0.7565
   43MOL   H12615330   5.006   0.453   2.673  0.8900 -0.3682 -1.8646
   43MOL   H12715331   4.923   0.372   2.533  1.6372 -1.2009 -0.8627
   43MOL   C12815332   4.368   0.210   2.830 -0.2213 -1.0566 -0.6261
   43MOL   C12915333   4.245   0.150   2.758 -0.6793 -0.4045 -0.1691
   43MOL   C13015334   4.262   0.151   2.605 -0.3152  0.4827 -0.1912
   43MOL   O13115335   4.354   0.088   2.549 -1.0122 -0.7386  0.2884
   43MOL   O13215336   4.173   0.219   2.546  0.0990 -0.3100  0.1049
   43MOL   C13315337   4.180   0.239   2.404 -0.2892  0.6448 -0.5364
   43MOL   C13415338   4.061   0.332   2.364 -0.0846  0.4134 -0.3892
   43MOL   C13515339   4.075   0.375   2.221  0.5033 -0.1735 -0.6323
   43MOL   H13615340   4.354   0.175   2.932 -0.6551 -1.5435 -0.8507
   43MOL   H13715341   4.463   0.168   2.797 -1.2090 -1.6290 -2.7827
   43MOL   H13815342   4.156   0.210   2.775  0.0096  0.2225  1.3636
   43MOL   H13915343   4.278   0.287   2.394 -0.7754  1.3085 -2.2961
   43MOL   H14015344   4.164   0.152   2.340 -2.1734  0.3347  0.3142
   43MOL   H14115345   3.970   0.277   2.388  0.0140  0.6028  0.4426
   43MOL   H14215346   4.066   0.417   2.432 -0.2282  0.1590 -0.0554
   43MOL   H14315347   4.090   0.293   2.150 -1.2287 -0.6122 -0.5032
   43MOL   H14415348   4.168   0.428   2.200  0.5397  0.1236  0.2721
   43MOL   H14515349   3.996   0.447   2.204  0.9639  1.0451  2.1064
   43MOL   C14615350   4.241   0.006   2.808  0.2384  0.7607  0.3135
   43MOL   C14715351   4.121   7.796   2.766  0.4145  1.0616  0.0420
   43MOL   C14815352   4.143   7.648   2.797  0.6117 -0.2850 -0.1776
   43MOL   O14915353   4.255   7.602   2.817 -0.3072 -0.1005 -0.3047
   43MOL   O15015354   4.034   7.576   2.781 -0.5032 -0.3542  0.0648
   43MOL   C15115355   4.024   7.453   2.844 -0.0601 -0.2002 -0.3071
   43MOL   C15215356   3.875   7.432   2.882  1.0142 -0.1712  0.2725
   43MOL   C15315357   3.835   7.296   2.948  0.2548  0.7915 -0.9189
   43MOL   H15415358   4.224   0.002   2.916  2.2908  1.2892  0.6723
   43MOL   H15515359   4.342   7.849   2.790 -0.1072 -1.1748  2.0984
   43MOL   H15615360   4.112   7.778   2.659 -1.5716  1.1995  0.1653
   43MOL   H15715361   4.078   7.371   2.797  2.3835  0.8890  0.5162
   43MOL   H15815362   4.077   7.459   2.939  2.4730 -0.2051 -1.6823
   43MOL   H15915363   3.855   7.506   2.960  1.2597  0.3478 -0.1518
   43MOL   H16015364   3.814   7.447   2.793  1.5946  1.5061  0.1338
   43MOL   H16115365   3.859   7.203   2.896  0.4603 -0.4978  1.3614
   43MOL   H16215366   3.730   7.283   2.974  0.4413  0.1958 -0.4356
   43MOL   H16315367   3.896   7.276   3.037  0.5752  0.4008 -1.2214
   43MOL   C16415368   3.987   7.852   2.815  1.1180  0.3742  0.3087
   43MOL   C16515369   3.871   7.819   2.713  0.1586 -0.4913  0.0062
   43MOL   C16615370   3.739   7.825   2.794 -0.0060  0.3325 -0.0890
   43MOL   O16715371   3.663   0.038   2.778  0.4673 -0.1235  0.1735
   43MOL   O16815372   3.719   7.728   2.890  0.0412 -0.3793  0.1170
   43MOL   C16915373   3.603   7.732   2.977  0.3006 -0.3458 -0.5787
   43MOL   C17015374   3.604   7.615   3.076 -0.5641  0.6797  0.4082
   43MOL   C17115375   3.483   7.621   3.169 -0.4987 -0.6838  0.8303
   43MOL   H17215376   3.987   0.081   2.822 -0.6818  0.4688 -0.8838
   43MOL   H17315377   3.963   7.828   2.919 -0.4442  1.4825  0.2283
   43MOL   H17415378   3.888   7.716   2.679 -1.0150 -0.7899  0.2759
   43MOL   H17515379   3.612   7.824   3.035 -0.0708  0.9801 -2.5639
   43MOL   H17615380   3.518   7.740   2.909 -1.5335  1.2041  1.8243
   43MOL   H17715381   3.608   7.529   3.009  4.1959  0.6135  0.6096
   43MOL   H17815382   3.695   7.604   3.135 -1.1190 -3.2062  0.6687
   43MOL   H17915383   3.504   7.693   3.247  0.0369  1.0122 -0.8533
   43MOL   H18015384   3.464   7.526   3.219 -2.4755 -1.4698 -1.3064
   43MOL   H18115385   3.390   7.655   3.123 -1.2560 -3.6876  0.0288
   43MOL   C18215386   3.879   0.036   2.586 -0.8801  0.0700  0.2633
   43MOL   C18315387   3.806   7.870   2.458  0.0041 -0.1836 -0.4865
   43MOL   C18415388   3.832   7.723   2.412 -0.7409 -0.2968  0.0435
   43MOL   O18515389   3.737   7.651   2.418  0.3319  0.1522 -0.0321
   43MOL   O18615390   3.958   7.701   2.363 -0.3807 -0.0315 -0.0461
   43MOL   C18715391   3.997   7.568   2.323 -0.5927  0.7446  0.7878
   43MOL   C18815392   4.144   7.575   2.295 -0.8183 -0.0185  0.7761
   43MOL   C18915393   4.231   7.490   2.379 -0.2783  0.0209  0.0198
   43MOL   H19015394   3.983   0.050   2.556 -1.2048  2.6525  0.1935
   43MOL   H19115395   3.848   0.136   2.618 -1.4576 -0.2231  0.6325
   43MOL   H19215396   3.843   0.051   2.376 -2.7161  0.9501 -0.9388
   43MOL   H19315397   3.972   7.490   2.394 -3.2471  1.6073  0.8588
   43MOL   H19415398   3.935   7.551   2.235  1.4724 -0.0199 -0.5402
   43MOL   H19515399   4.160   7.576   2.187 -1.8533 -1.7340  0.5900
   43MOL   H19615400   4.175   7.677   2.319 -1.5962  0.7038 -1.1524
   43MOL   H19715401   4.212   7.385   2.353  2.0508 -0.1024 -1.3711
   43MOL   H19815402   4.212   7.518   2.482  0.7949 -0.4376  0.3548
   43MOL   H19915403   4.336   7.512   2.359 -0.7001  1.2387 -0.8958
   43MOL   C20015404   3.649   0.022   2.467 -0.3792  0.2573  0.1684
   43MOL   C20115405   3.584   0.049   2.329  0.6416 -0.4209  0.3249
   43MOL   C20215406   3.435   0.025   2.328  0.5037 -0.4378 -0.1663
   43MOL   O20315407   3.382   7.836   2.240 -0.1522 -0.8032 -0.0822
   43MOL   O20415408   3.369   0.068   2.441  0.6403 -0.0060  0.1377
   43MOL   C20515409   3.220   0.082   2.447  0.1594  0.1488  0.2223
   43MOL   C20615410   3.177   0.228   2.422 -0.2323 -0.0311  0.0402
   43MOL   C20715411   3.220   0.329   2.532  0.3951 -0.0112 -0.2310
   43MOL   H20815412   3.631   0.114   2.523 -0.0988  0.8872 -0.7711
   43MOL   H20915413   3.593   7.827   2.522  0.7174  0.8174  2.1396
   43MOL   H21015414   3.624   7.851   2.266  1.1325  1.5081 -1.8352
   43MOL   H21115415   3.173   0.009   2.380  1.4075 -2.8988  2.5252
   43MOL   H21215416   3.185   0.060   2.548 -0.1185  1.0425  0.3242
   43MOL   H21315417   3.194   0.256   2.318 -1.5761 -0.1670 -0.2301
   43MOL   H21415418   3.069   0.234   2.410 -0.4062  1.7639  2.2981
   43MOL   H21515419   3.191   0.429   2.501  0.1222 -0.4114 -1.2674
   43MOL   H21615420   3.327   0.326   2.551 -0.2018 -3.8295  3.3537
   43MOL   H21715421   3.169   0.310   2.627 -0.0767 -1.8490 -0.8245
   43MOL   C21815422   3.625   0.181   2.262  0.0903 -0.1066 -0.3242
   43MOL   C21915423   3.667   0.185   2.116  0.4512 -0.4505 -0.2341
   43MOL   C22015424   3.788   0.097   2.094 -0.2548 -0.4628 -0.9578
   43MOL   O22115425   3.897   0.152   2.123 -0.4552  0.1537 -0.6161
   43MOL   O22215426   3.770   7.851   2.067 -0.0315 -0.1513 -0.1935
   43MOL   C22315427   3.876   7.757   2.055  0.2228 -0.1136  0.4634
   43MOL   C22415428   3.881   7.699   1.905  0.0962  0.3121  0.3804
   43MOL   C22515429   3.972   7.591   1.866 -0.5380  0.1170 -0.3339
   43MOL   H22615430   3.717   0.213   2.310 -1.0399  2.7203  0.0619
   43MOL   H22715431   3.549   0.257   2.282 -0.7481 -1.0000 -0.0253
   43MOL   H22815432   3.703   0.285   2.096  1.0593 -0.4983  0.5876
   43MOL   H22915433   3.973   7.792   2.091  0.8164 -2.5082  1.3562
   43MOL   H23015434   3.852   7.676   2.125  0.3450  1.9426  2.9721
   43MOL   H23115435   3.777   7.673   1.884  0.6281 -4.0641  2.5408
   43MOL   H23215436   3.908   7.783   1.842  1.3752  0.6266  1.3213
   43MOL   H23315437   3.962   7.580   1.758 -0.8536  0.2795 -0.3203
   43MOL   H23415438   3.941   7.504   1.924 -2.0718  0.5752 -0.4682
   43MOL   H23515439   4.071   7.616   1.904 -0.9557 -0.4318  1.1708
   43MOL   C23615440   3.559   0.153   2.005  0.1236 -0.2433  0.0698
   43MOL   C23715441   3.593   0.176   1.855 -0.2384  0.4569 -0.0407
   43MOL   C23815442   3.573   0.056   1.766  0.8787 -0.1429  0.1473
   43MOL   O23915443   3.670   7.880   1.718 -0.1582 -0.0340  0.2804
   43MOL   O24015444   3.444   0.028   1.750 -0.0569 -0.0871 -0.2147
   43MOL   C24115445   3.405   7.792   1.678 -0.3505  0.6677 -0.1638
   43MOL   C24215446   3.409   7.666   1.769  0.5663 -0.2721 -0.1190
   43MOL   C24315447   3.310   7.660   1.893 -0.0162 -0.5702 -0.3270
   43MOL   H24415448   3.466   0.207   2.019 -1.0746 -2.0228 -0.8542
   43MOL   H24515449   3.533   0.048   2.017 -2.7326  0.4245  0.1094
   43MOL   H24615450   3.700   0.194   1.844 -0.4020  0.6299 -1.4194
   43MOL   H24715451   3.305   7.814   1.642 -0.3816  0.4419 -0.2096
   43MOL   H24815452   3.471   7.772   1.593  1.3674  0.3817  1.2042
   43MOL   H24915453   3.380   7.581   1.707 -1.0845 -1.6390  2.4330
   43MOL   H25015454   3.511   7.649   1.804 -0.2022  0.5393  2.7222
   43MOL   H25115455   3.340   7.737   1.964  2.4992 -1.1873 -0.6820
   43MOL   H25215456   3.284   7.569   1.946  1.0013  0.0846  1.3095
   43MOL   H25315457   3.213   7.700   1.861  0.7246  1.6337  0.0832
   43MOL   C25415458   3.523   0.298   1.787  0.7036  0.8286  0.5880
   43MOL   C25515459   3.558   0.441   1.840  0.0956 -0.3866 -0.4349
   43MOL   C25615460   3.713   0.446   1.851 -0.6922 -0.5532 -0.3811
   43MOL   O25715461   3.765   0.497   1.950 -0.0334  0.0227  0.2801
   43MOL   O25815462   3.782   0.400   1.742  0.7025 -0.8764 -0.2694
   43MOL   C25915463   3.925   0.414   1.728  0.8532  0.4751  0.2474
   43MOL   C26015464   3.999   0.291   1.782  0.8352 -0.2022  0.0228
   43MOL   C26115465   3.989   0.164   1.694 -0.1707 -1.6139 -0.1310
   43MOL   H26215466   3.415   0.284   1.800  0.6090 -0.4859 -1.4317
   43MOL   H26315467   3.535   0.291   1.679 -0.3786 -1.2090  0.5748
   43MOL   H26415468   3.514   0.464   1.937  1.1504 -1.3884  0.3063
   43MOL   H26515469   3.953   0.441   1.626  1.3891  0.9042  0.5075
   43MOL   H26615470   3.955   0.502   1.784  2.4483  1.0885 -1.5057
   43MOL   H26715471   4.103   0.322   1.790  0.5405  1.0739 -0.9068
   43MOL   H26815472   3.966   0.258   1.881 -1.5113 -1.4321 -1.1241
   43MOL   H26915473   4.002   0.176   1.586  1.5631  1.1340  0.3365
   43MOL   H27015474   3.889   0.123   1.703 -0.2350 -1.4629 -0.1616
   43MOL   H27115475   4.057   0.086   1.727  1.9062 -0.7251 -2.1178
   43MOL   C27215476   3.508   0.550   1.737 -0.4506  0.4499 -0.3614
   43MOL   C27315477   3.531   0.700   1.787  0.2676 -0.2352 -0.0799
   43MOL   C27415478   3.657   0.764   1.731  0.1568  0.4193 -0.5910
   43MOL   O27515479   3.753   0.800   1.801 -0.0323  0.6358  0.2276
   43MOL   O27615480   3.646   0.770   1.596 -0.9968 -0.1048 -0.0689
   43MOL   C27715481   3.758   0.811   1.517  0.2173  1.0261 -0.7472
   43MOL   C27815482   3.855   0.699   1.478 -0.8249 -0.2332  0.4024
   43MOL   C27915483   3.797   0.569   1.412 -0.3385 -0.2974  0.7361
   43MOL   H28015484   3.403   0.532   1.710 -0.7453 -0.8332  1.5165
   43MOL   H28115485   3.554   0.543   1.639 -1.2699  2.0071 -0.8665
   43MOL   H28215486   3.557   0.686   1.892  0.3488  0.0321 -0.0655
   43MOL   H28315487   3.728   0.855   1.422 -1.9532 -0.0793 -0.6011
   43MOL   H28415488   3.801   0.896   1.571  1.9339 -1.8464  2.6423
   43MOL   H28515489   3.940   0.740   1.423  0.6157 -0.7661  2.1799
   43MOL   H28615490   3.885   0.669   1.579  2.0876 -2.4219 -1.0243
   43MOL   H28715491   3.721   0.519   1.473 -1.0865 -0.5253 -0.3730
   43MOL   H28815492   3.872   0.494   1.387  0.5870  1.1482 -0.8763
   43MOL   H28915493   3.754   0.591   1.314  1.3243 -2.3351 -0.4937
   43MOL   C29015494   3.408   0.795   1.792 -0.4505  0.2301 -0.4401
   43MOL   C29115495   3.294   0.758   1.888  0.1021  0.0622 -0.0492
   43MOL   C29215496   3.316   0.781   2.039  0.0361  0.3725 -0.5162
   43MOL   O29315497   3.379   0.876   2.074  0.2366 -0.1936  0.0064
   43MOL   O29415498   3.265   0.680   2.122  0.5484 -0.6959 -0.2614
   43MOL   C29515499   3.289   0.692   2.263 -0.2646  0.2274  0.1019
   43MOL   C29615500   3.404   0.597   2.300  0.2715 -1.0082  0.3475
   43MOL   C29715501   3.538   0.666   2.311  0.5489  0.1566 -0.4093
   43MOL   H29815502   3.364   0.793   1.692 -3.4924  2.3697  0.7960
   43MOL   H29915503   3.436   0.900   1.805  2.9844 -0.5130 -1.3944
   43MOL   H30015504   3.280   0.650   1.881  0.9128 -0.2339  2.4547
   43MOL   H30115505   3.318   0.788   2.304 -1.8553  0.5984  0.3944
   43MOL   H30215506   3.193   0.660   2.304 -0.3113  0.2473  0.0100
   43MOL   H30315507   3.390   0.560   2.402  2.3483 -1.2235  0.5760
   43MOL   H30415508   3.396   0.512   2.232 -0.7354  0.6551 -1.6708
   43MOL   H30515509   3.610   0.590   2.341 -1.6779 -1.1844  1.6448
   43MOL   H30615510   3.542   0.738   2.392  1.0801 -3.1186  2.5695
   43MOL   H30715511   3.567   0.697   2.210 -1.0287 -0.7639 -1.1538
   43MOL   C30815512   3.158   0.819   1.846 -0.4801  0.4528  0.2340
   43MOL   C30915513   3.093   0.742   1.731  0.4140  0.1432  0.6899
   43MOL   C31015514   3.063   0.598   1.773  0.0432  0.4386 -0.1548
   43MOL   O31115515   3.127   0.506   1.718 -0.6120  0.2402  0.2446
   43MOL   O31215516   2.980   0.582   1.877 -0.6831  0.4726  0.0628
   43MOL   C31315517   2.953   0.452   1.932  0.2348 -0.3701 -0.0180
   43MOL   C31415518   3.043   0.414   2.052 -0.1415  0.0534  0.4679
   43MOL   C31515519   3.184   0.353   2.013 -0.1163 -0.3110 -0.1142
   43MOL   H31615520   3.170   0.926   1.826  0.0373  0.5275  0.9182
   43MOL   H31715521   3.091   0.819   1.932 -0.9948 -0.6823 -0.1623
   43MOL   H31815522   3.168   0.744   1.652 -0.1748  0.3915  0.1365
   43MOL   H31915523   2.847   0.452   1.958  0.9657  1.2369  3.0636
   43MOL   H32015524   2.964   0.379   1.852  2.9871  0.7479 -0.7083
   43MOL   H32115525   3.060   0.506   2.107  1.9407 -0.2610  0.3703
   43MOL   H32215526   2.989   0.332   2.100 -0.7190 -0.1075 -0.4321
   43MOL   H32315527   3.242   0.325   2.101  0.8359  0.3340 -0.5348
   43MOL   H32415528   3.186   0.273   1.938  2.6523  0.8702 -1.3679
   43MOL   H32515529   3.240   0.436   1.970 -0.6208  1.0670  1.8357
   43MOL   C32615530   2.962   0.799   1.673  0.0066  0.3323 -0.0162
   43MOL   C32715531   2.908   0.724   1.552  0.5296  0.4688 -0.3626
   43MOL   C32815532   2.768   0.680   1.579  0.0497 -0.6255 -0.3105
   43MOL   O32915533   2.746   0.561   1.609 -0.1644 -0.4144  0.7943
   43MOL   O33015534   2.673   0.769   1.581 -0.1608 -0.4888  0.4975
   43MOL   C33115535   2.535   0.723   1.579 -0.4891 -0.4481 -0.1902
   43MOL   C33215536   2.452   0.824   1.492 -0.4035  0.7545 -0.0778
   43MOL   C33315537   2.427   0.958   1.570  0.4724 -0.4600 -0.0013
   43MOL   H33415538   2.970   0.906   1.654 -1.8695  0.0548 -2.6456
   43MOL   H33515539   2.892   0.776   1.753  0.7133 -0.8726  0.2524
   43MOL   H33615540   2.959   0.632   1.525 -1.0422 -0.2776 -0.8960
   43MOL   H33715541   2.528   0.625   1.532 -1.0887 -1.1023  1.2139
   43MOL   H33815542   2.496   0.712   1.681  1.6943  2.1609  0.9767
   43MOL   H33915543   2.510   0.844   1.402 -2.5437  0.8775 -1.4793
   43MOL   H34015544   2.355   0.778   1.476  0.2738 -0.8108  0.3032
   43MOL   H34115545   2.365   1.033   1.522  0.6598  1.6212  2.8571
   43MOL   H34215546   2.386   0.956   1.671 -0.3806 -1.5431 -0.3599
   43MOL   H34315547   2.518   1.018   1.580  1.5977 -2.4561  2.4281
   43MOL   C34415548   2.905   0.801   1.422  0.0628 -0.5615  0.0735
   43MOL   C34515549   3.041   0.802   1.352 -0.0141 -0.8702  0.1754
   43MOL   C34615550   3.041   0.883   1.222 -0.7671  0.3504  0.5233
   43MOL   O34715551   3.076   0.828   1.115 -0.0209  0.0213 -0.3886
   43MOL   O34815552   3.031   1.017   1.244  0.0995  0.5025 -0.2285
   43MOL   C34915553   3.043   1.099   1.127  0.4509 -0.0510 -0.1438
   43MOL   C35015554   3.018   1.250   1.143 -0.4383  0.2430 -0.1715
   43MOL   C35115555   3.034   1.322   1.011  0.6424 -0.5629 -0.2980
   43MOL   H35215556   2.876   0.904   1.440  2.4122 -0.0543  1.1846
   43MOL   H35315557   2.849   0.754   1.341 -2.1043  0.7039  0.8025
   43MOL   H35415558   3.070   0.698   1.340 -0.6508 -1.1328  0.8876
   43MOL   H35515559   3.140   1.075   1.083  0.9904 -0.7122  1.3296
   43MOL   H35615560   2.977   1.076   1.044  2.6221 -0.3932 -1.8242
   43MOL   H35715561   2.922   1.263   1.192  0.0374 -0.1895  0.8818
   43MOL   H35815562   3.079   1.309   1.211 -2.4552  2.2090 -0.0047
   43MOL   H35915563   3.031   1.430   1.027 -0.1448 -0.7950  1.2636
   43MOL   H36015564   3.131   1.292   0.971  2.1869  1.4684  1.7528
   43MOL   H36115565   2.960   1.284   0.941 -0.6957  0.5252  0.4865
   43MOL   H36215566   3.119   0.854   1.407  0.6746 -0.2705 -1.3189
   44MOL     C115567   6.232   2.689   5.523 -0.0104  0.1641  0.8554
   44MOL     C215568   6.101   2.774   5.543 -0.3258  0.1264 -0.2991
   44MOL     C315569   6.042   2.828   5.409  0.3827 -0.2070  0.2762
   44MOL     O415570   6.025   2.948   5.392 -0.3797 -0.1288  0.2478
   44MOL     O515571   6.019   2.734   5.319 -0.2626  0.0795  0.0329
   44MOL     C615572   5.933   2.752   5.213  0.5129 -0.2724 -0.1957
   44MOL     C715573   5.815   2.649   5.206  0.2335  0.7496 -0.2331
   44MOL     C815574   5.740   2.663   5.079  0.2659  0.3417  0.5255
   44MOL     H915575   6.276   2.711   5.426  0.4688  0.7367  1.1978
   44MOL    H1015576   6.301   2.697   5.608 -1.0016  0.1439  1.6731
   44MOL    H1115577   6.134   2.860   5.601  1.7934 -1.0722  0.2996
   44MOL    H1215578   5.882   2.846   5.233 -0.1937 -1.0317  1.7578
   44MOL    H1315579   5.975   2.764   5.113 -2.1638 -0.2055 -1.3310
   44MOL    H1415580   5.851   2.550   5.232 -0.8845  0.7929  1.5880
   44MOL    H1515581   5.745   2.674   5.286  0.5820  1.5570 -0.1691
   44MOL    H1615582   5.689   2.760   5.077 -0.1917  0.1053  0.6636
   44MOL    H1715583   5.812   2.650   4.998 -0.5468 -0.6959 -0.0354
   44MOL    H1815584   5.672   2.578   5.077 -1.2863  1.5672  0.2051
   44MOL    H1915585   6.202   2.584   5.521 -0.8661  0.4222  0.1003
   44MOL    C2015586   5.996   2.708   5.634 -0.0842  0.4312  0.1697
   44MOL    C2115587   5.864   2.786   5.654 -0.1027  0.2785 -0.1139
   44MOL    C2215588   5.750   2.697   5.711  0.4694  0.1294 -0.0130
   44MOL    O2315589   5.679   2.635   5.637  0.0495  0.7676 -0.1289
   44MOL    O2415590   5.756   2.674   5.845  0.1353  0.0605 -0.3706
   44MOL    C2515591   5.643   2.619   5.907  0.2728 -0.2049 -0.4609
   44MOL    C2615592   5.666   2.637   6.061 -0.4325 -0.0837  0.3666
   44MOL    C2715593   5.760   2.532   6.107 -0.5424  0.2363  0.0144
   44MOL    H2815594   6.044   2.693   5.730  0.4981 -1.4831 -0.3909
   44MOL    H2915595   5.957   2.617   5.590 -1.9470  1.0665  0.4902
   44MOL    H3015596   5.827   2.820   5.557 -0.7255  2.0192  0.7155
   44MOL    H3115597   5.554   2.669   5.869 -0.3252 -1.5505 -0.8821
   44MOL    H3215598   5.630   2.514   5.878  3.6033 -1.0793  0.9654
   44MOL    H3315599   5.708   2.737   6.073  1.8925 -1.2421  2.3156
   44MOL    H3415600   5.579   2.639   6.127 -0.0654 -0.1839  0.8566
   44MOL    H3515601   5.797   2.549   6.208  1.1250 -0.3550 -0.4804
   44MOL    H3615602   5.841   2.534   6.035 -1.4478  0.7446 -1.0107
   44MOL    H3715603   5.715   2.435   6.086 -1.5621  0.9114 -1.0066
   44MOL    C3815604   5.886   2.918   5.734  0.1687 -0.1726 -0.5711
   44MOL    C3915605   5.774   3.018   5.745  0.2538 -1.1287 -0.1883
   44MOL    C4015606   5.820   3.149   5.822  0.0699 -0.2214 -0.1428
   44MOL    O4115607   5.804   3.152   5.944 -0.2512  0.4422 -0.0114
   44MOL    O4215608   5.889   3.241   5.749  0.4540  0.0335  0.5965
   44MOL    C4315609   5.935   3.363   5.814  0.2137 -0.0735 -0.0799
   44MOL    C4415610   5.819   3.466   5.808  0.2904 -0.2621 -0.4421
   44MOL    C4515611   5.837   3.605   5.866 -0.6137  0.7335  0.6736
   44MOL    H4615612   5.969   2.976   5.693  1.3260 -1.1003  0.4108
   44MOL    H4715613   5.920   2.887   5.833 -1.6594  1.5013  0.6226
   44MOL    H4815614   5.702   2.964   5.807  2.7082 -2.3945  1.6113
   44MOL    H4915615   5.977   3.343   5.912  0.4069  1.0495  0.0786
   44MOL    H5015616   6.013   3.408   5.752  0.2067  0.3356  0.2052
   44MOL    H5115617   5.800   3.481   5.702  0.5762  0.3995 -0.4081
   44MOL    H5215618   5.725   3.422   5.840  0.5854 -0.0977  0.6852
   44MOL    H5315619   5.748   3.660   5.836  0.0450  0.3540 -2.1426
   44MOL    H5415620   5.923   3.656   5.821  1.7147 -2.7171  1.0028
   44MOL    H5515621   5.858   3.600   5.972  0.8617 -1.5906  0.2949
   44MOL    C5615622   5.691   3.050   5.618 -0.1929  0.3667 -0.6497
   44MOL    C5715623   5.553   2.980   5.598 -0.4106  0.1692  0.6716
   44MOL    C5815624   5.453   3.026   5.697  0.0614  0.2149 -0.5565
   44MOL    O5915625   5.383   3.122   5.669 -0.4623  0.0735 -0.3631
   44MOL    O6015626   5.458   2.966   5.822  0.4252  0.2381  0.1519
   44MOL    C6115627   5.366   3.016   5.924  0.1392  0.6431  0.2442
   44MOL    C6215628   5.405   2.965   6.057  0.0863 -0.3360  0.5144
   44MOL    C6315629   5.555   3.003   6.093  0.3315 -0.0182 -0.8518
   44MOL    H6415630   5.754   3.025   5.534 -2.1710 -3.0049 -1.2275
   44MOL    H6515631   5.683   3.159   5.612  2.7744  0.6289 -0.4661
   44MOL    H6615632   5.572   2.874   5.618 -1.4824 -0.1064  0.2495
   44MOL    H6715633   5.366   3.125   5.921 -2.2370  0.6280 -2.4297
   44MOL    H6815634   5.268   2.982   5.893  0.6782  0.0586 -0.8576
   44MOL    H6915635   5.361   3.033   6.131  0.4467  0.6167 -0.1286
   44MOL    H7015636   5.373   2.863   6.079  0.2687 -0.4439  0.2684
   44MOL    H7115637   5.572   3.107   6.065  0.6226  0.7952  2.2424
   44MOL    H7215638   5.622   2.928   6.050  3.0663  1.2799  1.0943
   44MOL    H7315639   5.574   3.002   6.200  1.9118 -1.8812 -1.1127
   44MOL    C7415640   5.508   3.008   5.460 -0.1858  0.2679  0.4405
   44MOL    C7515641   5.410   2.901   5.406  0.3794  0.4162 -0.4113
   44MOL    C7615642   5.330   2.959   5.292  0.1371  0.2490 -0.0877
   44MOL    O7715643   5.210   2.953   5.287 -0.1630  0.0517  0.5694
   44MOL    O7815644   5.401   2.995   5.178  0.3116  0.6666  0.3697
   44MOL    C7915645   5.331   3.005   5.054 -0.8337 -0.0938  0.2946
   44MOL    C8015646   5.420   3.039   4.935 -0.2734 -0.9274  0.4891
   44MOL    C8115647   5.349   3.035   4.791  0.0924 -0.1832  0.9456
   44MOL    H8215648   5.594   2.998   5.394 -0.1244  0.8251  0.4308
   44MOL    H8315649   5.470   3.110   5.450 -0.0931  0.2524 -0.0925
   44MOL    H8415650   5.331   2.890   5.480  0.0221  0.2011 -0.8172
   44MOL    H8515651   5.287   2.907   5.035  0.6813 -1.0048  1.4314
   44MOL    H8615652   5.246   3.073   5.060 -0.4850  0.3010  0.9270
   44MOL    H8715653   5.459   3.140   4.942 -1.9486 -0.2774  0.6712
   44MOL    H8815654   5.504   2.972   4.916  1.1893  1.0191 -0.0894
   44MOL    H8915655   5.432   3.045   4.721 -0.4660  0.2967  0.3376
   44MOL    H9015656   5.290   3.125   4.773  0.8822  0.0982 -0.2658
   44MOL    H9115657   5.290   2.949   4.759  0.5277 -0.8418  1.8849
   44MOL    C9215658   5.474   2.766   5.380  0.4919  0.2937  0.3351
   44MOL    C9315659   5.381   2.638   5.406  0.9202 -0.4640  0.4297
   44MOL    C9415660   5.252   2.632   5.324 -0.4962 -0.6045 -0.3377
   44MOL    O9515661   5.145   2.612   5.375  0.1328 -0.1136 -0.3749
   44MOL    O9615662   5.276   2.644   5.191  0.7547 -0.1007 -0.2707
   44MOL    C9715663   5.161   2.642   5.106  0.0858 -0.1338 -0.5771
   44MOL    C9815664   5.176   2.666   4.958  0.0384  0.3629 -0.3274
   44MOL    C9915665   5.277   2.566   4.916 -0.1116 -0.0837  0.4484
   44MOL   H10015666   5.572   2.757   5.427  0.7067 -0.3851 -0.2310
   44MOL   H10115667   5.504   2.760   5.276 -2.0004 -1.0060 -0.3490
   44MOL   H10215668   5.353   2.649   5.510 -0.3888 -0.9073  0.1410
   44MOL   H10315669   5.113   2.544   5.112 -1.7949  0.8103  0.2591
   44MOL   H10415670   5.088   2.720   5.126  2.4562  1.2394  3.3650
   44MOL   H10515671   5.082   2.641   4.907 -0.6557  2.0905  0.0742
   44MOL   H10615672   5.191   2.772   4.936 -1.2189  0.5078 -0.5563
   44MOL   H10715673   5.364   2.602   4.971 -1.7818  1.9437  1.8373
   44MOL   H10815674   5.298   2.552   4.810 -0.1307 -1.5816  0.6216
   44MOL   H10915675   5.242   2.470   4.955 -1.9034 -0.3507 -1.7161
   44MOL   C11015676   5.476   2.514   5.389 -0.1160 -0.3582 -0.0634
   44MOL   C11115677   5.468   2.402   5.492 -0.1880 -0.1938  0.3107
   44MOL   C11215678   5.336   2.339   5.503 -0.4020  0.1019  0.1921
   44MOL   O11315679   5.275   2.317   5.610  0.0445 -0.0678 -0.9581
   44MOL   O11415680   5.296   2.314   5.385  0.1237  0.3399 -0.8139
   44MOL   C11515681   5.167   2.256   5.371  0.0589 -0.7933  0.3622
   44MOL   C11615682   5.160   2.135   5.288 -0.4164 -0.5278  0.4794
   44MOL   C11715683   5.254   2.018   5.338  0.6199  0.1407 -0.1127
   44MOL   H11815684   5.579   2.548   5.395 -0.3099 -0.0046  1.4276
   44MOL   H11915685   5.457   2.472   5.290  1.6543  0.8420 -0.9371
   44MOL   H12015686   5.486   2.448   5.590 -2.5090  2.3593 -0.4096
   44MOL   H12115687   5.117   2.236   5.466  0.5216  1.5318  1.1320
   44MOL   H12215688   5.105   2.332   5.323 -1.0291 -0.3952  2.3556
   44MOL   H12315689   5.057   2.099   5.290  0.0627 -1.8977  1.1180
   44MOL   H12415690   5.200   2.157   5.189 -0.8422 -0.4866  0.3154
   44MOL   H12515691   5.223   1.930   5.282  0.4049  1.2205 -1.7219
   44MOL   H12615692   5.246   2.011   5.447  0.3138 -1.9231 -0.2645
   44MOL   H12715693   5.360   2.033   5.320  0.4296  0.4643 -1.0084
   44MOL   C12815694   5.565   2.287   5.462 -0.2251  0.4321  0.0330
   44MOL   C12915695   5.717   2.327   5.482  0.3701 -0.1863  0.4231
   44MOL   C13015696   5.752   2.318   5.630  0.4755  0.0675 -0.1099
   44MOL   O13115697   5.672   2.288   5.719 -0.0821 -0.1789  0.3735
   44MOL   O13215698   5.882   2.362   5.657  0.0343  0.3312  0.0928
   44MOL   C13315699   5.925   2.383   5.790  1.0710 -0.2336  0.6211
   44MOL   C13415700   6.081   2.382   5.779 -0.3675  0.5873  0.4855
   44MOL   C13515701   6.140   2.239   5.733 -0.0728  0.7344  0.3010
   44MOL   H13615702   5.560   2.259   5.357  0.3190  2.8281 -0.6390
   44MOL   H13715703   5.546   2.198   5.523  0.3960 -0.2716 -0.7904
   44MOL   H13815704   5.724   2.428   5.443  0.5274 -0.5235 -0.4319
   44MOL   H13915705   5.886   2.476   5.831  0.3740  0.1972 -0.9622
   44MOL   H14015706   5.894   2.307   5.862  0.3337 -0.0605  0.4950
   44MOL   H14115707   6.115   2.457   5.708 -0.1036 -0.7124 -0.7741
   44MOL   H14215708   6.129   2.422   5.868 -1.5656  0.7219  1.0848
   44MOL   H14315709   6.092   2.200   5.644  1.2012 -1.4570  0.5546
   44MOL   H14415710   6.124   2.182   5.824  1.5519 -0.1587  0.0326
   44MOL   H14515711   6.248   2.250   5.726 -0.1112  0.4116 -0.8416
   44MOL   C14615712   5.814   2.246   5.391 -0.2370 -0.2593  0.2970
   44MOL   C14715713   5.861   2.108   5.451  0.0566 -0.5058  0.2879
   44MOL   C14815714   5.731   2.016   5.471  0.5871  0.0428 -0.1137
   44MOL   O14915715   5.661   1.988   5.376  0.3027 -0.2792  0.2328
   44MOL   O15015716   5.726   1.978   5.597 -0.1934  0.5559  0.2243
   44MOL   C15115717   5.626   1.885   5.642  0.0684  0.2057 -0.3776
   44MOL   C15215718   5.489   1.959   5.670  0.3155 -1.4487 -0.6344
   44MOL   C15315719   5.380   1.885   5.739 -0.4203  0.2643 -0.1516
   44MOL   H15415720   5.908   2.299   5.375  0.5315 -1.6329  0.2268
   44MOL   H15515721   5.783   2.244   5.286  2.4827 -3.0573 -0.5146
   44MOL   H15615722   5.910   2.147   5.540 -0.0129 -0.6857  0.4070
   44MOL   H15715723   5.599   1.802   5.577 -0.2760 -1.6845  2.0907
   44MOL   H15815724   5.676   1.842   5.729  0.6454  2.1466  0.2698
   44MOL   H15915725   5.512   2.039   5.740 -1.2226 -2.4385  1.0592
   44MOL   H16015726   5.444   2.021   5.592  0.9885  0.0419  0.1499
   44MOL   H16115727   5.413   1.814   5.815  0.3143  2.4021  1.5856
   44MOL   H16215728   5.305   1.834   5.677 -1.9823  0.1107  1.8182
   44MOL   H16315729   5.311   1.951   5.790 -2.1140  0.1376 -2.1866
   44MOL   C16415730   5.958   2.034   5.356 -0.6091  0.1110  0.2041
   44MOL   C16515731   6.010   1.899   5.417 -0.6976  0.0374 -0.3062
   44MOL   C16615732   6.004   1.784   5.317 -0.9872 -0.2455  0.9008
   44MOL   O16715733   6.092   1.693   5.305 -0.5856 -0.5524 -0.5634
   44MOL   O16815734   5.892   1.785   5.242 -0.1105 -0.8465  0.1002
   44MOL   C16915735   5.866   1.688   5.146  0.2365  0.9200 -1.0019
   44MOL   C17015736   5.716   1.690   5.100  0.0223  0.3314 -0.0386
   44MOL   C17115737   5.613   1.651   5.203  0.0401  0.7071 -0.7837
   44MOL   H17215738   6.051   2.089   5.343 -0.0632 -0.7421  0.4747
   44MOL   H17315739   5.918   2.025   5.254  2.0729 -2.5891 -0.6511
   44MOL   H17415740   5.936   1.870   5.492  0.0431  0.1806  0.4855
   44MOL   H17515741   5.938   1.696   5.065  0.3772 -0.0492 -0.9781
   44MOL   H17615742   5.888   1.594   5.197 -0.0935  0.9192 -0.8572
   44MOL   H17715743   5.698   1.789   5.058 -2.0740  0.4651  1.1119
   44MOL   H17815744   5.715   1.619   5.017 -2.5890  1.0296 -0.6388
   44MOL   H17915745   5.622   1.543   5.210 -0.1258  0.8166  1.5114
   44MOL   H18015746   5.508   1.663   5.175  0.4971  0.5521 -2.5748
   44MOL   H18115747   5.632   1.690   5.303  1.5589 -1.0360 -0.3650
   44MOL   C18215748   6.144   1.920   5.495  0.1099  0.5865  0.4936
   44MOL   C18315749   6.198   1.807   5.580 -0.3288 -0.3444 -0.3339
   44MOL   C18415750   6.340   1.842   5.617  0.3318  0.1678  0.5137
   44MOL   O18515751   6.429   1.792   5.556 -0.2444 -0.0752 -0.3391
   44MOL   O18615752   6.353   1.933   5.712 -0.1249 -0.1042  0.0896
   44MOL   C18715753   6.485   1.962   5.755 -0.5053  0.7973 -0.5414
   44MOL   C18815754   6.486   2.072   5.862 -0.8461  0.4636  0.4868
   44MOL   C18915755   6.635   2.115   5.899  0.8366  0.2828  0.0883
   44MOL   H19015756   6.145   2.016   5.547 -1.0912  0.5700  0.5665
   44MOL   H19115757   6.217   1.944   5.417 -1.3272 -2.5849 -1.9190
   44MOL   H19215758   6.205   1.718   5.518  1.2776  0.6133 -1.5666
   44MOL   H19315759   6.516   1.863   5.791 -0.2715  0.9637 -0.2869
   44MOL   H19415760   6.549   1.987   5.670 -1.5812  1.4114 -1.1828
   44MOL   H19515761   6.425   2.154   5.824 -1.8964 -0.9723 -1.0017
   44MOL   H19615762   6.430   2.038   5.949 -0.0081  0.1383  0.9018
   44MOL   H19715763   6.625   2.210   5.953 -2.4034 -0.0690  0.2232
   44MOL   H19815764   6.694   2.121   5.808 -0.6519 -2.0381 -1.0528
   44MOL   H19915765   6.677   2.040   5.966  0.2401  0.1504  0.3207
   44MOL   C20015766   6.106   1.771   5.700 -0.1686 -0.1063 -0.3474
   44MOL   C20115767   6.149   1.653   5.791  0.1605  0.2174  0.7997
   44MOL   C20215768   6.262   1.684   5.889  0.1138  0.8069 -0.5032
   44MOL   O20315769   6.237   1.723   6.001  0.1320 -0.3412 -0.1162
   44MOL   O20415770   6.384   1.634   5.860 -0.7876 -0.1312 -0.0093
   44MOL   C20515771   6.488   1.647   5.954  0.7501  0.2111  0.0210
   44MOL   C20615772   6.628   1.584   5.904  0.3830 -0.0532 -0.3421
   44MOL   C20715773   6.693   1.666   5.791  0.8587 -0.3472 -0.2198
   44MOL   H20815774   6.008   1.743   5.661  0.4039 -1.5089 -0.8247
   44MOL   H20915775   6.105   1.857   5.766 -2.5801 -0.7634  0.5324
   44MOL   H21015776   6.189   1.574   5.728 -0.7644  1.3584 -1.2641
   44MOL   H21115777   6.508   1.752   5.975  0.3464  0.2121  0.3860
   44MOL   H21215778   6.465   1.588   6.042  3.3506 -2.1397 -0.7743
   44MOL   H21315779   6.695   1.586   5.989  0.0519  1.2284 -0.0946
   44MOL   H21415780   6.615   1.478   5.880 -0.5920  0.5673 -2.6487
   44MOL   H21515781   6.719   1.766   5.828 -2.7992  1.0168 -1.1538
   44MOL   H21615782   6.622   1.683   5.710  0.1097 -0.6204  0.3747
   44MOL   H21715783   6.782   1.614   5.756 -0.1975 -2.6152  0.3663
   44MOL   C21815784   6.020   1.586   5.850  0.2369  0.5374 -1.5152
   44MOL   C21915785   6.008   1.435   5.798  0.0919 -0.0487 -0.3840
   44MOL   C22015786   6.110   1.343   5.874  0.7389 -1.1118  0.0893
   44MOL   O22115787   6.200   1.295   5.813 -0.2422  0.2492 -0.6175
   44MOL   O22215788   6.088   1.330   6.007 -0.0385  0.4679  0.0763
   44MOL   C22315789   6.186   1.255   6.083  0.8152  0.3734  0.3328
   44MOL   C22415790   6.327   1.322   6.107  0.5306  0.0058 -0.2204
   44MOL   C22515791   6.335   1.433   6.217  0.9135 -0.2110  0.3666
   44MOL   H22615792   5.927   1.641   5.839 -0.9152 -1.0659 -0.0131
   44MOL   H22715793   6.037   1.587   5.958  1.4429  1.1240 -1.6974
   44MOL   H22815794   6.041   1.431   5.695 -1.0207  0.6174 -0.7680
   44MOL   H22915795   6.145   1.234   6.181  0.9994 -0.6481  0.1986
   44MOL   H23015796   6.217   1.161   6.035 -1.0337 -0.2799  0.4032
   44MOL   H23115797   6.401   1.247   6.135 -1.4131 -1.8604  0.0654
   44MOL   H23215798   6.356   1.360   6.009 -1.1204 -0.0181 -0.7361
   44MOL   H23315799   6.316   1.534   6.181  0.7249 -0.5477 -0.4910
   44MOL   H23415800   6.443   1.439   6.230  0.7683  1.9674  0.7693
   44MOL   H23515801   6.284   1.409   6.310 -0.9653 -3.4237 -1.4189
   44MOL   C23615802   5.867   1.376   5.805  0.3045 -0.5140  0.7354
   44MOL   C23715803   5.760   1.441   5.710  0.6436  0.3239  0.0294
   44MOL   C23815804   5.808   1.451   5.568  0.8435  0.8811  0.2266
   44MOL   O23915805   5.831   1.559   5.514  0.6716  0.1933  0.5939
   44MOL   O24015806   5.829   1.332   5.509  0.3182 -1.2194  0.0386
   44MOL   C24115807   5.848   1.327   5.367  0.0721  0.2261 -0.1944
   44MOL   C24215808   5.772   1.224   5.288  0.1595 -0.5993  0.2386
   44MOL   C24315809   5.826   1.084   5.301 -0.7480 -0.0718 -0.1265
   44MOL   H24415810   5.825   1.397   5.903  1.1774  0.2732  0.9468
   44MOL   H24515811   5.859   1.268   5.788 -1.3355 -0.0381 -1.8386
   44MOL   H24615812   5.759   1.546   5.740  0.0416  0.6874 -1.2506
   44MOL   H24715813   5.813   1.423   5.328 -1.7177 -0.4116 -0.2036
   44MOL   H24815814   5.953   1.305   5.348  0.6521  2.1578  0.5928
   44MOL   H24915815   5.667   1.216   5.318  0.3704 -0.1520  1.1187
   44MOL   H25015816   5.768   1.251   5.183 -2.3692 -0.1221  0.4258
   44MOL   H25115817   5.916   1.060   5.245 -1.2209 -1.0866 -0.4500
   44MOL   H25215818   5.751   1.015   5.264 -2.3661  0.9821  1.1288
   44MOL   H25315819   5.854   1.070   5.406 -0.2084  2.0500  0.0392
   44MOL   C25415820   5.616   1.389   5.723 -0.3707  0.3518 -0.0172
   44MOL   C25515821   5.501   1.492   5.699 -1.1215  0.0568 -0.2575
   44MOL   C25615822   5.462   1.498   5.555 -0.2222  0.2067  0.2083
   44MOL   O25715823   5.512   1.431   5.465  0.1824  0.4578 -0.1585
   44MOL   O25815824   5.363   1.589   5.541  0.0688 -0.1447 -0.2318
   44MOL   C25915825   5.306   1.618   5.416 -0.1211  0.0042 -0.4919
   44MOL   C26015826   5.172   1.692   5.444  0.4019  0.5247 -0.3034
   44MOL   C26115827   5.067   1.595   5.498 -0.3945 -0.7023 -0.0938
   44MOL   H26215828   5.615   1.356   5.827 -1.7587  0.3188 -0.0190
   44MOL   H26315829   5.616   1.298   5.663  1.5715 -1.3657  2.5172
   44MOL   H26415830   5.537   1.590   5.730 -3.3929  0.5206  1.0514
   44MOL   H26515831   5.375   1.692   5.376  0.1272 -0.5998 -1.1921
   44MOL   H26615832   5.303   1.536   5.345 -1.0245 -0.4375  0.0443
   44MOL   H26715833   5.175   1.788   5.495 -0.5038  0.6134 -0.4066
   44MOL   H26815834   5.117   1.729   5.357 -1.3951 -0.9091  0.1655
   44MOL   H26915835   5.093   1.538   5.588 -2.1862 -0.1491  0.8090
   44MOL   H27015836   5.035   1.524   5.422 -1.1814  0.7153 -1.1006
   44MOL   H27115837   4.969   1.641   5.515 -0.2996 -0.3732 -0.4427
   44MOL   C27215838   5.384   1.478   5.796  0.2601  0.1498 -0.2599
   44MOL   C27315839   5.293   1.353   5.776 -0.3698  0.2089 -0.1660
   44MOL   C27415840   5.365   1.222   5.805  0.0347 -0.1778  0.3363
   44MOL   O27515841   5.413   1.194   5.912 -0.3126 -0.0586 -0.2438
   44MOL   O27615842   5.386   1.156   5.696  0.3087  0.4661 -0.1545
   44MOL   C27715843   5.496   1.059   5.692  0.6990 -0.2728  0.4591
   44MOL   C27815844   5.528   1.055   5.537 -0.2211  0.4388 -0.6538
   44MOL   C27915845   5.611   0.932   5.496  0.0735 -0.6014 -0.9546
   44MOL   H28015846   5.325   1.570   5.803  0.7309  0.4728 -0.4842
   44MOL   H28115847   5.430   1.475   5.895  1.5716  0.8653 -0.8320
   44MOL   H28215848   5.267   1.347   5.671  0.1714 -1.1284 -0.2378
   44MOL   H28315849   5.584   1.093   5.745  1.0595 -1.1986  0.4526
   44MOL   H28415850   5.462   0.964   5.732  1.8811 -1.4485 -1.2735
   44MOL   H28515851   5.434   1.056   5.481  0.2890 -0.5299 -1.5387
   44MOL   H28615852   5.582   1.148   5.516  0.8967  0.3768  1.8357
   44MOL   H28715853   5.611   0.921   5.388  1.6813 -0.4215 -0.9845
   44MOL   H28815854   5.563   0.839   5.526  0.8253 -0.2888  1.3796
   44MOL   H28915855   5.713   0.931   5.533  0.6935  0.8506 -2.5463
   44MOL   C29015856   5.162   1.374   5.853  0.5151 -0.4365 -0.0260
   44MOL   C29115857   5.062   1.256   5.852  0.0105  0.2819  0.0943
   44MOL   C29215858   4.949   1.295   5.954 -0.4765 -0.5137  0.2338
   44MOL   O29315859   4.920   1.229   6.051 -0.1860  0.2128  0.0121
   44MOL   O29415860   4.875   1.407   5.913 -0.3914  0.2161 -0.2106
   44MOL   C29515861   4.776   1.466   5.992 -0.4826  0.3202 -0.6317
   44MOL   C29615862   4.667   1.542   5.914  1.0781  0.5340  0.0037
   44MOL   C29715863   4.578   1.438   5.843 -0.1208 -0.9648  0.2550
   44MOL   H29815864   5.114   1.472   5.851 -0.2606 -0.7965  0.8014
   44MOL   H29915865   5.196   1.380   5.956  0.1820 -1.8118  0.1723
   44MOL   H30015866   5.101   1.173   5.912 -0.4777 -0.0475 -0.0443
   44MOL   H30115867   4.725   1.412   6.072 -1.3977  0.9111 -0.8076
   44MOL   H30215868   4.841   1.538   6.042  1.0245 -1.8852  0.6541
   44MOL   H30315869   4.614   1.599   5.991  1.3281  0.4365  0.2495
   44MOL   H30415870   4.709   1.619   5.849  0.4216 -0.0015 -1.0668
   44MOL   H30515871   4.485   1.494   5.830 -0.0911 -0.3727  2.3808
   44MOL   H30615872   4.549   1.352   5.904  1.2545 -0.8089  1.1420
   44MOL   H30715873   4.620   1.397   5.751 -1.5803 -0.2341 -0.7617
   44MOL   C30815874   5.001   1.216   5.713 -0.2208  0.3921  0.3119
   44MOL   C30915875   4.967   1.068   5.690  0.6967 -0.1389 -1.2334
   44MOL   C31015876   5.085   0.974   5.732  0.3672 -0.4643 -0.2098
   44MOL   O31115877   5.177   0.955   5.647  0.3240  0.0957  0.2155
   44MOL   O31215878   5.083   0.923   5.856 -0.0868 -0.6889 -0.1267
   44MOL   C31315879   5.211   0.864   5.902 -0.1105  0.4351 -0.3424
   44MOL   C31415880   5.202   0.837   6.053  0.7301 -0.3697 -0.1895
   44MOL   C31515881   5.203   0.970   6.136 -0.1398  0.2445  0.2173
   44MOL   H31615882   5.078   1.240   5.640 -1.1815  0.3985 -0.7089
   44MOL   H31715883   4.924   1.287   5.682  0.3285  0.1034 -1.7431
   44MOL   H31815884   4.956   1.049   5.584 -0.9510 -1.1479 -0.9083
   44MOL   H31915885   5.230   0.772   5.848  2.5791  1.0729 -0.5461
   44MOL   H32015886   5.302   0.922   5.888 -0.2870  1.3195  1.8714
   44MOL   H32115887   5.107   0.786   6.070  1.5912 -0.9217  3.3553
   44MOL   H32215888   5.283   0.771   6.087  1.1003 -0.3309 -0.9793
   44MOL   H32315889   5.294   1.030   6.131 -1.2573  1.8544 -1.3222
   44MOL   H32415890   5.120   1.031   6.102  0.0545 -0.6607 -2.0057
   44MOL   H32515891   5.179   0.947   6.240 -1.0723 -1.4921 -0.3648
   44MOL   C32615892   4.833   1.022   5.751  0.2148 -0.2580  0.0470
   44MOL   C32715893   4.707   1.075   5.685  0.4102  0.0383  0.7391
   44MOL   C32815894   4.684   1.014   5.543  0.6982 -0.2697 -0.7105
   44MOL   O32915895   4.660   1.087   5.444  0.2661  0.1476 -0.2808
   44MOL   O33015896   4.676   0.883   5.550  0.1380 -0.3951 -0.5156
   44MOL   C33115897   4.660   0.798   5.435  0.2486  0.2719  0.0824
   44MOL   C33215898   4.521   0.789   5.376  0.0358  0.2727 -0.1842
   44MOL   C33315899   4.423   0.697   5.458  0.7139 -0.5541  0.0903
   44MOL   H33415900   4.825   1.032   5.859 -0.6368 -5.0237  0.5657
   44MOL   H33515901   4.828   0.913   5.741  0.8360 -0.4514  1.7157
   44MOL   H33615902   4.722   1.182   5.668 -0.0356 -0.0587 -0.3293
   44MOL   H33715903   4.731   0.824   5.357  0.2195  0.0338 -0.0239
   44MOL   H33815904   4.686   0.700   5.475 -3.1824 -0.7825 -0.0458
   44MOL   H33915905   4.481   0.888   5.354 -0.8653 -0.3254 -1.2811
   44MOL   H34015906   4.515   0.762   5.271 -0.6481  1.3939 -0.4425
   44MOL   H34115907   4.323   0.735   5.434  0.0689 -3.2118 -1.7360
   44MOL   H34215908   4.431   0.597   5.415  0.3396 -0.5806  0.0762
   44MOL   H34315909   4.446   0.711   5.563 -2.7770  0.9031  0.7371
   44MOL   C34415910   4.578   1.074   5.764 -0.4139  0.5474  0.5348
   44MOL   C34515911   4.445   1.124   5.695 -0.3649  0.4571  0.3026
   44MOL   C34615912   4.325   1.038   5.719 -0.0219 -0.1388  0.2122
   44MOL   O34715913   4.258   0.987   5.626 -0.6368  0.2166 -0.3790
   44MOL   O34815914   4.305   1.036   5.849  0.4135  0.1306  0.2049
   44MOL   C34915915   4.181   0.991   5.896  0.3157 -0.3219 -0.4845
   44MOL   C35015916   4.194   0.995   6.052 -0.0401 -0.4755 -0.0067
   44MOL   C35115917   4.279   0.888   6.118  0.2347  0.9821  0.5871
   44MOL   H35215918   4.587   1.134   5.854  0.8140  1.8220 -0.4189
   44MOL   H35315919   4.556   0.977   5.808  0.3236  0.4888  0.7776
   44MOL   H35415920   4.440   1.108   5.587 -2.7484 -2.6668  0.8277
   44MOL   H35515921   4.098   1.060   5.882 -1.3325 -2.5606 -1.9967
   44MOL   H35615922   4.144   0.891   5.872 -1.1424 -0.4146  1.9379
   44MOL   H35715923   4.236   1.092   6.082  1.4572 -1.5008  1.2999
   44MOL   H35815924   4.093   0.988   6.091 -0.5724  1.5272 -0.9292
   44MOL   H35915925   4.226   0.792   6.123  1.8082  0.1849  2.3337
   44MOL   H36015926   4.371   0.880   6.060  0.0757 -0.4652  0.5034
   44MOL   H36115927   4.296   0.906   6.223  0.0054  1.5329  0.5290
   44MOL   H36215928   4.416   1.228   5.707 -0.9058  0.4714 -0.9917
   45MOL     C115929   0.609   1.234   7.466 -0.8190 -0.0103  0.1411
   45MOL     C215930   0.573   1.386   7.442  0.9650 -0.4046 -0.3522
   45MOL     C315931   0.420   1.401   7.457 -0.0332 -0.1512 -0.5088
   45MOL     O415932   0.339   1.395   7.365 -0.8247  0.4999 -0.0754
   45MOL     O515933   0.381   1.403   7.592 -0.5783 -0.3506  0.2201
   45MOL     C615934   0.244   1.383   7.622  0.3921  0.4511  0.7310
   45MOL     C715935   0.232   1.378   7.765  0.3355  0.4481 -0.2096
   45MOL     C815936   0.239   1.514   7.831 -0.5549  1.0585 -0.6866
   45MOL     H915937   0.594   1.216   7.572  0.8335 -0.4215  0.3179
   45MOL    H1015938   0.536   1.170   7.417 -0.0496 -0.2503 -0.7165
   45MOL    H1115939   0.585   1.401   7.335  1.9673  0.6278 -0.0961
   45MOL    H1215940   0.185   1.464   7.578 -0.2231 -0.7250 -0.6511
   45MOL    H1315941   0.212   1.293   7.570  1.0974  0.4057  0.3658
   45MOL    H1415942   0.136   1.341   7.801  1.4807 -1.9019  0.5655
   45MOL    H1515943   0.313   1.324   7.813 -1.2822 -0.3439  1.7303
   45MOL    H1615944   0.338   1.559   7.838  0.9880 -1.6624 -3.4299
   45MOL    H1715945   0.183   1.592   7.779 -0.0078  1.8282 -0.1299
   45MOL    H1815946   0.210   1.519   0.055 -0.9290  2.5490 -0.8476
   45MOL    H1915947   0.714   1.210   7.446 -1.1118 -1.4983  0.3024
   45MOL    C2015948   0.660   1.479   7.531 -0.0884 -0.5749  0.1762
   45MOL    C2115949   0.811   1.504   7.502 -0.2226  0.3026  0.1439
   45MOL    C2215950   0.846   1.556   7.356 -0.1744 -0.5440  0.1152
   45MOL    O2315951   0.945   1.520   7.297  0.4226 -0.1997  0.1612
   45MOL    O2415952   0.763   1.657   7.314 -0.9211  0.6163 -0.4457
   45MOL    C2515953   0.782   1.720   7.193  0.1662  0.5876  0.0021
   45MOL    C2615954   0.681   1.672   7.088 -0.1661  0.4368 -0.3358
   45MOL    C2715955   0.554   1.751   7.108  0.5545  0.0091  0.6345
   45MOL    H2815956   0.650   1.446   7.634  0.3802 -0.8508  0.1287
   45MOL    H2915957   0.605   1.573   7.545  0.4170 -0.3859  0.8639
   45MOL    H3015958   0.861   1.407   7.507  0.0400  0.4570  0.5257
   45MOL    H3115959   0.771   1.828   7.201  2.3951  0.7683  1.0789
   45MOL    H3215960   0.886   1.714   7.158  0.1051 -0.2909 -0.0438
   45MOL    H3315961   0.701   1.683   6.981 -1.7407  0.5413 -0.6307
   45MOL    H3415962   0.662   1.567   7.066 -1.3016  1.2381 -3.4978
   45MOL    H3515963   0.562   1.860   7.106 -1.6106  0.2176  1.1818
   45MOL    H3615964   0.502   1.732   7.202  3.0620 -0.4960  1.9448
   45MOL    H3715965   0.481   1.712   7.036  0.6517 -0.0975  0.5956
   45MOL    C3815966   0.874   1.608   7.600  0.5551 -0.0090 -0.0002
   45MOL    C3915967   0.876   1.563   7.754  0.3679 -0.2055  0.0721
   45MOL    C4015968   0.926   1.420   7.771  0.7542  0.0263 -0.6334
   45MOL    O4115969   0.854   1.335   7.820 -0.1757 -0.2322 -0.5217
   45MOL    O4215970   1.061   1.406   7.764 -0.3769  0.3564  0.1249
   45MOL    C4315971   1.130   1.293   7.809 -0.1766 -0.5250 -0.1501
   45MOL    C4415972   1.227   1.252   7.701  0.1003  0.5669 -0.1356
   45MOL    C4515973   1.170   1.215   7.561 -0.1758 -0.0681  0.2164
   45MOL    H4615974   0.810   1.696   7.595 -0.3241 -0.6929 -1.1089
   45MOL    H4715975   0.978   1.631   7.574  0.4831 -0.1518 -0.4097
   45MOL    H4815976   0.772   1.566   7.786  0.6237 -0.5350  0.9351
   45MOL    H4915977   1.184   1.324   0.019  1.0092  0.5001 -1.1869
   45MOL    H5015978   1.074   1.208   7.849 -0.4682 -0.9949 -1.5258
   45MOL    H5115979   1.307   1.326   7.696  2.4493 -1.7018  2.3969
   45MOL    H5215980   1.279   1.164   7.737 -0.1836 -0.3320 -1.8391
   45MOL    H5315981   1.091   1.141   7.573 -1.4598  1.2834  0.3611
   45MOL    H5415982   1.240   1.166   7.494  1.1063  3.4549 -1.1708
   45MOL    H5515983   1.142   1.307   7.509  1.4495  0.5258  0.3580
   45MOL    C5615984   0.959   1.670   7.836  0.3873  0.7394  0.3123
   45MOL    C5715985   0.942   1.688   0.105  0.1945 -0.4441 -0.0874
   45MOL    C5815986   0.812   1.756   0.153 -0.2031  0.4560  0.0576
   45MOL    O5915987   0.700   1.714   0.122 -0.3400  0.2983  0.0881
   45MOL    O6015988   0.836   1.860   0.243 -0.0958  0.1906  0.4470
   45MOL    C6115989   0.728   1.942   0.301  0.4626  0.1784 -0.3573
   45MOL    C6215990   0.784   2.019   0.429 -0.9089 -0.2020  0.0637
   45MOL    C6315991   0.931   2.071   0.408  0.5831  0.2230  0.1673
   45MOL    H6415992   0.919   1.762   7.792  1.3363  0.0700 -2.0225
   45MOL    H6515993   1.064   1.668   7.807  0.2215  0.4984 -0.2755
   45MOL    H6615994   1.020   1.756   0.138  0.4580  0.1932 -1.9323
   45MOL    H6715995   0.684   2.002   0.222  0.1506  0.5056  0.0566
   45MOL    H6815996   0.656   1.867   0.336  2.4395 -1.0290  1.1959
   45MOL    H6915997   0.727   2.107   0.457 -1.5799 -0.6167 -0.0108
   45MOL    H7015998   0.782   1.944   0.508 -0.4162  1.7325  1.9506
   45MOL    H7115999   0.964   2.125   0.497 -1.0314 -2.2605  2.3261
   45MOL    H7216000   0.939   2.140   0.324  0.3269 -0.4092 -0.3800
   45MOL    H7316001   0.999   1.988   0.389  0.1562 -0.1354  0.2099
   45MOL    C7416002   0.962   1.566   0.191  0.2125  0.5054  0.7738
   45MOL    C7516003   0.986   1.581   0.344 -0.6537 -0.7540 -0.3082
   45MOL    C7616004   0.994   1.446   0.416 -0.0758 -0.8327 -0.5614
   45MOL    O7716005   0.913   1.413   0.502 -0.3092  0.4998 -0.3289
   45MOL    O7816006   1.100   1.375   0.377 -0.1426  0.1385  0.1739
   45MOL    C7916007   1.121   1.253   0.435  0.5603  0.0303 -0.5882
   45MOL    C8016008   1.202   1.262   0.555 -0.1995 -0.4931  0.3006
   45MOL    C8116009   1.246   1.128   0.622 -0.4755 -0.1243 -0.7162
   45MOL    H8216010   1.057   1.526   0.155  0.8151  1.3923  1.3285
   45MOL    H8316011   0.885   1.491   0.179  0.2408  0.3306  1.6345
   45MOL    H8416012   0.889   1.611   0.383 -0.9960 -1.0997 -0.9002
   45MOL    H8516013   1.029   1.200   0.462  0.0328  1.2849  0.1626
   45MOL    H8616014   1.169   1.192   0.359  2.2304 -1.3137  1.5003
   45MOL    H8716015   1.296   1.311   0.530  0.2190 -1.4919 -0.1064
   45MOL    H8816016   1.151   1.327   0.627 -0.4079 -1.0594  0.6649
   45MOL    H8916017   1.323   1.083   0.558  0.3973  0.6358 -0.2133
   45MOL    H9016018   1.166   1.056   0.632 -1.0377  0.7218  1.0317
   45MOL    H9116019   1.301   1.129   0.716  2.7621  1.2406 -2.5281
   45MOL    C9216020   1.103   1.676   0.385 -0.0481 -0.5784  0.0214
   45MOL    C9316021   1.128   1.700   0.541 -0.4282 -0.7832  0.1600
   45MOL    C9416022   1.252   1.784   0.565 -0.3576  0.1992 -0.6453
   45MOL    O9516023   1.349   1.743   0.628  0.4170 -0.1003  0.5047
   45MOL    O9616024   1.242   1.908   0.517  0.7364  0.4417 -0.6352
   45MOL    C9716025   1.339   2.015   0.532  0.4347 -0.1048  0.8622
   45MOL    C9816026   1.266   2.148   0.524 -1.4219  0.4593 -0.2882
   45MOL    C9916027   1.366   2.258   0.523  0.9248  0.0152  0.0446
   45MOL   H10016028   1.079   1.768   0.330 -1.1103 -0.6584  0.3473
   45MOL   H10116029   1.202   1.656   0.343  0.1835 -1.3502  0.9355
   45MOL   H10216030   1.146   1.600   0.581 -4.1876 -0.8001  1.9736
   45MOL   H10316031   1.383   2.012   0.631  1.2015 -1.3724  0.5047
   45MOL   H10416032   1.429   2.015   0.470 -1.4880  1.0335 -2.0434
   45MOL   H10516033   1.211   2.145   0.429 -1.8986  0.6749 -0.0188
   45MOL   H10616034   1.194   2.160   0.605 -0.5460  0.6905  0.4502
   45MOL   H10716035   1.409   2.270   0.622 -0.9437  0.3032  0.8220
   45MOL   H10816036   1.321   2.351   0.489  2.2514  0.2161 -1.2605
   45MOL   H10916037   1.444   2.240   0.448  1.2714 -1.0303  0.6566
   45MOL   C11016038   1.000   1.739   0.614  0.4115  0.1297  0.4667
   45MOL   C11116039   1.016   1.732   0.764 -0.5210 -0.8036 -0.9811
   45MOL   C11216040   0.889   1.804   0.819 -0.1946 -0.0510  0.4644
   45MOL   O11316041   0.775   1.760   0.802  0.1976  0.5834  0.0595
   45MOL   O11416042   0.931   1.913   0.888  0.4624  1.0614 -0.4395
   45MOL   C11516043   0.835   2.007   0.936  0.0715  0.2796  0.0159
   45MOL   C11616044   0.849   2.138   0.854 -0.5300 -0.3226 -0.1331
   45MOL   C11716045   0.992   2.195   0.855  0.4123  0.8194 -0.1579
   45MOL   H11816046   0.923   1.664   0.597 -3.1822  3.1248  2.4960
   45MOL   H11916047   0.953   1.829   0.574  1.8562  0.7744  0.2066
   45MOL   H12016048   1.101   1.793   0.793 -1.3403 -0.3451  0.5490
   45MOL   H12116049   0.730   1.978   0.927 -0.2862  1.0286  1.5958
   45MOL   H12216050   0.851   2.029   1.041  2.1719  1.4663 -0.5224
   45MOL   H12316051   0.826   2.116   0.750  0.9370 -2.5051 -0.0251
   45MOL   H12416052   0.769   2.201   0.893 -1.7036 -1.5634 -0.5232
   45MOL   H12516053   1.029   2.213   0.956  0.8775  0.8350 -0.3266
   45MOL   H12616054   1.009   2.284   0.794 -0.7648  1.6018  0.6466
   45MOL   H12716055   1.068   2.127   0.816 -0.7339 -0.9752  0.6388
   45MOL   C12816056   1.045   1.602   0.826 -0.0205  0.2573 -0.5831
   45MOL   C12916057   1.167   1.589   0.916 -0.2656  0.2926 -0.4432
   45MOL   C13016058   1.175   1.684   1.043 -0.4230 -0.4755  0.2314
   45MOL   O13116059   1.081   1.683   1.129  0.3769 -0.2310  0.2269
   45MOL   O13216060   1.276   1.762   1.048 -0.2661  0.4565  0.1950
   45MOL   C13316061   1.286   1.849   1.153  0.2141 -0.4271 -0.3735
   45MOL   C13416062   1.404   1.936   1.118  0.1120  0.2282 -0.1159
   45MOL   C13516063   1.372   2.051   1.027 -0.6295 -0.0410  0.3941
   45MOL   H13616064   1.037   1.530   0.744  3.2643 -1.8086  0.8310
   45MOL   H13716065   0.954   1.570   0.878  0.5208 -0.2501  0.0516
   45MOL   H13816066   1.250   1.626   0.856  0.7415 -2.5974 -0.9096
   45MOL   H13916067   1.187   1.895   1.153  0.8918  1.0878  1.2779
   45MOL   H14016068   1.305   1.804   1.251 -3.5924 -2.1086 -0.3177
   45MOL   H14116069   1.427   1.976   1.217 -2.3829  1.4930 -0.0185
   45MOL   H14216070   1.496   1.881   1.098  0.4301  0.2854  1.1242
   45MOL   H14316071   1.330   2.003   0.938 -0.3992 -0.0476  0.2906
   45MOL   H14416072   1.458   2.114   1.007  0.1087 -2.0175 -3.1906
   45MOL   H14516073   1.293   2.110   1.074  0.1122  1.9148 -0.7489
   45MOL   C14616074   1.189   1.436   0.941  1.0756  0.2039 -0.3982
   45MOL   C14716075   1.334   1.389   0.983 -0.3908  0.0595 -0.1106
   45MOL   C14816076   1.450   1.443   0.902 -0.0920  0.1425  0.3230
   45MOL   O14916077   1.554   1.488   0.950  0.5170 -0.7273 -0.2530
   45MOL   O15016078   1.421   1.437   0.780 -0.2697 -0.0355 -0.2936
   45MOL   C15116079   1.508   1.473   0.676  0.3971  0.4392 -0.2360
   45MOL   C15216080   1.633   1.393   0.668  0.6389  0.9410  0.4528
   45MOL   C15316081   1.607   1.241   0.646  0.0122  0.5771  0.2890
   45MOL   H15416082   1.180   1.380   0.848  1.8823  0.7463 -0.8061
   45MOL   H15516083   1.106   1.408   1.006  1.5529  0.8748  0.5096
   45MOL   H15616084   1.326   1.285   0.950  1.3051 -0.2521  0.3959
   45MOL   H15716085   1.459   1.468   0.578 -0.1436 -1.7413  0.1322
   45MOL   H15816086   1.531   1.579   0.682 -2.4924  1.0632  0.3275
   45MOL   H15916087   1.684   1.425   0.577  0.2894 -0.0239 -0.0939
   45MOL   H16016088   1.696   1.418   0.753  1.7832 -2.0534  0.5655
   45MOL   H16116089   1.555   1.233   0.551  1.5353 -0.4359 -0.4911
   45MOL   H16216090   1.544   1.198   0.724  1.3666  0.8285  1.5649
   45MOL   H16316091   1.700   1.183   0.653  1.2851  2.3947 -1.0917
   45MOL   C16416092   1.365   1.385   1.138  0.7298 -0.0873  0.4610
   45MOL   C16516093   1.378   1.245   1.192 -0.5583  0.0167 -0.2834
   45MOL   C16616094   1.486   1.162   1.114 -0.1930  0.6588 -0.2738
   45MOL   O16716095   1.465   1.064   1.040  0.1567  0.1623 -0.2439
   45MOL   O16816096   1.600   1.224   1.126  0.0518 -0.0621  0.7402
   45MOL   C16916097   1.719   1.172   1.075 -0.7341 -0.6817  0.6227
   45MOL   C17016098   1.840   1.264   1.097  0.6318  0.1769  0.2410
   45MOL   C17116099   1.972   1.193   1.079 -0.6855  0.1437  0.5468
   45MOL   H17216100   1.277   1.440   1.171 -0.4728 -1.2424 -0.7558
   45MOL   H17316101   1.449   1.449   1.167 -1.2028  0.6552  4.9148
   45MOL   H17416102   1.288   1.189   1.165  1.1968 -2.4605 -1.2192
   45MOL   H17516103   1.730   1.078   1.130 -0.2066 -0.4602  0.8980
   45MOL   H17616104   1.707   1.138   0.972  0.2387  0.9857 -0.0547
   45MOL   H17716105   1.824   1.352   1.035  2.3249  0.0886 -0.3371
   45MOL   H17816106   1.834   1.304   1.198  1.6070 -0.8345  0.7171
   45MOL   H17916107   2.050   1.225   1.147 -1.2860 -1.0914  1.8481
   45MOL   H18016108   2.009   1.208   0.977  0.7710 -0.0056  1.0364
   45MOL   H18116109   1.955   1.085   1.088 -0.4435 -0.0011 -0.6130
   45MOL   C18216110   1.387   1.232   1.342  0.0609  0.0932  0.1513
   45MOL   C18316111   1.514   1.288   1.415 -0.4492 -0.3499 -0.0089
   45MOL   C18416112   1.507   1.441   1.442 -0.3229  0.6383  0.2730
   45MOL   O18516113   1.431   1.497   1.512  0.1647 -0.9201 -0.4716
   45MOL   O18616114   1.598   1.515   1.374  0.6772  0.1349  0.2380
   45MOL   C18716115   1.611   1.653   1.409 -0.0732 -0.0684 -0.1433
   45MOL   C18816116   1.752   1.682   1.379  0.1768 -0.1877 -0.1118
   45MOL   C18916117   1.794   1.654   1.236  0.2312 -0.1295 -0.8587
   45MOL   H19016118   1.376   1.125   1.362 -4.5972  0.6633  1.0892
   45MOL   H19116119   1.294   1.266   1.387  1.1930 -0.2126  2.8327
   45MOL   H19216120   1.593   1.276   1.341 -1.9630  1.5044 -1.9988
   45MOL   H19316121   1.544   1.722   1.358 -0.5606 -0.7721 -0.4698
   45MOL   H19416122   1.596   1.662   1.516 -0.7492  1.1484 -0.3317
   45MOL   H19516123   1.776   1.786   1.403 -0.8842  0.0798 -0.1947
   45MOL   H19616124   1.820   1.620   1.437 -3.5136 -1.9434  2.5531
   45MOL   H19716125   1.886   1.710   1.217  2.5722 -2.8667  1.7980
   45MOL   H19816126   1.726   1.698   1.164 -0.1611 -0.2520 -0.5615
   45MOL   H19916127   1.796   1.550   1.204  1.6447 -0.3447 -0.1413
   45MOL   C20016128   1.549   1.217   1.547 -0.4316  0.5616  0.8577
   45MOL   C20116129   1.666   1.110   1.539  0.1396 -0.2230  0.0457
   45MOL   C20216130   1.618   0.977   1.467 -0.3374 -0.8133  0.6515
   45MOL   O20316131   1.675   0.926   1.372  0.5603  0.0438 -0.0615
   45MOL   O20416132   1.501   0.934   1.538  0.6024 -0.0599  0.2638
   45MOL   C20516133   1.437   0.817   1.484 -0.6482 -0.6778 -0.0756
   45MOL   C20616134   1.497   0.692   1.545 -0.9849 -0.1073 -0.0147
   45MOL   C20716135   1.445   0.662   1.686 -0.8644  0.2183 -0.2186
   45MOL   H20816136   1.463   1.174   1.598  0.1672  1.5212  2.7116
   45MOL   H20916137   1.584   1.288   1.621  0.5352  0.5086  0.4650
   45MOL   H21016138   1.682   1.092   1.645 -0.3433 -1.4353 -0.0754
   45MOL   H21116139   1.334   0.827   1.516 -0.3195  2.8040  0.1811
   45MOL   H21216140   1.441   0.816   1.375 -0.0996  1.1983 -0.0937
   45MOL   H21316141   1.463   0.612   1.480  0.0338 -2.3941  2.1931
   45MOL   H21416142   1.606   0.695   1.544 -0.9883 -0.1596 -1.7838
   45MOL   H21516143   1.345   0.619   1.677 -0.5458 -0.8296  1.0883
   45MOL   H21616144   1.439   0.745   1.756 -0.6451  1.0204 -1.1337
   45MOL   H21716145   1.501   0.581   1.733 -0.7855  1.4257  1.8297
   45MOL   C21816146   1.803   1.168   1.488  0.0687 -0.6391  0.4914
   45MOL   C21916147   1.937   1.102   1.531  0.3711 -0.0103 -0.4624
   45MOL   C22016148   2.066   1.141   1.454  0.5537  0.2696 -0.5786
   45MOL   O22116149   2.117   1.064   1.377 -0.0939  0.4759  1.0020
   45MOL   O22216150   2.107   1.264   1.471 -0.1526  0.5644 -0.3155
   45MOL   C22316151   2.235   1.293   1.418  0.1342  0.3627  0.6215
   45MOL   C22416152   2.243   1.446   1.407  0.4568  0.5034 -0.6749
   45MOL   C22516153   2.124   1.514   1.337 -0.2304  0.7275  0.8073
   45MOL   H22616154   1.803   1.275   1.513 -2.9016 -0.7027  0.9792
   45MOL   H22716155   1.800   1.164   1.379  1.3710 -2.0051  0.4949
   45MOL   H22816156   1.932   0.999   1.496 -1.9495 -0.0453 -0.0668
   45MOL   H22916157   2.305   1.252   1.490 -3.5599 -1.8180  3.1471
   45MOL   H23016158   2.258   1.257   1.318 -1.6088  0.5726  0.1283
   45MOL   H23116159   2.237   1.479   1.510 -2.5519 -1.9728  0.0217
   45MOL   H23216160   2.339   1.482   1.369  1.4450 -1.2906  0.0167
   45MOL   H23316161   2.034   1.472   1.382 -0.2092  0.4988  0.6321
   45MOL   H23416162   2.138   1.501   1.230 -0.2531  0.0018  0.8899
   45MOL   H23516163   2.126   1.621   1.357  1.2778  1.1265 -1.4091
   45MOL   C23616164   1.954   1.111   1.688 -0.1408  0.3032  0.0839
   45MOL   C23716165   1.978   0.979   1.768 -0.0136  0.3451  0.8395
   45MOL   C23816166   1.844   0.912   1.787 -0.3414 -0.5305  0.1672
   45MOL   O23916167   1.805   0.822   1.708 -0.4684 -0.0526 -0.2930
   45MOL   O24016168   1.777   0.955   1.895  0.4966  0.0100  0.0614
   45MOL   C24116169   1.644   0.919   1.915  0.5360  0.6610 -0.2283
   45MOL   C24216170   1.585   1.007   2.026 -0.2675 -0.0324  0.4505
   45MOL   C24316171   1.594   1.151   2.000 -0.3911  0.0045 -0.2047
   45MOL   H24416172   1.871   1.169   1.728 -0.2425  0.3182 -0.1436
   45MOL   H24516173   2.042   1.170   1.713 -0.1194  0.6138 -0.6914
   45MOL   H24616174   2.018   1.005   1.866  1.5273  0.1263  0.2894
   45MOL   H24716175   1.581   0.947   1.831  3.1664  0.6975 -2.2533
   45MOL   H24816176   1.632   0.814   1.944 -1.5151  0.6331 -1.0501
   45MOL   H24916177   1.484   0.971   2.043 -0.5534  0.5867  0.0825
   45MOL   H25016178   1.635   0.984   2.121  2.8636 -1.2532 -1.4275
   45MOL   H25116179   1.509   1.174   1.934  0.5808  1.5201 -0.9618
   45MOL   H25216180   1.688   1.177   1.952 -1.0676 -1.0038 -2.1339
   45MOL   H25316181   1.586   1.215   2.088 -1.6515  0.6116 -0.7473
   45MOL   C25416182   2.088   0.893   1.706  0.4824  0.3779  0.3230
   45MOL   C25516183   2.147   0.772   1.785 -0.4949 -0.1481  0.2740
   45MOL   C25616184   2.217   0.822   1.920 -0.0317  0.5811 -0.2470
   45MOL   O25716185   2.174   0.797   2.033 -0.1776  0.3124  0.1414
   45MOL   O25816186   2.326   0.884   1.896  0.6864 -0.0856 -0.1280
   45MOL   C25916187   2.420   0.914   2.003 -0.0422 -0.1740  0.6066
   45MOL   C26016188   2.507   0.783   1.998 -0.4740 -0.6810 -0.0052
   45MOL   C26116189   2.626   0.780   2.101 -0.4758 -0.5035 -0.3362
   45MOL   H26216190   2.169   0.960   1.678  0.5573  0.5547  0.9613
   45MOL   H26316191   2.052   0.858   1.609 -0.8650  1.1248  0.5405
   45MOL   H26416192   2.231   0.736   1.725 -0.5860 -1.1506  0.7368
   45MOL   H26516193   2.480   0.996   1.964 -0.7847 -0.8200 -1.9944
   45MOL   H26616194   2.388   0.935   2.105 -3.0658  1.5565 -0.6337
   45MOL   H26716195   2.444   0.701   2.032 -1.1975 -0.6288 -1.1863
   45MOL   H26816196   2.524   0.754   1.894 -1.8565 -0.9016 -0.1818
   45MOL   H26916197   2.680   0.687   2.119  1.0310 -0.1050 -2.6117
   45MOL   H27016198   2.593   0.817   2.199  0.7243 -1.1241  0.3134
   45MOL   H27116199   2.704   0.853   2.076  0.3910 -1.9597 -1.9552
   45MOL   C27216200   2.062   0.650   1.802  0.1865 -0.5063 -0.6086
   45MOL   C27316201   2.137   0.518   1.797 -0.1604  0.0770  0.2102
   45MOL   C27416202   2.178   0.488   1.655  0.2106  0.1561  0.8126
   45MOL   O27516203   2.299   0.499   1.622  0.1074  0.0045 -0.1119
   45MOL   O27616204   2.071   0.446   1.578 -0.5710 -0.3220  0.0299
   45MOL   C27716205   2.096   0.402   1.447  0.1929 -0.1069 -0.0550
   45MOL   C27816206   2.066   0.251   1.451 -0.4922 -0.2857  0.5081
   45MOL   C27916207   2.071   0.180   1.314  0.7785 -0.8649  0.5820
   45MOL   H28016208   1.974   0.651   1.737  0.4115 -2.2551 -0.9565
   45MOL   H28116209   2.017   0.659   1.901  2.2641 -1.0730  0.4113
   45MOL   H28216210   2.060   0.448   1.831  0.4328 -0.1564  1.1043
   45MOL   H28316211   2.024   0.464   1.392 -2.0587 -1.9780  0.6701
   45MOL   H28416212   2.200   0.415   1.417  0.4131 -1.5022  0.0834
   45MOL   H28516213   2.146   0.212   1.513  0.0136 -0.2777 -0.1402
   45MOL   H28616214   1.977   0.225   1.508 -0.8868 -0.5533 -0.2198
   45MOL   H28716215   2.165   0.191   1.260  1.2415 -1.9139  1.1555
   45MOL   H28816216   1.982   0.203   1.256 -0.3877 -1.8861  1.9468
   45MOL   H28916217   2.065   0.072   1.330 -1.6665 -0.6804  1.0581
   45MOL   C29016218   2.257   0.507   1.887 -0.3036  1.2759 -0.4340
   45MOL   C29116219   2.297   0.358   1.919 -0.1357  0.8468 -0.6567
   45MOL   C29216220   2.451   0.358   1.949  0.2846  0.2553  0.2028
   45MOL   O29316221   2.514   0.458   1.986  0.2671 -0.5187  0.8939
   45MOL   O29416222   2.516   0.234   1.925  0.3888  0.2222  0.3150
   45MOL   C29516223   2.657   0.219   1.946  0.0807 -0.6908 -0.1434
   45MOL   C29616224   2.679   0.193   2.097 -0.3248 -0.2699  0.5168
   45MOL   C29716225   2.601   0.068   2.144  0.5585 -0.2283 -0.1275
   45MOL   H29816226   2.239   0.555   1.982 -0.5847  1.3233 -0.5098
   45MOL   H29916227   2.345   0.553   1.842  2.2016 -2.3270  0.5840
   45MOL   H30016228   2.294   0.304   1.824  1.8330  1.1208 -0.9110
   45MOL   H30116229   2.672   0.127   1.890  2.4788 -1.7769  2.1649
   45MOL   H30216230   2.699   0.306   1.895  1.0967 -0.8627  0.3748
   45MOL   H30316231   2.785   0.171   2.105 -0.0542  0.6895 -0.3236
   45MOL   H30416232   2.653   0.283   2.153 -2.0837 -0.4640  0.0522
   45MOL   H30516233   2.605   7.861   2.079  0.5202  1.0594 -1.9156
   45MOL   H30616234   2.497   0.100   2.152  0.2028 -1.7520  1.5402
   45MOL   H30716235   2.638   0.040   2.242 -0.8812  1.7826  1.0404
   45MOL   C30816236   2.215   0.306   2.035  0.3292 -0.0769 -0.1186
   45MOL   C30916237   2.201   0.151   2.050 -0.6427  0.0056  0.7909
   45MOL   C31016238   2.192   0.121   2.200 -0.8380 -0.2531 -0.1204
   45MOL   O31116239   2.291   0.087   2.258 -0.2630  0.4259  0.0179
   45MOL   O31216240   2.072   0.140   2.257  0.5577  0.3214  0.0864
   45MOL   C31316241   2.042   0.106   2.396 -0.0311  0.3037  0.0876
   45MOL   C31416242   1.922   0.183   2.442 -0.6052 -0.4421 -0.3202
   45MOL   C31516243   1.933   0.333   2.425 -0.0935  0.9510  0.3197
   45MOL   H31616244   2.111   0.338   2.023  1.2352  2.2748 -2.2362
   45MOL   H31716245   2.252   0.345   2.129  1.4383 -0.9961 -0.1649
   45MOL   H31816246   2.293   0.108   2.009 -1.4051 -1.0117  0.1071
   45MOL   H31916247   2.024   7.879   2.391  2.9438 -0.1765 -1.3192
   45MOL   H32016248   2.127   0.125   2.462  0.1462 -0.5956  0.1234
   45MOL   H32116249   1.835   0.146   2.388 -0.6611  2.3113 -2.2069
   45MOL   H32216250   1.904   0.163   2.548  1.1791 -0.2746  0.0364
   45MOL   H32316251   1.838   0.380   2.402 -1.0884 -0.7137  0.9438
   45MOL   H32416252   1.967   0.378   2.519 -0.5684  2.0851 -0.0529
   45MOL   H32516253   2.009   0.371   2.357  1.1977  0.8587  1.6762
   45MOL   C32616254   2.093   0.090   1.954 -0.2252 -0.4665 -0.6483
   45MOL   C32716255   2.095   7.818   1.927  0.4044  0.2180  0.4619
   45MOL   C32816256   2.089   7.737   2.059 -0.1350  0.0783  0.0832
   45MOL   O32916257   2.186   7.674   2.097  0.0967 -0.3521 -0.0688
   45MOL   O33016258   1.976   7.740   2.126  0.2811 -0.0417  0.0158
   45MOL   C33116259   1.959   7.661   2.245  0.2735 -0.0661  0.3433
   45MOL   C33216260   1.820   7.697   2.300 -0.5509 -0.0629 -0.1315
   45MOL   C33316261   1.711   7.663   2.196 -0.3629  0.0855 -0.0155
   45MOL   H33416262   2.124   0.123   1.855 -0.3493  0.6702 -0.3205
   45MOL   H33516263   1.996   0.121   1.994  0.1149  0.3904 -0.4733
   45MOL   H33616264   2.189   7.801   1.875  0.1648  0.5784 -0.0908
   45MOL   H33716265   1.964   7.554   2.225 -0.1822  0.0353 -0.2877
   45MOL   H33816266   2.027   7.691   2.325 -1.3009  0.2467  1.5837
   45MOL   H33916267   1.800   7.642   2.392  1.4537  1.8217  1.4660
   45MOL   H34016268   1.809   7.804   2.317  0.3639  0.0468 -0.2197
   45MOL   H34116269   1.697   7.557   2.175  0.4191 -0.3839  1.7387
   45MOL   H34216270   1.616   7.715   2.207 -0.8402 -0.1132 -2.7156
   45MOL   H34316271   1.749   7.710   2.105 -1.2588 -0.9716 -0.9498
   45MOL   C34416272   1.989   7.781   1.827  0.0096 -0.3657  0.6944
   45MOL   C34516273   2.029   7.836   1.682 -0.0920  0.2624  0.3512
   45MOL   C34616274   2.130   7.751   1.606  0.0874 -0.1284 -0.0033
   45MOL   O34716275   2.170   7.647   1.658  0.4821  0.4737  0.4041
   45MOL   O34816276   2.151   7.780   1.478  0.2374 -0.4801 -0.4152
   45MOL   C34916277   2.244   7.719   1.404 -0.4473 -0.2120  0.3249
   45MOL   C35016278   2.195   7.606   1.309 -0.6303 -0.6999 -0.2517
   45MOL   C35116279   2.314   7.534   1.246  0.2574  0.6842  0.0025
   45MOL   H35216280   1.895   7.830   1.852 -0.9325 -1.1544 -1.1918
   45MOL   H35316281   1.976   7.673   1.825 -1.8322 -0.1495 -1.2488
   45MOL   H35416282   2.056   0.062   1.681 -0.0239  0.2574 -2.2708
   45MOL   H35516283   2.283   7.800   1.342 -0.9887 -0.8984 -0.9387
   45MOL   H35616284   2.331   7.693   1.464  0.1562 -0.2742 -0.5651
   45MOL   H35716285   2.129   7.531   1.353 -2.5906  0.1734 -1.6337
   45MOL   H35816286   2.152   7.662   1.226  1.1483  1.4612  0.2368
   45MOL   H35916287   2.280   7.468   1.167 -0.4595  0.6312  0.3552
   45MOL   H36016288   2.390   7.602   1.206  0.5612 -0.4760 -1.4488
   45MOL   H36116289   2.372   7.469   1.312 -1.4994  0.0628  0.9641
   45MOL   H36216290   1.939   7.830   1.621  0.3276 -1.2201 -0.1278
   46MOL     C116291   3.535   0.059   4.285 -1.0253 -1.1727 -0.6017
   46MOL     C216292   3.410   0.110   4.362  0.0285  0.9412  0.5113
   46MOL     C316293   3.344   7.873   4.430  0.0599  0.1473 -0.9070
   46MOL     O416294   3.245   7.818   4.376  0.5530  0.2156  0.9144
   46MOL     O516295   3.398   7.837   4.546  0.5809  0.2349 -0.1805
   46MOL     C616296   3.338   7.736   4.624 -0.5484 -0.5288  0.5635
   46MOL     C716297   3.359   7.751   4.772  0.1601 -0.2694  0.1493
   46MOL     C816298   3.506   7.742   4.811  0.1886 -0.9676  0.0178
   46MOL     H916299   3.610   7.877   4.333 -0.9301 -1.4714 -1.1350
   46MOL    H1016300   3.495   0.016   4.193  0.8677  0.1750 -2.0987
   46MOL    H1116301   3.335   0.157   4.299 -1.4792 -1.8295  0.1278
   46MOL    H1216302   3.230   7.738   4.607 -0.6404 -1.6978  0.9639
   46MOL    H1316303   3.374   7.648   4.571 -0.0811  0.5218 -0.9105
   46MOL    H1416304   3.318   7.842   4.815 -1.7701 -0.0085 -2.1113
   46MOL    H1516305   3.310   7.668   4.824 -0.5708 -0.4109 -0.7538
   46MOL    H1616306   3.509   7.770   4.917 -0.1541  0.4643 -0.3363
   46MOL    H1716307   3.548   7.642   4.802  0.7744 -0.7498  0.3079
   46MOL    H1816308   3.580   7.814   4.774  0.7517 -2.9101 -2.7273
   46MOL    H1916309   3.588   0.147   4.249  2.1247 -1.7637  2.3520
   46MOL    C2016310   3.438   0.226   4.455 -0.3781 -0.0202  0.2946
   46MOL    C2116311   3.450   0.371   4.396  0.2913  0.7219  0.1377
   46MOL    C2216312   3.318   0.423   4.337 -0.2709  0.3849  1.2589
   46MOL    O2316313   3.207   0.380   4.374  0.0751  0.2618  0.1363
   46MOL    O2416314   3.328   0.530   4.249  0.2795 -0.0057  0.1742
   46MOL    C2516315   3.205   0.578   4.191  0.5407  0.1118 -0.4138
   46MOL    C2616316   3.228   0.671   4.067 -0.0800 -0.1414  0.0015
   46MOL    C2716317   3.289   0.802   4.096 -0.5883 -0.3514  0.6865
   46MOL    H2816318   3.533   0.203   4.503 -0.3913  0.2189  0.4338
   46MOL    H2916319   3.365   0.224   4.536  0.1256  1.4876  0.7960
   46MOL    H3016320   3.523   0.363   4.315 -0.2028  0.7528 -0.3139
   46MOL    H3116321   3.137   0.495   4.175  1.3205 -1.0264  1.9617
   46MOL    H3216322   3.151   0.632   4.270 -0.3332 -3.6043  1.6564
   46MOL    H3316323   3.299   0.623   4.000 -1.5851  1.8159 -3.1097
   46MOL    H3416324   3.132   0.688   4.018 -0.5642 -1.7651  0.3500
   46MOL    H3516325   3.238   0.860   4.173  0.1319  1.3077 -0.0697
   46MOL    H3616326   3.285   0.853   4.001  0.0997 -1.0198  0.2881
   46MOL    H3716327   3.395   0.803   4.122 -0.6290  0.9393  0.8037
   46MOL    C3816328   3.497   0.467   4.510 -0.0187 -0.2612  0.0204
   46MOL    C3916329   3.640   0.445   4.569  0.1086  0.1978  0.0363
   46MOL    C4016330   3.759   0.473   4.475  0.0995 -0.3853 -0.0098
   46MOL    O4116331   3.781   0.388   4.389  0.1130 -0.4739  0.2903
   46MOL    O4216332   3.833   0.584   4.491  0.6769 -0.8404 -0.6760
   46MOL    C4316333   3.936   0.610   4.404  0.9771  0.7549  0.2111
   46MOL    C4416334   4.039   0.698   4.479 -0.4319 -0.7751  0.0267
   46MOL    C4516335   4.089   0.640   4.611 -0.5652 -0.3453 -0.1187
   46MOL    H4616336   3.432   0.435   4.591 -0.0233 -1.0750 -0.3023
   46MOL    H4716337   3.476   0.573   4.499  0.6444  0.2139  2.9619
   46MOL    H4816338   3.650   0.340   4.594 -1.3233  0.1187  0.2980
   46MOL    H4916339   3.975   0.512   4.376 -1.5127 -0.1246 -0.3947
   46MOL    H5016340   3.901   0.661   4.314 -0.2213  0.0691  0.2679
   46MOL    H5116341   4.119   0.726   4.410 -0.3326  1.7512  1.1371
   46MOL    H5216342   3.994   0.790   4.515  1.2468  0.4347 -0.8650
   46MOL    H5316343   4.142   0.545   4.602 -2.2169 -1.2899  0.0736
   46MOL    H5416344   4.002   0.626   4.675  0.8273  0.0305  1.9484
   46MOL    H5516345   4.150   0.708   4.670 -1.3260 -0.8246  1.2460
   46MOL    C5616346   3.665   0.513   4.707  0.0280 -0.6971 -0.0114
   46MOL    C5716347   3.573   0.454   4.813 -0.2771  0.0301 -0.6819
   46MOL    C5816348   3.598   0.304   4.836  0.0440 -1.1388  0.0361
   46MOL    O5916349   3.505   0.224   4.818  0.6422  0.1198 -0.2539
   46MOL    O6016350   3.730   0.273   4.870  0.2779 -0.0818 -0.2751
   46MOL    C6116351   3.767   0.143   4.909  0.2693 -0.3877 -0.8185
   46MOL    C6216352   3.830   0.154   5.052 -0.0597 -0.4067 -0.8493
   46MOL    C6316353   3.738   0.168   5.167 -0.3576  0.6781 -0.3989
   46MOL    H6416354   3.626   0.614   4.696 -1.0380 -1.1517 -0.5558
   46MOL    H6516355   3.769   0.518   4.740 -0.3038 -0.6364  1.0273
   46MOL    H6616356   3.473   0.478   4.777  0.2187 -1.1462 -2.8633
   46MOL    H6716357   3.679   0.079   4.898 -1.8000  2.2682 -0.1561
   46MOL    H6816358   3.844   0.119   4.836 -0.6543 -2.2824 -1.2155
   46MOL    H6916359   3.895   0.070   5.075  1.3658  0.7692 -0.5072
   46MOL    H7016360   3.896   0.241   5.055  0.7598 -0.9215 -3.0688
   46MOL    H7116361   3.663   0.093   5.146  0.0177  0.1355  0.1727
   46MOL    H7216362   3.681   0.261   5.178  0.8639  1.1863  2.3226
   46MOL    H7316363   3.779   0.140   5.264  0.0880  0.2246 -0.7174
   46MOL    C7416364   3.584   0.537   4.941 -0.1876 -0.6417  0.2844
   46MOL    C7516365   3.508   0.486   5.070  0.3599 -0.3545  0.5126
   46MOL    C7616366   3.555   0.566   5.197  0.2023 -0.5341 -0.0226
   46MOL    O7716367   3.599   0.504   5.293 -0.1489  0.2000  0.1702
   46MOL    O7816368   3.535   0.696   5.199 -0.0026  0.7045  0.7474
   46MOL    C7916369   3.557   0.776   5.308  0.1558 -0.2661 -0.5757
   46MOL    C8016370   3.421   0.821   5.372  0.4421 -0.1350 -0.0201
   46MOL    C8116371   3.436   0.912   5.492 -0.2951  0.1853  0.0769
   46MOL    H8216372   3.550   0.638   4.917 -0.3554 -1.1460 -1.6957
   46MOL    H8316373   3.689   0.540   4.971  0.7340 -0.0859 -2.8158
   46MOL    H8416374   3.510   0.378   5.083 -0.8459 -0.6786 -1.8070
   46MOL    H8516375   3.625   0.734   5.382  1.0364 -1.9971 -2.3094
   46MOL    H8616376   3.612   0.863   5.271  0.0906 -0.3213 -0.8027
   46MOL    H8716377   3.376   0.880   5.292 -1.3955 -1.0604  0.3062
   46MOL    H8816378   3.354   0.737   5.391 -0.8379 -0.1734 -4.2540
   46MOL    H8916379   3.460   0.860   5.585 -0.5886 -0.1463 -0.0312
   46MOL    H9016380   3.336   0.954   5.505 -0.5023  0.1475 -1.3964
   46MOL    H9116381   3.512   0.985   5.465  0.2492 -0.6309 -0.6281
   46MOL    C9216382   3.351   0.513   5.046  0.2680 -1.0950  0.9488
   46MOL    C9316383   3.257   0.462   5.155 -0.0149 -0.2939  0.4917
   46MOL    C9416384   3.116   0.518   5.132  0.1799 -0.0527  0.2085
   46MOL    O9516385   3.061   0.596   5.205  0.3010  0.1098 -0.5657
   46MOL    O9616386   3.051   0.466   5.027 -0.2574  0.0128  0.7563
   46MOL    C9716387   2.917   0.497   5.004 -0.0713  0.2366 -0.4805
   46MOL    C9816388   2.824   0.414   5.089  0.3032  0.3826 -0.8287
   46MOL    C9916389   2.853   0.262   5.090 -0.6091 -0.0247  0.0261
   46MOL   H10016390   3.321   0.467   4.952 -0.1962 -1.5538  1.3166
   46MOL   H10116391   3.338   0.622   5.042 -0.2709 -1.1937 -0.4489
   46MOL   H10216392   3.286   0.512   5.247  0.2147  1.7767 -0.6743
   46MOL   H10316393   2.880   0.599   5.011 -3.0607 -0.7734 -1.0930
   46MOL   H10416394   2.892   0.471   4.901 -1.4354  0.5523 -0.2383
   46MOL   H10516395   2.828   0.449   5.193  1.5577 -1.3697 -0.2832
   46MOL   H10616396   2.723   0.427   5.050  0.5769  1.0304 -1.3183
   46MOL   H10716397   2.958   0.252   5.117 -0.2260  0.9860 -1.0149
   46MOL   H10816398   2.845   0.219   4.990 -0.8885  1.1411 -0.4648
   46MOL   H10916399   2.797   0.204   5.163  0.2473 -0.4116  0.3771
   46MOL   C11016400   3.259   0.313   5.200 -0.3497 -0.5052 -0.5215
   46MOL   C11116401   3.261   0.296   5.352  0.4401  0.0077  0.0041
   46MOL   C11216402   3.136   0.230   5.410  0.5462  0.7416 -0.5970
   46MOL   O11316403   3.098   0.118   5.374  0.1572  0.2495  0.0525
   46MOL   O11416404   3.064   0.320   5.479  0.5463 -0.1136  0.4630
   46MOL   C11516405   2.926   0.302   5.504 -0.1719 -0.9790  0.2208
   46MOL   C11616406   2.859   0.428   5.562  0.3702 -0.3770 -0.5010
   46MOL   C11716407   2.774   0.510   5.460 -0.3043 -0.3985 -0.2475
   46MOL   H11816408   3.343   0.263   5.152  0.7731  1.6359 -0.8709
   46MOL   H11916409   3.165   0.278   5.158 -0.6054 -1.4265  0.7748
   46MOL   H12016410   3.263   0.393   5.402 -2.1423 -1.0279  2.2274
   46MOL   H12116411   2.867   0.274   5.417 -0.7656 -2.7424  1.1535
   46MOL   H12216412   2.896   0.213   5.560 -1.2032 -0.3460  0.6924
   46MOL   H12316413   2.782   0.385   5.627  1.4612 -2.4301 -0.5088
   46MOL   H12416414   2.914   0.492   5.631 -0.1104 -2.4261  1.8616
   46MOL   H12516415   2.840   0.576   5.403 -0.5982 -0.2513 -0.4187
   46MOL   H12616416   2.713   0.589   5.504 -0.0435  0.1621 -0.8848
   46MOL   H12716417   2.713   0.442   5.401  0.8803 -2.1421  0.5175
   46MOL   C12816418   3.387   0.218   5.391 -0.1451 -0.2258  0.1457
   46MOL   C12916419   3.460   0.249   5.530  0.7082 -0.8061 -0.4229
   46MOL   C13016420   3.366   0.196   5.648  0.8381 -0.8021 -0.3724
   46MOL   O13116421   3.326   0.273   5.738 -0.0226 -0.1517  0.4051
   46MOL   O13216422   3.339   0.068   5.626 -0.5397  0.2038 -0.0094
   46MOL   C13316423   3.251   7.873   5.701 -0.5988  0.1588  0.5288
   46MOL   C13416424   3.318   7.837   5.835 -1.2674 -0.0502  0.3257
   46MOL   C13516425   3.230   7.748   5.921  0.5207 -1.0237 -0.3383
   46MOL   H13616426   3.461   0.252   5.317  0.4182 -0.0748  0.7707
   46MOL   H13716427   3.379   0.112   5.369  0.4040 -0.1219 -0.6170
   46MOL   H13816428   3.461   0.358   5.534  0.2584 -0.7949 -0.5582
   46MOL   H13916429   3.157   0.048   5.709  0.0675  1.4900 -0.7589
   46MOL   H14016430   3.217   7.787   5.644 -3.8191  0.5711  1.7036
   46MOL   H14116431   3.415   7.789   5.819 -0.0913  2.0785  0.9003
   46MOL   H14216432   3.335   0.048   5.892 -0.0196  0.2346 -0.4918
   46MOL   H14316433   3.225   7.643   5.894  0.5859 -1.2936  0.6746
   46MOL   H14416434   3.129   7.784   5.941  1.0528 -0.3218  1.1747
   46MOL   H14516435   3.266   7.742   6.023  0.8148 -0.0049 -0.3775
   46MOL   C14616436   3.604   0.199   5.545 -0.1464 -0.0983 -0.1212
   46MOL   C14716437   3.671   0.242   5.679 -0.2208  0.0390 -0.6136
   46MOL   C14816438   3.754   0.123   5.730  0.5611 -0.5668  0.0282
   46MOL   O14916439   3.874   0.116   5.705  0.2622  0.2170 -0.0242
   46MOL   O15016440   3.681   0.030   5.795 -0.1008 -0.2108  0.7916
   46MOL   C15116441   3.736   7.778   5.810  0.0848 -0.4823  0.3488
   46MOL   C15216442   3.717   7.686   5.689  0.4986 -0.5205 -0.2039
   46MOL   C15316443   3.571   7.664   5.660  1.1135 -0.3171  1.1033
   46MOL   H15416444   3.659   0.239   5.460 -0.3006 -0.3286 -0.3281
   46MOL   H15516445   3.601   0.092   5.529 -1.2290  0.0706 -1.1523
   46MOL   H15616446   3.607   0.274   5.761  1.8095  1.5800  0.4291
   46MOL   H15716447   3.842   7.784   5.833  0.4357 -2.0470 -0.8281
   46MOL   H15816448   3.684   7.731   5.894 -1.4203 -1.6133 -1.1591
   46MOL   H15916449   3.782   7.718   5.607  1.3412 -1.7739 -0.0562
   46MOL   H16016450   3.768   7.592   5.710  1.5711 -0.1178 -0.9598
   46MOL   H16116451   3.522   7.754   5.624  2.3413  0.2173  0.7464
   46MOL   H16216452   3.523   7.616   5.745  2.6470 -0.2388  2.0295
   46MOL   H16316453   3.579   7.591   5.579  1.5835 -1.9290  2.5578
   46MOL   C16416454   3.768   0.369   5.658 -0.6351  0.1375  0.4121
   46MOL   C16516455   3.691   0.514   5.647  0.7657  0.1598 -0.2344
   46MOL   C16616456   3.621   0.551   5.773  0.1442  0.4305  0.2080
   46MOL   O16716457   3.653   0.503   5.883 -0.3516 -0.2232 -0.0746
   46MOL   O16816458   3.506   0.623   5.759 -0.4231 -0.7143  0.3260
   46MOL   C16916459   3.434   0.648   5.881 -0.2744 -0.0520 -0.1992
   46MOL   C17016460   3.294   0.689   5.847  1.0036  0.1870  0.4851
   46MOL   C17116461   3.206   0.583   5.788 -0.7078  0.2039  0.6573
   46MOL   H17216462   3.817   0.352   5.562 -3.6368 -1.4516 -0.8871
   46MOL   H17316463   3.850   0.373   5.730  1.5794 -1.5885 -1.9318
   46MOL   H17416464   3.613   0.492   5.574  0.8321 -2.9535  0.5850
   46MOL   H17516465   3.430   0.561   5.948  1.9643 -0.4023 -0.4657
   46MOL   H17616466   3.477   0.733   5.935 -5.0058  1.7357  0.9495
   46MOL   H17716467   3.239   0.738   5.927 -0.0248  1.0610 -0.7415
   46MOL   H17816468   3.301   0.771   5.775 -1.8271  0.2545  0.2422
   46MOL   H17916469   3.160   0.510   5.855  1.6216 -0.1976  1.8416
   46MOL   H18016470   3.258   0.531   5.708 -0.1611 -0.4575  1.4385
   46MOL   H18116471   3.123   0.637   5.742  0.1130  0.3102 -0.7329
   46MOL   C18216472   3.781   0.624   5.597  1.1253 -0.3279  0.5360
   46MOL   C18316473   3.901   0.686   5.672  0.1373  1.0318  0.0240
   46MOL   C18416474   4.025   0.591   5.661 -0.8571  0.1178  0.0100
   46MOL   O18516475   4.030   0.498   5.573  0.0454 -0.0600 -0.1165
   46MOL   O18616476   4.124   0.622   5.746 -0.4266  0.9592  0.2408
   46MOL   C18716477   4.248   0.553   5.746  0.3539  0.5103  0.8813
   46MOL   C18816478   4.315   0.580   5.884  0.8752 -0.0865 -0.2484
   46MOL   C18916479   4.255   0.492   6.001  0.8907 -0.3874  0.7835
   46MOL   H19016480   3.715   0.704   5.565  0.0093 -1.2980  0.4028
   46MOL   H19116481   3.813   0.586   5.501 -1.8490  0.0436 -0.6472
   46MOL   H19216482   3.879   0.687   5.779  0.0323 -0.2932  0.0215
   46MOL   H19316483   4.231   0.446   5.730  0.4309  0.1710  2.9093
   46MOL   H19416484   4.301   0.588   5.657  0.1737 -1.6661 -0.1150
   46MOL   H19516485   4.424   0.578   5.873  1.3147  1.9155  3.1717
   46MOL   H19616486   4.295   0.681   5.917  0.7308 -0.3536  0.4867
   46MOL   H19716487   4.232   0.393   5.962  0.7536 -1.4521  3.4899
   46MOL   H19816488   4.157   0.530   6.031  0.6654  0.0384 -0.4684
   46MOL   H19916489   4.324   0.493   6.085  0.9712  1.0206  0.7146
   46MOL   C20016490   3.937   0.832   5.639  0.3532  0.1203 -0.5503
   46MOL   C20116491   3.831   0.945   5.654 -0.3824  0.0809 -0.0275
   46MOL   C20216492   3.768   0.945   5.797  0.0876  0.2079  0.5454
   46MOL   O20316493   3.647   0.959   5.803  0.4875  0.2514 -0.6809
   46MOL   O20416494   3.851   0.935   5.897 -0.2931 -0.1328 -0.1920
   46MOL   C20516495   3.793   0.936   6.028  0.5678  0.3706 -0.0123
   46MOL   C20616496   3.772   0.801   6.084 -0.6595  1.0859 -0.1886
   46MOL   C20716497   3.913   0.722   6.093 -0.2494  0.8400  0.3044
   46MOL   H20816498   3.972   0.824   5.537  0.2712 -1.9654 -0.4396
   46MOL   H20916499   4.021   0.869   5.697 -1.9728  1.0210  2.3973
   46MOL   H21016500   3.756   0.918   5.580 -1.9624 -1.6192  2.1424
   46MOL   H21116501   3.854   0.993   6.099  1.4668 -1.1345  0.4695
   46MOL   H21216502   3.701   0.993   6.023  0.8932  0.8718 -0.3691
   46MOL   H21316503   3.721   0.808   6.181 -2.2492  3.0311 -1.1237
   46MOL   H21416504   3.712   0.742   6.014 -0.2804 -0.7480  0.9873
   46MOL   H21516505   3.898   0.628   6.146 -0.5818  2.1100  2.5269
   46MOL   H21616506   3.996   0.771   6.145 -1.0593  1.5622  0.9311
   46MOL   H21716507   3.945   0.705   5.991 -2.0182 -1.4482  0.0895
   46MOL   C21816508   3.900   1.077   5.617  0.3287  0.5377 -0.5447
   46MOL   C21916509   3.949   1.099   5.476  0.3151  0.1024  0.6497
   46MOL   C22016510   3.848   1.085   5.362 -0.0145  0.7671 -0.1590
   46MOL   O22116511   3.727   1.081   5.389  0.4695  0.2588  0.4478
   46MOL   O22216512   3.900   1.091   5.240  0.1742  0.1042 -0.1659
   46MOL   C22316513   3.807   1.086   5.125  0.2704 -0.2229 -0.3211
   46MOL   C22416514   3.832   0.957   5.039 -0.6754  0.0630  0.7911
   46MOL   C22516515   3.748   0.948   4.914  0.2603 -1.0402 -0.2551
   46MOL   H22616516   3.971   1.097   5.698 -0.1881  0.1141  0.0163
   46MOL   H22716517   3.835   1.160   5.643 -0.4649 -0.6245  1.2716
   46MOL   H22816518   4.029   1.026   5.466  1.5928  1.5063  0.5020
   46MOL   H22916519   3.704   1.089   5.162  0.3671 -2.8754  0.3050
   46MOL   H23016520   3.825   1.172   5.061  3.4607 -0.8479 -0.3162
   46MOL   H23116521   3.934   0.956   5.000 -1.2582  1.2384 -0.8144
   46MOL   H23216522   3.811   0.876   5.108 -0.0415  0.0334  0.9540
   46MOL   H23316523   3.783   0.871   4.845  1.8112  0.5884 -1.3601
   46MOL   H23416524   3.739   1.045   4.865 -1.9176  0.0842  2.2474
   46MOL   H23516525   3.649   0.925   4.951  1.3446 -2.2196  2.0261
   46MOL   C23616526   4.034   1.227   5.462 -0.5504 -0.4099 -0.4662
   46MOL   C23716527   3.971   1.368   5.448 -0.0540  0.4620 -0.4005
   46MOL   C23816528   3.927   1.441   5.579  0.4620  0.1704 -0.3018
   46MOL   O23916529   3.824   1.508   5.593 -0.3065  0.7562  0.0413
   46MOL   O24016530   4.020   1.425   5.675  0.4269  0.8367  0.2397
   46MOL   C24116531   4.010   1.498   5.802  0.3170  0.2117  0.6078
   46MOL   C24216532   4.150   1.509   5.864 -0.6256  0.6631 -0.4542
   46MOL   C24316533   4.223   1.379   5.881 -0.8226  0.0571  0.0462
   46MOL   H24416534   4.096   1.208   5.374 -0.1877  0.1411 -0.3335
   46MOL   H24516535   4.091   1.227   5.555 -0.6464  0.6853 -0.3958
   46MOL   H24616536   3.886   1.374   5.381  0.4615  0.9291 -1.0259
   46MOL   H24716537   3.953   1.591   5.803 -1.2315 -0.7075 -0.2982
   46MOL   H24816538   3.963   1.442   5.883 -0.0260  1.8619  1.5629
   46MOL   H24916539   4.208   1.587   5.814 -0.9461  1.3686  0.2584
   46MOL   H25016540   4.141   1.550   5.965  1.2106 -1.4200  0.6135
   46MOL   H25116541   4.310   1.385   5.947 -0.6325  0.2265 -0.2213
   46MOL   H25216542   4.255   1.342   5.784 -2.3913 -0.1787 -0.4100
   46MOL   H25316543   4.168   1.299   5.930 -1.8575  1.0260  0.5157
   46MOL   C25416544   4.064   1.461   5.355 -0.1940 -0.2931 -0.6043
   46MOL   C25516545   4.200   1.516   5.413  0.7274  0.1999  0.5189
   46MOL   C25616546   4.314   1.412   5.418  0.1896  0.2652  0.1174
   46MOL   O25716547   4.370   1.390   5.523 -0.4770  0.5160 -0.6218
   46MOL   O25816548   4.333   1.361   5.294 -0.4470 -0.0750 -0.1171
   46MOL   C25916549   4.440   1.268   5.282  0.2347 -0.2065 -0.1965
   46MOL   C26016550   4.399   1.161   5.178 -1.0527  0.4842  0.1121
   46MOL   C26116551   4.307   1.050   5.223 -0.7363  0.1653  0.2584
   46MOL   H26216552   3.996   1.542   5.331  1.8793  1.5832 -0.3155
   46MOL   H26316553   4.092   1.408   5.265  0.9351  0.7190 -0.8563
   46MOL   H26416554   4.185   1.535   5.519 -2.8396  1.9157 -0.2199
   46MOL   H26516555   4.515   1.339   5.246 -0.0138  0.4510  0.5479
   46MOL   H26616556   4.459   1.231   5.382  0.6840 -0.2512 -0.2987
   46MOL   H26716557   4.354   1.204   5.089  0.8780 -0.0384 -1.1422
   46MOL   H26816558   4.496   1.121   5.152 -0.7210  0.7887  0.8726
   46MOL   H26916559   4.279   1.059   5.328 -0.7385  1.3018  0.1675
   46MOL   H27016560   4.363   0.959   5.201 -1.1262  0.1513 -0.6988
   46MOL   H27116561   4.209   1.061   5.176 -0.5489 -2.1625 -0.7636
   46MOL   C27216562   4.256   1.646   5.353  0.2977 -0.2960 -1.1915
   46MOL   C27316563   4.175   1.770   5.390 -0.4006 -0.2080  1.1830
   46MOL   C27416564   4.172   1.804   5.539  0.3115 -0.1360  0.0320
   46MOL   O27516565   4.276   1.816   5.603 -0.1813  0.1333  0.0262
   46MOL   O27616566   4.046   1.824   5.586 -0.2378 -0.4581  0.2189
   46MOL   C27716567   4.031   1.868   5.723 -0.4978  0.5671  0.9669
   46MOL   C27816568   3.889   1.936   5.762 -0.4095  0.3840 -0.2448
   46MOL   C27916569   3.776   1.839   5.741 -0.3177  0.0282 -1.2363
   46MOL   H28016570   4.257   1.642   5.244 -0.5165 -0.5171 -1.1923
   46MOL   H28116571   4.362   1.659   5.376  0.2537 -0.0744 -1.1088
   46MOL   H28216572   4.077   1.731   5.365 -0.7146  1.6063 -0.5172
   46MOL   H28316573   4.055   1.791   5.796  0.1468  0.8558  1.0637
   46MOL   H28416574   4.109   1.944   5.734  0.9629 -0.7336 -0.3518
   46MOL   H28516575   3.894   1.957   5.869  3.1128 -0.8941 -0.0736
   46MOL   H28616576   3.871   2.020   5.695  0.4486  1.7536  1.2050
   46MOL   H28716577   3.797   1.782   5.651  0.6656 -0.7889 -0.5002
   46MOL   H28816578   3.685   1.899   5.734 -0.2446  0.2976 -0.0102
   46MOL   H28916579   3.769   1.755   5.810  1.7942 -0.3119 -1.4197
   46MOL   C29016580   4.211   1.892   5.298  0.0399 -0.1728  0.1943
   46MOL   C29116581   4.082   1.931   5.217 -0.3040  0.4348 -0.2498
   46MOL   C29216582   3.972   1.994   5.306  0.5996 -0.2860 -0.4168
   46MOL   O29316583   3.983   2.108   5.354  0.3453  0.0897 -0.2239
   46MOL   O29416584   3.865   1.919   5.318 -0.8094 -0.1100  0.5370
   46MOL   C29516585   3.749   1.953   5.378 -0.1767 -0.1070  0.2230
   46MOL   C29616586   3.654   2.042   5.296  0.0921 -0.6949 -0.1650
   46MOL   C29716587   3.517   2.052   5.354  0.7132 -0.3271 -0.1095
   46MOL   H29816588   4.294   1.868   5.233 -0.1210 -2.8017  0.8725
   46MOL   H29916589   4.247   1.976   5.357  1.0298 -0.0269 -0.6080
   46MOL   H30016590   4.027   1.841   5.189 -1.0833  0.5711  0.8059
   46MOL   H30116591   3.698   1.863   5.411 -0.0530 -0.8793 -1.5917
   46MOL   H30216592   3.780   2.003   5.469 -1.6034 -1.6457  1.5897
   46MOL   H30316593   3.688   2.146   5.301  0.8141 -1.0172  2.5409
   46MOL   H30416594   3.636   2.007   5.194  3.9357 -0.3697 -1.0044
   46MOL   H30516595   3.447   2.114   5.298  0.6858  0.3435  0.6682
   46MOL   H30616596   3.524   2.081   5.459 -1.3345 -0.6748  0.1396
   46MOL   H30716597   3.463   1.958   5.356  0.3531 -0.1167 -0.0298
   46MOL   C30816598   4.120   2.026   5.102 -0.8562  0.6450  0.6736
   46MOL   C30916599   4.016   2.053   4.993 -0.2247  0.7500  0.5817
   46MOL   C31016600   4.061   2.162   4.896 -0.8133  0.2334  0.5757
   46MOL   O31116601   4.121   2.142   4.794 -0.6476 -0.2357 -0.1557
   46MOL   O31216602   4.019   2.280   4.934 -0.4914  0.1967  0.3482
   46MOL   C31316603   4.068   2.398   4.866  0.3794 -0.0871  0.2114
   46MOL   C31416604   3.967   2.508   4.879  0.2199 -0.0033  0.6163
   46MOL   C31516605   4.012   2.651   4.843  0.1590  0.7834 -0.0198
   46MOL   H31616606   4.214   2.007   5.050 -2.0254 -0.6501 -1.0130
   46MOL   H31716607   4.140   2.119   5.154  0.4195  0.6027  0.2625
   46MOL   H31816608   3.919   2.084   5.030 -0.2922  1.3218 -0.0833
   46MOL   H31916609   4.164   2.428   4.908  1.5072 -0.7784 -1.8234
   46MOL   H32016610   4.089   2.385   4.760 -0.0412  0.6540  0.0291
   46MOL   H32116611   3.883   2.481   4.814 -0.7915  1.3932  1.3323
   46MOL   H32216612   3.926   2.509   4.980 -0.0968  1.2052  0.4813
   46MOL   H32316613   3.919   2.693   4.805 -0.2418 -0.1340 -0.0881
   46MOL   H32416614   4.060   2.723   4.909 -1.2075  1.0063  0.7283
   46MOL   H32516615   4.079   2.646   4.756  0.0161 -0.7750 -0.0544
   46MOL   C32616616   3.992   1.923   4.903 -0.7440  0.0198 -0.1034
   46MOL   C32716617   3.869   1.833   4.941  0.4003  0.2748 -0.2028
   46MOL   C32816618   3.743   1.893   4.885  0.1532  0.4074  1.0101
   46MOL   O32916619   3.735   1.933   4.771 -0.9608 -0.3243  0.5052
   46MOL   O33016620   3.645   1.878   4.974 -0.0638 -0.6961 -0.3537
   46MOL   C33116621   3.503   1.895   4.947 -0.1430  0.5737  0.4373
   46MOL   C33216622   3.430   1.765   4.909 -0.1980  0.6365  0.3726
   46MOL   C33316623   3.284   1.781   4.869 -0.2416 -0.3165  0.6263
   46MOL   H33416624   4.083   1.866   4.924 -0.7037  1.0308  2.6499
   46MOL   H33516625   3.987   1.950   4.797  2.2401  0.8609 -0.0699
   46MOL   H33616626   3.864   1.826   5.050  0.8494  0.5134 -0.1624
   46MOL   H33716627   3.469   1.926   5.046 -0.7375 -0.5555  0.5872
   46MOL   H33816628   3.486   1.978   4.878 -0.2458 -0.1082 -0.3651
   46MOL   H33916629   3.476   1.715   4.824 -4.0989 -3.6285  0.5431
   46MOL   H34016630   3.427   1.693   4.992  1.5481 -2.2716 -1.9740
   46MOL   H34116631   3.234   1.684   4.864 -0.6842 -0.0723  0.2665
   46MOL   H34216632   3.230   1.844   4.939 -0.5498  1.0240 -0.7854
   46MOL   H34316633   3.272   1.825   4.770 -0.4971  1.4549  1.4183
   46MOL   C34416634   3.899   1.690   4.889 -0.2476 -0.1327 -0.1026
   46MOL   C34516635   3.800   1.578   4.918 -0.5561 -0.1409 -0.1867
   46MOL   C34616636   3.780   1.524   5.061  0.3806  0.4819 -0.6223
   46MOL   O34716637   3.778   1.401   5.083  0.3035  0.1760  0.0950
   46MOL   O34816638   3.758   1.616   5.159 -0.3516  0.0899  0.7500
   46MOL   C34916639   3.708   1.582   5.287  0.3913  0.3144 -0.0861
   46MOL   C35016640   3.574   1.641   5.319 -0.0978  0.3993 -0.4756
   46MOL   C35116641   3.528   1.629   5.462  0.2072  0.2182  0.4810
   46MOL   H35216642   4.001   1.666   4.918  0.6363  0.0468 -2.8864
   46MOL   H35316643   3.909   1.701   4.781 -0.3133  1.0179  0.0011
   46MOL   H35416644   3.831   1.492   4.858 -1.4917 -1.2938  0.9518
   46MOL   H35516645   3.704   1.475   5.305  4.6516 -0.0377 -0.6795
   46MOL   H35616646   3.788   1.621   5.350  0.4169  3.4950 -1.9730
   46MOL   H35716647   3.585   1.748   5.299  1.1738  0.4876  0.5988
   46MOL   H35816648   3.507   1.598   5.245  0.7530  3.0019 -2.8631
   46MOL   H35916649   3.582   1.678   5.543  0.8041 -1.8271  1.3624
   46MOL   H36016650   3.427   1.668   5.473 -0.8292 -2.2993  0.2761
   46MOL   H36116651   3.522   1.523   5.488 -3.0823  0.5636  1.2937
   46MOL   H36216652   3.710   1.612   4.867 -0.5829 -0.2479 -0.2105
   47MOL     C116653   4.560   7.595   4.037  0.5365  1.1285  0.3414
   47MOL     C216654   4.541   7.448   3.982  0.0363 -0.3403  0.3224
   47MOL     C316655   4.432   7.439   3.878  0.2988  0.4775 -0.0463
   47MOL     O416656   4.324   7.384   3.893  0.3800  0.5219  0.2055
   47MOL     O516657   4.459   7.503   3.763 -0.0927  0.1133 -0.3466
   47MOL     C616658   4.354   7.527   3.667  0.6793  0.0586  0.1292
   47MOL     C716659   4.408   7.606   3.546 -0.4921 -0.5198 -0.1429
   47MOL     C816660   4.447   7.755   3.566  0.0418 -0.2233  0.0918
   47MOL     H916661   4.596   7.658   3.956  0.8270  0.8527  0.2501
   47MOL    H1016662   4.457   7.625   4.055 -0.2740  0.2071 -2.4785
   47MOL    H1116663   4.498   7.408   4.074 -1.9077  1.6608  0.3501
   47MOL    H1216664   4.312   7.433   3.630 -0.0216 -0.2266  1.6017
   47MOL    H1316665   4.266   7.571   3.712 -0.7605 -1.6071 -0.9726
   47MOL    H1416666   4.489   7.549   3.501 -0.7929 -0.4554 -0.7786
   47MOL    H1516667   4.323   7.615   3.479 -0.5418 -0.0135 -0.0129
   47MOL    H1616668   4.506   7.789   3.481  0.4563  0.7576  0.7709
   47MOL    H1716669   4.360   7.820   3.581  0.1424 -0.2560  0.8293
   47MOL    H1816670   4.519   7.780   3.644  1.0822 -0.7917 -0.6685
   47MOL    H1916671   4.623   7.584   4.125 -1.0723 -4.0495  1.0523
   47MOL    C2016672   4.677   7.369   3.959  0.3700  0.0569 -0.3522
   47MOL    C2116673   4.748   7.396   3.821  0.3005  0.4802 -0.1047
   47MOL    C2216674   4.801   7.540   3.813  0.0209  0.1848 -1.0564
   47MOL    O2316675   4.874   7.588   3.898  0.5359 -0.1065  0.4904
   47MOL    O2416676   4.779   7.596   3.691  0.4733 -0.3533  0.1720
   47MOL    C2516677   4.840   7.719   3.649 -0.2414 -0.3934  0.1165
   47MOL    C2616678   4.940   7.706   3.528 -0.1582  0.4102  0.0336
   47MOL    C2716679   5.060   7.622   3.577  0.2399 -0.0056  0.3939
   47MOL    H2816680   4.659   7.262   3.967  1.5771 -0.2692 -1.9265
   47MOL    H2916681   4.738   7.385   4.048  1.7695 -0.5671 -1.1837
   47MOL    H3016682   4.675   7.391   3.741 -1.8832  2.5117  1.7007
   47MOL    H3116683   4.761   7.782   3.608  0.4672 -0.3452 -1.2299
   47MOL    H3216684   4.884   7.773   3.732 -0.7851  0.4803 -0.1667
   47MOL    H3316685   4.895   7.652   3.444 -0.2382  1.0362 -0.3295
   47MOL    H3416686   4.980   7.797   3.484  0.0824  0.8012  1.0543
   47MOL    H3516687   5.123   7.586   3.495 -0.6792 -0.6719 -0.0267
   47MOL    H3616688   5.028   7.530   3.627  0.9824 -1.3912 -1.5983
   47MOL    H3716689   5.115   7.666   3.660  1.2313 -2.0961  0.8827
   47MOL    C3816690   4.869   7.295   3.792  0.1936 -0.7467  0.2572
   47MOL    C3916691   4.833   7.153   3.745 -0.3656  0.3153 -0.3921
   47MOL    C4016692   4.740   7.151   3.621 -0.7094 -0.0691  0.7805
   47MOL    O4116693   4.635   7.088   3.628  0.0977  0.3687  0.2393
   47MOL    O4216694   4.792   7.209   3.516 -0.5183 -0.4296 -0.5211
   47MOL    C4316695   4.721   7.211   3.390 -0.3220  0.2937 -0.3636
   47MOL    C4416696   4.683   7.360   3.359 -0.2600 -0.1948  0.2471
   47MOL    C4516697   4.800   7.422   3.288 -0.3683 -0.1658 -0.0365
   47MOL    H4616698   4.915   7.278   3.889 -0.5911  0.7786  0.9086
   47MOL    H4716699   4.932   7.337   3.713 -0.4212 -0.2431  0.0292
   47MOL    H4816700   4.777   7.095   3.818  0.1713 -1.0376 -1.0407
   47MOL    H4916701   4.774   7.153   3.314 -0.9753  1.3560 -1.6559
   47MOL    H5016702   4.632   7.148   3.398  1.1739 -1.8787 -0.3501
   47MOL    H5116703   4.604   7.354   3.285  0.8235  1.1002 -1.0353
   47MOL    H5216704   4.643   7.425   3.437 -2.0019  1.1744 -1.7389
   47MOL    H5316705   4.777   7.528   3.277  0.3429  0.0637  0.6107
   47MOL    H5416706   4.834   7.374   3.195 -1.9046 -1.1196 -0.1300
   47MOL    H5516707   4.887   7.431   3.352 -0.5575 -0.9814  0.3440
   47MOL    C5616708   4.967   7.068   3.732  0.6902 -0.4945 -0.1035
   47MOL    C5716709   4.950   6.923   3.768  0.2052 -0.1826 -0.1161
   47MOL    C5816710   4.921   6.838   3.650  0.3499 -0.6241 -0.1324
   47MOL    O5916711   4.810   6.776   3.637 -0.4897  0.5778 -0.5552
   47MOL    O6016712   5.010   6.856   3.557 -0.2341 -0.1900  0.5475
   47MOL    C6116713   4.994   6.788   3.434  0.3593 -0.1238  0.4704
   47MOL    C6216714   5.131   6.765   3.372  0.1285 -0.3440  0.0151
   47MOL    C6316715   5.132   6.680   3.248 -0.1389 -0.0076 -0.4363
   47MOL    H6416716   5.039   7.120   3.795  0.8112 -1.0467  0.2176
   47MOL    H6516717   5.009   7.090   3.634 -1.3166  1.2912 -0.6145
   47MOL    H6616718   4.864   6.917   3.835  0.4176 -1.3425  0.0577
   47MOL    H6716719   4.948   6.690   3.449 -0.5528  0.1918 -0.2144
   47MOL    H6816720   4.936   6.845   3.362  0.7713 -0.8533 -0.4547
   47MOL    H6916721   5.167   6.865   3.350  1.9244 -0.5280  1.9899
   47MOL    H7016722   5.192   6.717   3.448  0.8548  0.0046 -0.3485
   47MOL    H7116723   5.047   6.694   3.181 -0.0366 -3.1712 -1.2840
   47MOL    H7216724   5.129   6.575   3.277  0.3884  0.6184  1.9807
   47MOL    H7316725   5.225   6.694   3.194  1.4023  1.0886  2.3711
   47MOL    C7416726   5.074   6.869   3.841 -0.1697  0.1451 -0.0137
   47MOL    C7516727   5.095   6.715   3.865  0.5691 -0.2812 -0.7930
   47MOL    C7616728   5.176   6.649   3.758  0.0970 -0.2225  0.7311
   47MOL    O7716729   5.116   6.580   3.674 -0.1731 -0.3305  0.2373
   47MOL    O7816730   5.311   6.679   3.767 -0.1612  0.0251  0.1330
   47MOL    C7916731   5.408   6.612   3.693 -0.4460  0.1578 -0.4863
   47MOL    C8016732   5.523   6.578   3.787 -0.7702 -1.2803  0.2305
   47MOL    C8116733   5.647   6.494   3.722  0.1892 -0.3200  0.1660
   47MOL    H8216734   5.057   6.916   3.938 -4.2402  0.8254 -0.9445
   47MOL    H8316735   5.168   6.907   3.801 -0.2495  0.5970  0.2194
   47MOL    H8416736   4.995   6.671   3.865  0.1109  0.6924  1.2564
   47MOL    H8516737   5.368   6.522   3.647 -0.6798 -0.2202  0.4414
   47MOL    H8616738   5.441   6.674   3.610  0.1185 -1.7351 -1.7136
   47MOL    H8716739   5.561   6.677   3.814  1.6876 -2.3136  0.6445
   47MOL    H8816740   5.483   6.516   3.866 -2.6520 -0.1643  0.1838
   47MOL    H8916741   5.732   6.501   3.791  0.1189 -0.4058  0.2623
   47MOL    H9016742   5.687   6.541   3.632  2.4688 -1.8096  0.3508
   47MOL    H9116743   5.629   6.388   3.707 -2.4018 -0.2597  2.5092
   47MOL    C9216744   5.164   6.699   4.010 -0.0234 -0.6310  0.2576
   47MOL    C9316745   5.181   6.549   4.062 -0.1275 -0.2381 -0.6399
   47MOL    C9416746   5.273   6.539   4.188 -0.1831  0.4822  0.0951
   47MOL    O9516747   5.394   6.515   4.177  0.0147  0.0508 -0.3370
   47MOL    O9616748   5.211   6.578   4.296 -0.7137  0.5123  0.7030
   47MOL    C9716749   5.285   6.580   4.418  0.4003 -0.0514  0.5639
   47MOL    C9816750   5.225   6.480   4.519  0.1244 -0.3140 -0.6221
   47MOL    C9916751   5.286   6.347   4.496  0.2377 -0.9083  0.1358
   47MOL   H10016752   5.104   6.746   4.087  1.6025 -0.5167  1.4789
   47MOL   H10116753   5.256   6.758   4.020 -0.3001  0.2305 -1.8426
   47MOL   H10216754   5.237   6.495   3.985 -1.2272 -0.5069 -1.2627
   47MOL   H10316755   5.394   6.574   4.422  0.3360  0.0284  2.9851
   47MOL   H10416756   5.273   6.678   4.464  1.0135  0.5283 -0.4783
   47MOL   H10516757   5.260   6.515   4.616 -0.7530  1.4479 -0.9064
   47MOL   H10616758   5.117   6.483   4.520  0.0971 -1.1247  2.2769
   47MOL   H10716759   5.260   6.273   4.572 -0.5143 -0.5082  0.2712
   47MOL   H10816760   5.395   6.351   4.497  0.1824  0.9250  0.6213
   47MOL   H10916761   5.263   6.295   4.403 -0.4983  3.7222 -2.3858
   47MOL   C11016762   5.048   6.472   4.076 -0.9273  0.3159 -0.3653
   47MOL   C11116763   5.066   6.317   4.092 -0.2842  0.2872 -0.8403
   47MOL   C11216764   5.023   6.272   4.232  0.6249  0.6439  0.9086
   47MOL   O11316765   5.088   6.186   4.299  0.2633 -0.2605  0.1116
   47MOL   O11416766   4.901   6.320   4.273 -0.1842 -0.5092  0.0872
   47MOL   C11516767   4.853   6.281   4.402 -0.0558 -0.8658 -0.2416
   47MOL   C11616768   4.749   6.174   4.392 -0.6278 -0.0871  0.1534
   47MOL   C11716769   4.697   6.144   4.533 -0.0521 -0.1630  0.1746
   47MOL   H11816770   4.980   6.485   3.992 -1.0114 -1.1145 -0.5392
   47MOL   H11916771   4.994   6.511   4.162  3.4435  0.7116  2.3627
   47MOL   H12016772   5.174   6.310   4.086 -0.1551 -0.5137  1.7732
   47MOL   H12116773   4.930   6.255   4.476 -0.4741 -1.1666  0.0920
   47MOL   H12216774   4.808   6.379   4.416 -2.5083 -1.9782 -0.2181
   47MOL   H12316775   4.669   6.203   4.325 -1.6856 -1.6682  0.7102
   47MOL   H12416776   4.795   6.079   4.364  1.0575 -0.2411  3.1590
   47MOL   H12516777   4.771   6.177   4.606 -0.9423 -0.5079  1.2383
   47MOL   H12616778   4.673   6.038   4.543 -0.4059 -0.2241 -1.2344
   47MOL   H12716779   4.608   6.206   4.546  1.3988  1.7268  1.2607
   47MOL   C12816780   4.994   6.232   3.985 -0.0643  0.7194  0.5278
   47MOL   C12916781   5.050   6.244   3.839 -0.5888 -0.7489 -0.5190
   47MOL   C13016782   5.202   6.237   3.830 -0.1737  0.9001 -0.4046
   47MOL   O13116783   5.267   6.318   3.764  0.1101 -0.2340  0.2713
   47MOL   O13216784   5.251   6.134   3.891  0.1840  0.7782 -0.0038
   47MOL   C13316785   5.388   6.107   3.892 -0.9623 -0.1340 -0.3080
   47MOL   C13416786   5.451   6.154   4.028  0.2755 -0.1813 -0.6645
   47MOL   C13516787   5.397   6.083   4.150  0.0491  0.4797  0.0593
   47MOL   H13616788   4.886   6.247   3.983 -0.2575 -0.8005 -0.8428
   47MOL   H13716789   4.990   6.128   4.017 -0.0617  0.6511  0.3048
   47MOL   H13816790   5.017   6.337   3.792 -1.5085 -2.0620 -2.5757
   47MOL   H13916791   5.409   6.003   3.866 -0.6170  0.0826 -0.9106
   47MOL   H14016792   5.441   6.158   3.812  0.6675 -0.4254  0.5586
   47MOL   H14116793   5.558   6.134   4.025  0.9087  2.9601 -1.1015
   47MOL   H14216794   5.449   6.263   4.033 -1.4723 -0.2299 -0.0118
   47MOL   H14316795   5.460   6.121   4.231  0.2217 -0.1335  0.2098
   47MOL   H14416796   5.393   5.975   4.161 -1.0086  0.8448  4.1584
   47MOL   H14516797   5.297   6.121   4.173 -0.2306 -0.6484  0.7398
   47MOL   C14616798   4.966   6.142   3.760 -0.3000  0.7548  0.4359
   47MOL   C14716799   5.031   6.077   3.632 -0.3960  0.5232  0.7447
   47MOL   C14816800   5.129   5.952   3.647  0.5084  0.5934  0.2372
   47MOL   O14916801   5.128   5.885   3.746 -0.2959 -0.3447  0.7302
   47MOL   O15016802   5.201   5.943   3.531 -0.1373  0.7143  0.2094
   47MOL   C15116803   5.264   5.810   3.518 -0.1181 -0.6207  0.5754
   47MOL   C15216804   5.159   5.709   3.459  0.5369  0.4194 -0.1012
   47MOL   C15316805   5.050   5.649   3.550 -0.2592 -0.6035 -0.3836
   47MOL   H15416806   4.878   6.200   3.732  0.6299  1.7751 -0.4458
   47MOL   H15516807   4.935   6.062   3.827  3.3832 -1.2165 -0.0414
   47MOL   H15616808   5.101   6.151   3.592 -0.7828 -0.1440 -1.2337
   47MOL   H15716809   5.340   5.833   3.443  0.2334 -1.3115  0.7103
   47MOL   H15816810   5.310   5.770   3.609 -1.8725 -0.6945  1.4483
   47MOL   H15916811   5.126   5.762   3.370 -1.3490  0.5130  0.6327
   47MOL   H16016812   5.196   5.622   3.403 -2.6384 -0.1050 -1.5017
   47MOL   H16116813   4.979   5.604   3.481 -0.3110  0.4675 -1.0532
   47MOL   H16216814   4.986   5.721   3.601 -0.0849 -1.0083  0.4024
   47MOL   H16316815   5.092   5.577   3.620  2.0011  0.5357 -0.5059
   47MOL   C16416816   4.916   6.045   3.530  0.0391 -0.3927 -0.0038
   47MOL   C16516817   4.804   5.951   3.580  0.2976 -0.0799  0.5065
   47MOL   C16616818   4.681   6.027   3.643 -0.8299  0.6483  0.2287
   47MOL   O16716819   4.660   6.025   3.760 -0.3393  0.8713 -0.7362
   47MOL   O16816820   4.591   6.093   3.555  0.1091  0.2220 -0.0548
   47MOL   C16916821   4.468   6.145   3.607 -0.5150  0.4942 -0.2050
   47MOL   C17016822   4.407   6.180   3.479  1.1468  0.4964  0.3737
   47MOL   C17116823   4.339   6.058   3.395 -0.2482 -0.1538 -0.6202
   47MOL   H17216824   4.966   6.005   3.442  1.5502  0.3847  0.4807
   47MOL   H17316825   4.871   6.136   3.491 -3.5906 -1.5921  1.1911
   47MOL   H17416826   4.841   5.885   3.659 -1.9501 -0.5078  1.2513
   47MOL   H17516827   4.424   6.066   3.668 -2.5854  2.5419  1.0144
   47MOL   H17616828   4.498   6.227   3.672 -1.5564 -0.2489  1.2336
   47MOL   H17716829   4.332   6.252   3.511 -0.0280 -0.7791  0.5828
   47MOL   H17816830   4.476   6.232   3.412  2.7885 -0.7961  1.0257
   47MOL   H17916831   4.420   5.991   3.366 -0.3634 -0.0554 -1.1767
   47MOL   H18016832   4.289   6.093   3.305  0.5584 -5.0555 -3.1436
   47MOL   H18116833   4.267   6.008   3.459 -0.1565  1.7329  0.9923
   47MOL   C18216834   4.759   5.863   3.461  0.0656 -0.3947  0.2136
   47MOL   C18316835   4.648   5.760   3.498 -0.4741  0.2184  0.0037
   47MOL   C18416836   4.607   5.681   3.380  0.0689 -0.5804  0.1415
   47MOL   O18516837   4.493   5.683   3.335 -0.0677  0.1874 -0.2033
   47MOL   O18616838   4.709   5.612   3.323  0.3392 -0.4555  0.3091
   47MOL   C18716839   4.695   5.505   3.226 -0.0220  0.1941  0.7616
   47MOL   C18816840   4.678   5.371   3.299 -0.1888  0.3200 -0.0502
   47MOL   C18916841   4.812   5.312   3.352 -0.0167  0.1792 -0.0587
   47MOL   H19016842   4.846   5.817   3.413 -0.7904 -0.9790 -0.7986
   47MOL   H19116843   4.721   5.937   3.391 -0.9441 -0.0483  1.1258
   47MOL   H19216844   4.561   5.822   3.517  0.7025  1.9277 -0.0766
   47MOL   H19316845   4.598   5.519   3.177 -0.5458 -0.3706  1.6347
   47MOL   H19416846   4.781   5.505   3.158 -0.0304 -0.4372  0.7460
   47MOL   H19516847   4.619   5.388   3.389  0.7946 -0.1267  0.6873
   47MOL   H19616848   4.620   5.305   3.235  0.9743 -1.9636  1.2031
   47MOL   H19716849   4.804   5.218   3.406  1.0599  0.9476  1.4754
   47MOL   H19816850   4.856   5.389   3.416 -1.8425  1.1356  0.0961
   47MOL   H19916851   4.881   5.304   3.268  0.6662 -3.6558  0.7947
   47MOL   C20016852   4.688   5.668   3.619 -0.0201 -0.0733  0.0658
   47MOL   C20116853   4.561   5.583   3.667 -0.3195  0.5121  0.2845
   47MOL   C20216854   4.613   5.464   3.741 -0.2763 -0.4703 -0.6679
   47MOL   O20316855   4.599   5.358   3.690  0.3701  0.0970 -0.6039
   47MOL   O20416856   4.667   5.491   3.868  0.0547 -0.4412  0.0298
   47MOL   C20516857   4.741   5.400   3.946 -0.0083  0.2788  0.4032
   47MOL   C20616858   4.888   5.394   3.891 -0.5085  0.4992  0.4204
   47MOL   C20716859   4.964   5.525   3.931 -0.4136  0.7193  0.3284
   47MOL   H20816860   4.718   5.733   3.701 -0.7903  0.3505  0.0211
   47MOL   H20916861   4.771   5.605   3.589 -1.6880 -1.8337 -0.9686
   47MOL   H21016862   4.514   5.549   3.574 -1.1333 -1.2153  1.3138
   47MOL   H21116863   4.737   5.426   4.052 -0.2487  0.0039  0.4624
   47MOL   H21216864   4.712   5.296   3.926  3.0043 -0.4274 -0.5646
   47MOL   H21316865   4.939   5.308   3.933 -1.8216  0.0601  1.1419
   47MOL   H21416866   4.882   5.378   3.783 -0.9295 -2.5859  0.8678
   47MOL   H21516867   4.911   5.610   3.889 -2.0173  0.1255  1.0885
   47MOL   H21616868   5.066   5.522   3.893  0.4371 -1.5080  2.6416
   47MOL   H21716869   4.977   5.527   4.039  0.4791 -2.5586  0.3333
   47MOL   C21816870   4.454   5.675   3.746 -0.0857 -0.1948 -0.0645
   47MOL   C21916871   4.317   5.612   3.774 -1.3744 -0.1904  0.7890
   47MOL   C22016872   4.233   5.596   3.644 -0.7132  0.2514  1.0841
   47MOL   O22116873   4.194   5.485   3.605  0.3674 -0.4615 -0.0513
   47MOL   O22216874   4.229   5.708   3.569 -0.6158 -0.2821 -0.1237
   47MOL   C22316875   4.139   5.717   3.461 -0.2304 -0.4606  0.5190
   47MOL   C22416876   4.193   5.675   3.324 -0.0140  0.0307  0.3895
   47MOL   C22516877   4.084   5.666   3.221 -0.1041 -0.5347 -0.9312
   47MOL   H22616878   4.448   5.763   3.682 -0.5799  1.4415  2.1674
   47MOL   H22716879   4.494   5.719   3.838  1.9507 -1.7376 -0.1765
   47MOL   H22816880   4.260   5.692   3.821 -1.2347 -1.4433  3.1544
   47MOL   H22916881   4.047   5.663   3.485 -0.2887 -0.8497 -0.5598
   47MOL   H23016882   4.093   5.817   3.461 -1.3512 -0.9628  0.4221
   47MOL   H23116883   4.262   5.748   3.282  0.0197  1.5596  2.9753
   47MOL   H23216884   4.233   5.574   3.327 -0.7047 -0.2943 -0.8549
   47MOL   H23316885   3.990   5.622   3.253 -0.6835 -0.0800 -1.9713
   47MOL   H23416886   4.105   5.626   3.122 -1.2605 -2.0181 -0.5949
   47MOL   H23516887   4.044   5.764   3.194  0.5527 -0.1054 -0.3725
   47MOL   C23616888   4.295   5.482   3.858  0.5729 -0.0289  0.5646
   47MOL   C23716889   4.351   5.480   4.002 -0.7607  0.6771  0.5430
   47MOL   C23816890   4.282   5.573   4.106 -0.0091 -0.4365  0.1164
   47MOL   O23916891   4.188   5.638   4.064  0.6171 -0.3713 -0.4849
   47MOL   O24016892   4.344   5.586   4.224  0.3423  0.8847  0.6102
   47MOL   C24116893   4.260   5.666   4.315 -0.0198  1.0691  0.0361
   47MOL   C24216894   4.167   5.583   4.403 -0.3772 -0.2903 -0.6229
   47MOL   C24316895   4.098   5.668   4.516  0.2266 -0.1986  0.5312
   47MOL   H24416896   4.331   5.395   3.803 -0.7089 -0.0042 -0.3520
   47MOL   H24516897   4.187   5.473   3.872  0.6340 -0.5598  0.6711
   47MOL   H24616898   4.447   5.524   3.975 -0.5405  0.1344  0.4307
   47MOL   H24716899   4.342   5.703   4.376 -0.1426 -1.1715  1.6280
   47MOL   H24816900   4.215   5.759   4.280  0.7594  1.5839  0.3735
   47MOL   H24916901   4.086   5.525   4.359 -0.5253  0.2167 -1.0225
   47MOL   H25016902   4.234   5.510   4.448 -1.1475  1.2386  3.1745
   47MOL   H25116903   4.055   5.761   4.480 -0.5712 -0.6236  0.3855
   47MOL   H25216904   4.177   5.701   4.584  0.9657  0.1496 -0.4757
   47MOL   H25316905   4.021   5.605   4.559 -0.7432  0.3944 -0.3274
   47MOL   C25416906   4.399   5.348   4.065 -0.2173 -0.4916 -0.0227
   47MOL   C25516907   4.288   5.253   4.117 -0.2024  0.0846  0.7758
   47MOL   C25616908   4.167   5.227   4.026 -0.8302 -0.0428 -0.4409
   47MOL   O25716909   4.060   5.274   4.060  0.3255  0.7385 -0.3040
   47MOL   O25816910   4.194   5.164   3.914  0.6784  0.0260  0.1531
   47MOL   C25916911   4.090   5.134   3.819  0.3043 -0.0419 -0.2170
   47MOL   C26016912   3.997   5.020   3.871  0.0572 -0.1639  0.5126
   47MOL   C26116913   4.068   4.891   3.884  0.3065 -0.4285  0.2945
   47MOL   H26216914   4.460   5.378   4.150 -0.6466  2.0076 -0.5671
   47MOL   H26316915   4.476   5.304   4.001  0.4937  1.5538 -0.5863
   47MOL   H26416916   4.239   5.308   4.197  0.0854  0.5450  0.6410
   47MOL   H26516917   4.038   5.226   3.793 -0.9861 -0.9508 -0.9405
   47MOL   H26616918   4.136   5.100   3.726 -1.9562 -0.9468 -1.0469
   47MOL   H26716919   3.955   5.055   3.965 -0.2126 -0.1520  0.3875
   47MOL   H26816920   3.926   5.000   3.791  2.1447 -0.3097 -1.3618
   47MOL   H26916921   4.163   4.905   3.937  0.0134  0.5427  0.5705
   47MOL   H27016922   4.086   4.853   3.783 -0.5209 -0.9311  0.3342
   47MOL   H27116923   3.990   4.831   3.931 -1.1132  0.7455 -0.5395
   47MOL   C27216924   4.353   5.119   4.167 -0.2846  0.0821  0.0221
   47MOL   C27316925   4.468   5.133   4.270 -0.1819  0.3926 -0.0631
   47MOL   C27416926   4.447   5.055   4.406 -0.5740 -0.2088 -0.6569
   47MOL   O27516927   4.536   4.978   4.441  0.4635  0.1254 -0.5075
   47MOL   O27616928   4.341   5.081   4.478 -0.1168  0.1406 -0.2547
   47MOL   C27716929   4.309   5.020   4.603  0.1134 -0.1142  0.2306
   47MOL   C27816930   4.158   4.995   4.629 -0.1774  0.5870  1.0629
   47MOL   C27916931   4.098   4.880   4.554 -0.2062  0.2860  0.4996
   47MOL   H28016932   4.396   5.072   4.079 -0.0995 -1.4793  0.9260
   47MOL   H28116933   4.281   5.043   4.199  0.1003 -0.1272  0.3977
   47MOL   H28216934   4.451   5.237   4.298 -4.6820 -0.8813  2.4176
   47MOL   H28316935   4.362   4.926   4.616  2.0787  0.6443 -1.9732
   47MOL   H28416936   4.344   5.086   4.682  2.0800 -0.3131 -0.4536
   47MOL   H28516937   4.149   4.975   4.736  2.8925  1.6121  1.5608
   47MOL   H28616938   4.108   5.086   4.595 -0.5551  1.2693  3.3890
   47MOL   H28716939   4.147   4.788   4.587  1.1288  1.1729  1.0183
   47MOL   H28816940   4.119   4.889   4.447  0.1217 -0.9538  0.4445
   47MOL   H28916941   3.989   4.880   4.555 -0.2552 -0.2937 -1.3677
   47MOL   C29016942   4.618   5.125   4.207 -0.2459 -0.6834  0.1136
   47MOL   C29116943   4.734   5.187   4.291 -0.1958  0.5829  0.3074
   47MOL   C29216944   4.867   5.175   4.216 -0.4544 -0.3696  0.0543
   47MOL   O29316945   4.872   5.109   4.111 -0.4339 -0.1522 -0.2882
   47MOL   O29416946   4.975   5.243   4.265  0.5546 -0.3818  0.2455
   47MOL   C29516947   5.099   5.223   4.193 -0.7797  0.2185  0.0946
   47MOL   C29616948   5.206   5.327   4.243  0.1597  0.4121  0.2589
   47MOL   C29716949   5.331   5.315   4.160  0.3655  0.3925  0.6562
   47MOL   H29816950   4.628   5.150   4.101  1.5004  2.1244  0.8918
   47MOL   H29916951   4.630   5.017   4.199  3.4101 -0.4333  1.5804
   47MOL   H30016952   4.753   5.124   4.378 -0.3172  1.2499  0.8187
   47MOL   H30116953   5.131   5.120   4.206 -2.6062 -0.4549 -0.7132
   47MOL   H30216954   5.087   5.239   4.086  0.2833  0.2997 -0.0216
   47MOL   H30316955   5.169   5.429   4.236  1.1061  0.6717 -1.4184
   47MOL   H30416956   5.226   5.303   4.347 -0.1633 -4.3281 -0.6664
   47MOL   H30516957   5.368   5.212   4.166 -0.7767 -0.0140  0.8391
   47MOL   H30616958   5.409   5.381   4.197 -2.3116  3.7262  0.5515
   47MOL   H30716959   5.307   5.323   4.054  2.3116 -0.7699  0.0997
   47MOL   C30816960   4.706   5.334   4.334 -0.4010 -0.6168 -0.5407
   47MOL   C30916961   4.629   5.355   4.474 -0.0703 -0.2232 -0.1287
   47MOL   C31016962   4.704   5.298   4.598  0.0065  0.1730 -0.2506
   47MOL   O31116963   4.823   5.260   4.587 -0.5369  0.4198  0.0623
   47MOL   O31216964   4.626   5.293   4.708 -0.2171  0.9944 -0.1241
   47MOL   C31316965   4.681   5.244   4.822  0.3245 -0.5894  0.4144
   47MOL   C31416966   4.604   5.301   4.946  0.1338 -0.0038 -0.4888
   47MOL   C31516967   4.462   5.242   4.969 -0.3445 -0.1602 -0.0794
   47MOL   H31616968   4.645   5.389   4.264  0.0480  1.1095  0.3976
   47MOL   H31716969   4.807   5.375   4.343 -0.2951 -0.9152 -0.3235
   47MOL   H31816970   4.541   5.292   4.470 -1.1914  1.2714  0.6599
   47MOL   H31916971   4.675   5.135   4.822 -0.2476 -0.5579  0.2506
   47MOL   H32016972   4.782   5.281   4.839  1.3887 -2.0189 -2.4583
   47MOL   H32116973   4.663   5.278   5.034  1.4641  0.0036 -1.3659
   47MOL   H32216974   4.603   5.410   4.938 -2.1772  0.0680  0.3582
   47MOL   H32316975   4.416   5.314   5.036  0.0034 -1.1934  1.2902
   47MOL   H32416976   4.398   5.247   4.881 -0.5062 -0.1334  0.0385
   47MOL   H32516977   4.447   5.146   5.018  0.0693 -0.5379 -0.6904
   47MOL   C32616978   4.562   5.506   4.497 -0.0879  0.2905 -0.1045
   47MOL   C32716979   4.668   5.599   4.558 -0.3335  0.1597 -0.6745
   47MOL   C32816980   4.758   5.661   4.449  0.6958 -0.6448 -0.6952
   47MOL   O32916981   4.869   5.625   4.425 -0.2004  0.5810  0.2852
   47MOL   O33016982   4.694   5.762   4.393  0.4547 -0.3270  0.0244
   47MOL   C33116983   4.746   5.836   4.277  0.1051  0.9416  0.1092
   47MOL   C33216984   4.731   5.762   4.142 -0.1704  0.0759 -0.3187
   47MOL   C33316985   4.770   5.845   4.023  0.2101  0.6342  0.6067
   47MOL   H33416986   4.475   5.486   4.560  0.6033  0.2234  0.8479
   47MOL   H33516987   4.520   5.546   4.405  4.0255 -0.9704 -2.6172
   47MOL   H33616988   4.748   5.545   4.609  0.1456  1.6528  0.2112
   47MOL   H33716989   4.677   5.920   4.273 -1.2439 -0.1937 -1.0850
   47MOL   H33816990   4.850   5.865   4.294  0.6839 -0.7901 -0.3838
   47MOL   H33916991   4.779   5.664   4.134 -0.5325 -0.2813  1.7927
   47MOL   H34016992   4.626   5.740   4.119 -0.3803 -1.2303  1.7703
   47MOL   H34116993   4.879   5.846   4.019  0.1969  0.4659  0.2662
   47MOL   H34216994   4.744   5.805   3.926 -2.5364  1.3882  0.9833
   47MOL   H34316995   4.739   5.948   4.042 -1.7042  0.1898 -0.0426
   47MOL   C34416996   4.603   5.713   4.651 -0.1246  0.6072  0.1317
   47MOL   C34516997   4.550   5.655   4.783  0.0223  0.3592 -0.1454
   47MOL   C34616998   4.502   5.766   4.882 -1.0815  0.1277 -0.1595
   47MOL   O34716999   4.511   5.883   4.846  1.1128 -0.2046  0.0117
   47MOL   O34817000   4.462   5.713   4.994 -0.0504  0.8519 -0.0994
   47MOL   C34917001   4.422   5.789   5.109  0.0033  0.4659 -0.0257
   47MOL   C35017002   4.299   5.733   5.175  0.0529  0.1242  0.2417
   47MOL   C35117003   4.173   5.758   5.093 -0.3302  0.1021 -0.3024
   47MOL   H35217004   4.529   5.774   4.600  0.9373  0.9442 -1.0193
   47MOL   H35317005   4.686   5.779   4.675  1.0007 -0.8769  0.4087
   47MOL   H35417006   4.625   5.586   4.821  0.3615 -0.3491 -2.0276
   47MOL   H35517007   4.509   5.802   5.173 -1.7683 -2.4086  3.1513
   47MOL   H35617008   4.395   5.889   5.075  2.0213  0.3760 -2.0090
   47MOL   H35717009   4.311   5.629   5.207 -0.7797  0.4555  1.6934
   47MOL   H35817010   4.286   5.784   5.271  0.1174 -1.0773  0.9073
   47MOL   H35917011   4.087   5.717   5.147 -0.0924 -1.0273 -0.7547
   47MOL   H36017012   4.164   5.866   5.082 -2.1223  0.0951  0.8801
   47MOL   H36117013   4.180   5.709   4.996  2.2679 -1.2719  0.5495
   47MOL   H36217014   4.463   5.598   4.752  0.3885  0.5609 -1.5932
   48MOL     C117015   7.161   0.341   5.236  0.2781  0.3273 -0.1780
   48MOL     C217016   7.299   0.315   5.296  0.2171  0.1788 -0.2613
   48MOL     C317017   7.389   0.440   5.279  0.1949 -0.1605 -0.0840
   48MOL     O417018   7.482   0.429   5.206  0.0999 -0.1399 -1.4017
   48MOL     O517019   7.356   0.555   5.337 -0.0589 -0.2675  0.1899
   48MOL     C617020   7.433   0.666   5.320 -0.4256 -0.0409 -0.4467
   48MOL     C717021   7.363   0.773   5.394 -0.6225 -0.4109 -0.1202
   48MOL     C817022   7.372   0.764   5.545  0.2839  0.1715 -0.0715
   48MOL     H917023   7.128   0.443   5.257  2.0398  1.8628 -4.3793
   48MOL    H1017024   7.180   0.317   5.131  0.0553  0.7253 -0.3081
   48MOL    H1117025   7.342   0.238   5.232  1.9994  1.6116 -0.8251
   48MOL    H1217026   7.537   0.654   5.350  0.1010  1.5338 -1.5548
   48MOL    H1317027   7.436   0.687   5.213 -0.0380  0.5715 -0.3208
   48MOL    H1417028   7.408   0.864   5.355 -0.2806 -0.6114 -0.1978
   48MOL    H1517029   7.258   0.782   5.370 -1.6236  1.4291  4.4368
   48MOL    H1617030   7.330   0.854   5.592  0.6961  0.3741 -0.0876
   48MOL    H1717031   7.328   0.670   5.576  0.4011  0.5877  1.4349
   48MOL    H1817032   7.474   0.745   5.577 -0.8004 -0.1060  3.4385
   48MOL    H1917033   7.081   0.269   5.255 -1.6090  1.9558 -1.6948
   48MOL    C2017034   7.294   0.277   5.452 -0.0200  0.3864 -0.0925
   48MOL    C2117035   7.425   0.241   5.532 -0.4152  0.2489 -0.1676
   48MOL    C2217036   7.498   0.125   5.461 -0.3624 -0.6655  0.1115
   48MOL    O2317037   7.614   0.103   5.484  0.2048 -0.1873  0.0489
   48MOL    O2417038   7.425   0.051   5.379  0.2584  0.3673  0.6781
   48MOL    C2517039   7.486   7.839   5.291 -0.1469 -0.6931  0.6222
   48MOL    C2617040   7.430   7.857   5.152  0.2174 -0.4855 -0.5310
   48MOL    C2717041   7.487   7.757   5.055 -0.4267 -0.3224 -0.6632
   48MOL    H2817042   7.229   0.191   5.462  0.1866  0.3846  1.3440
   48MOL    H2917043   7.242   0.357   5.505 -1.9345  0.2369 -1.7225
   48MOL    H3017044   7.399   0.193   5.627  0.5041  0.0264 -0.0230
   48MOL    H3117045   7.593   7.853   5.304 -0.4030  0.7444  1.2776
   48MOL    H3217046   7.464   7.737   5.323 -0.8914 -0.5777  0.4911
   48MOL    H3317047   7.323   7.841   5.167  0.5646 -2.5160 -0.1090
   48MOL    H3417048   7.454   0.080   5.128 -1.2840  1.4329  5.3759
   48MOL    H3517049   7.490   7.655   5.094  0.9826  0.0733  0.2952
   48MOL    H3617050   7.592   7.775   5.032 -0.4726  1.9480  0.8306
   48MOL    H3717051   7.432   7.746   4.961 -0.7619  0.7063 -0.5870
   48MOL    C3817052   7.513   0.367   5.558 -0.0117  0.8793  0.7600
   48MOL    C3917053   7.587   0.393   5.701 -0.6607 -0.0431  0.3022
   48MOL    C4017054   7.499   0.397   5.826  0.2300 -0.2748  0.1413
   48MOL    O4117055   7.494   0.500   5.894 -0.2022 -0.3141 -0.3484
   48MOL    O4217056   7.422   0.293   5.845 -0.3310 -0.2087 -0.0955
   48MOL    C4317057   7.317   0.304   5.939 -0.0504 -0.1584 -0.1921
   48MOL    C4417058   7.181   0.324   5.856  0.0001 -1.0750  0.2832
   48MOL    C4517059   7.150   0.466   5.799 -0.8069  0.1051 -0.1807
   48MOL    H4617060   7.455   0.459   5.547 -0.5117  0.5318  0.4444
   48MOL    H4717061   7.587   0.389   5.481  0.0405  0.1567  0.5993
   48MOL    H4817062   7.619   0.496   5.713  1.5434 -0.8825  2.1517
   48MOL    H4917063   7.318   0.209   5.993 -0.0284 -0.7523 -1.2257
   48MOL    H5017064   7.319   0.384   6.014 -1.4012 -0.8504  0.6000
   48MOL    H5117065   7.184   0.254   5.772  0.7819 -1.4285  0.5957
   48MOL    H5217066   7.098   0.307   5.925  1.1524  0.3673  2.0682
   48MOL    H5317067   7.123   0.542   5.873  0.2365 -0.7881  1.1492
   48MOL    H5417068   7.080   0.479   5.716  0.5111  0.9104 -1.1810
   48MOL    H5517069   7.242   0.509   5.759 -0.5435  0.8705  1.2219
   48MOL    C5617070   7.708   0.299   5.728 -0.0618  0.4500  0.6996
   48MOL    C5717071   7.792   0.342   5.853 -0.0825 -0.2086 -0.0710
   48MOL    C5817072   0.041   0.257   5.851  0.9519 -0.0899 -0.3256
   48MOL    O5917073   0.057   0.181   5.946  0.1434  0.4089  0.2194
   48MOL    O6017074   0.114   0.259   5.743 -0.5405  0.2858 -0.0696
   48MOL    C6117075   0.230   0.180   5.746  1.1195  0.0908  0.9914
   48MOL    C6217076   0.257   0.119   5.608  0.2401  0.1814  0.1844
   48MOL    C6317077   0.303   0.226   5.503 -0.2555 -0.6720 -0.2862
   48MOL    H6417078   7.768   0.294   5.637  0.9217 -1.9940  1.4419
   48MOL    H6517079   7.677   0.196   5.745  0.9868 -0.0196 -0.1663
   48MOL    H6617080   7.725   0.316   5.934 -0.1855  0.8262  0.1797
   48MOL    H6717081   0.320   0.232   5.778  0.8789  0.4775  1.0356
   48MOL    H6817082   0.226   0.094   5.813 -0.0189  0.5450  1.5152
   48MOL    H6917083   0.331   0.039   5.619  0.5073  0.3009 -0.7278
   48MOL    H7017084   0.166   0.074   5.570  0.8529 -1.2226  0.3480
   48MOL    H7117085   0.394   0.281   5.525 -1.5021  1.6715 -0.8198
   48MOL    H7217086   0.225   0.301   5.486  0.7819  0.0949 -1.7155
   48MOL    H7317087   0.317   0.180   5.405  2.3375 -0.8713  0.1462
   48MOL    C7417088   7.831   0.491   5.868  0.1173 -0.1539 -0.4775
   48MOL    C7517089   7.841   0.534   6.018  0.5441  0.5446  0.0573
   48MOL    C7617090   0.073   0.473   6.108 -0.2619 -0.1869 -0.2360
   48MOL    O7717091   0.054   0.402   6.210  0.6472  0.1715  0.4446
   48MOL    O7817092   0.195   0.508   6.056 -0.3565  0.5137 -0.2698
   48MOL    C7917093   0.315   0.485   6.136 -0.1672 -0.1950 -0.3542
   48MOL    C8017094   0.405   0.607   6.135 -0.2563  0.1277 -0.0235
   48MOL    C8117095   0.344   0.748   6.168 -0.0795  0.5597  0.0082
   48MOL    H8217096   7.761   0.559   5.819 -0.5508 -1.5415 -1.4790
   48MOL    H8317097   0.046   0.513   5.821 -0.8620  1.9639 -1.5985
   48MOL    H8417098   7.744   0.502   6.056  0.0274  3.7980  1.7064
   48MOL    H8517099   0.273   0.455   6.232  0.2733 -1.8914 -0.6828
   48MOL    H8617100   0.363   0.398   6.092 -1.2988 -0.0356 -1.9629
   48MOL    H8717101   0.480   0.586   6.212 -0.5172  0.4226  0.3112
   48MOL    H8817102   0.460   0.613   6.041 -3.5440 -0.6655 -2.0817
   48MOL    H8917103   0.272   0.740   6.249 -1.6358 -3.0754 -1.6262
   48MOL    H9017104   0.294   0.784   6.078  2.1791 -0.8907 -1.8947
   48MOL    H9117105   0.415   0.824   6.202  1.2047 -0.7599  0.3030
   48MOL    C9217106   7.834   0.698   6.033 -0.5298  0.2524  0.1741
   48MOL    C9317107   7.829   0.742   6.180  0.1941  0.3867 -0.3972
   48MOL    C9417108   7.872   0.887   6.205  0.7909  0.5702  0.4655
   48MOL    O9517109   0.079   0.922   6.282  0.2295  0.0217  0.2259
   48MOL    O9617110   7.788   0.984   6.141 -0.1341 -0.2526 -0.7463
   48MOL    C9717111   7.821   1.123   6.145  1.0519  0.0484 -1.1332
   48MOL    C9817112   7.723   1.200   6.236 -0.0012  0.1236  0.0678
   48MOL    C9917113   7.744   1.352   6.215  0.5911 -0.2356 -0.4598
   48MOL   H10017114   7.749   0.740   5.980  0.1231 -0.7116 -1.7023
   48MOL   H10117115   0.047   0.729   5.986 -1.4086 -1.1831 -2.6526
   48MOL   H10217116   0.020   0.684   6.237 -1.5457  0.4093  1.8506
   48MOL   H10317117   0.046   1.141   6.167  0.7980 -1.9369  2.0594
   48MOL   H10417118   7.805   1.165   6.046  0.9783 -2.9063 -2.4094
   48MOL   H10517119   7.626   1.172   6.195  0.6131  0.0388 -1.3625
   48MOL   H10617120   7.723   1.172   6.341 -0.3682  0.3995  0.1415
   48MOL   H10717121   7.727   1.384   6.112 -0.4707  1.8877  0.3382
   48MOL   H10817122   7.844   1.375   6.253  0.3857 -0.6388  0.3425
   48MOL   H10917123   7.674   1.400   6.284 -0.3087 -1.2418 -0.6671
   48MOL   C11017124   7.690   0.712   6.241  0.1173 -0.6316  0.0911
   48MOL   C11117125   7.673   0.736   6.390  0.8501  0.5950  0.0856
   48MOL   C11217126   7.604   0.872   6.421  0.3064  0.7208 -0.5579
   48MOL   O11317127   7.519   0.914   6.346 -0.4816  0.0192  0.2491
   48MOL   O11417128   7.628   0.917   6.539 -0.0880  0.2658 -0.2843
   48MOL   C11517129   7.566   1.038   6.582 -0.4831  0.0176  1.1885
   48MOL   C11617130   7.483   1.019   6.706  0.1036 -0.1533  0.6786
   48MOL   C11717131   7.365   0.932   6.654 -0.3124  0.6084  0.0204
   48MOL   H11817132   7.668   0.608   6.214  0.4521 -0.6289 -0.2078
   48MOL   H11917133   7.615   0.757   6.178 -1.0529  1.5740  2.9701
   48MOL   H12017134   7.772   0.743   6.435  1.6951  1.2878 -1.7859
   48MOL   H12117135   7.646   1.110   6.600 -0.2449  0.6706 -2.2819
   48MOL   H12217136   7.525   1.088   6.495  2.2733 -0.6619 -0.5664
   48MOL   H12317137   7.542   0.974   6.786  0.0359 -0.4970  0.5371
   48MOL   H12417138   7.455   1.113   6.754  0.6014  0.0838  0.5010
   48MOL   H12517139   7.308   0.972   6.570 -1.8875 -1.3766  0.0853
   48MOL   H12617140   7.292   0.916   6.733  0.1947 -0.7998  0.2136
   48MOL   H12717141   7.411   0.835   6.634 -0.4706  0.9681 -2.3171
   48MOL   C12817142   7.594   0.626   6.452 -0.0662 -0.0360  0.5704
   48MOL   C12917143   7.665   0.492   6.464 -0.0138 -0.6935  0.3520
   48MOL   C13017144   7.777   0.484   6.565 -0.3894  0.3548  0.2298
   48MOL   O13117145   7.778   0.562   6.661  0.1894 -0.1120 -0.1418
   48MOL   O13217146   7.874   0.399   6.535  0.4759 -0.4331  0.2547
   48MOL   C13317147   0.114   0.409   6.608  0.0531  0.0856  0.1170
   48MOL   C13417148   0.104   0.316   6.732 -0.3658 -0.5838 -0.4620
   48MOL   C13517149   0.235   0.303   6.812  0.5341  0.1705 -0.2075
   48MOL   H13617150   7.500   0.619   6.397 -0.3829  0.0365  1.0972
   48MOL   H13717151   7.569   0.654   6.555  0.2849  1.1191  0.3496
   48MOL   H13817152   7.717   0.466   6.371  0.0271 -0.0404  0.1923
   48MOL   H13917153   0.203   0.375   6.555 -0.0200  0.1530 -0.0481
   48MOL   H14017154   0.132   0.515   6.626  0.1209  0.0645  0.1721
   48MOL   H14117155   0.025   0.355   6.797  0.8649  0.7648  0.2392
   48MOL   H14217156   0.085   0.216   6.693 -0.6507 -0.1816 -1.3819
   48MOL   H14317157   0.262   0.396   6.861 -1.4259  0.6721 -0.0115
   48MOL   H14417158   0.326   0.281   6.756 -0.5726 -3.0335 -0.8588
   48MOL   H14517159   0.213   0.229   6.889  2.8509 -1.6964 -1.3032
   48MOL   C14617160   7.553   0.390   6.507  0.0396 -0.5704 -0.7836
   48MOL   C14717161   7.439   0.347   6.402  0.6276 -0.3054 -0.3654
   48MOL   C14817162   7.501   0.272   6.287  0.1991  0.2376  0.6486
   48MOL   O14917163   7.520   0.331   6.179 -0.1544 -0.1786 -0.0842
   48MOL   O15017164   7.552   0.152   6.328 -0.1953 -0.0756  0.0732
   48MOL   C15117165   7.682   0.111   6.273 -0.0014  0.6287  0.6685
   48MOL   C15217166   7.755   0.008   6.357  0.4423  0.2250  0.8780
   48MOL   C15317167   7.757   0.039   6.510  0.0869  0.1820  0.0037
   48MOL   H15417168   7.499   0.425   6.595 -2.6188 -0.2549 -2.5001
   48MOL   H15517169   7.610   0.304   6.543 -0.3291 -0.5145 -0.0595
   48MOL   H15617170   7.394   0.436   6.358 -1.4946 -0.5086  1.3316
   48MOL   H15717171   7.677   0.091   6.166 -0.2526  1.6654  0.4783
   48MOL   H15817172   7.745   0.200   6.281  1.1907 -0.0398 -1.0872
   48MOL   H15917173   7.692   7.799   6.348  0.3827  0.4738 -1.7122
   48MOL   H16017174   7.846   7.866   6.302  0.0075  0.4136  0.0751
   48MOL   H16117175   7.811   7.838   6.557 -1.4513 -0.7430  0.1914
   48MOL   H16217176   7.656   0.035   6.551  0.3264 -0.4061  0.5364
   48MOL   H16317177   7.800   0.135   6.539 -0.0432 -0.4168  2.2584
   48MOL   C16417178   7.345   0.257   6.484 -0.1581 -0.3530 -0.0669
   48MOL   C16517179   7.221   0.188   6.416  0.3439 -0.0774 -0.2040
   48MOL   C16617180   7.258   0.068   6.328  0.2855  0.4483 -0.7236
   48MOL   O16717181   7.238   0.065   6.205  0.1989 -0.3942 -0.0914
   48MOL   O16817182   7.301   7.838   6.400  0.6012  0.0917  0.0567
   48MOL   C16917183   7.319   7.708   6.337  0.5470 -0.4573 -0.1830
   48MOL   C17017184   7.234   7.602   6.417  0.1010 -0.5426 -0.1030
   48MOL   C17117185   7.228   7.466   6.343  0.2338  0.5342  0.0069
   48MOL   H17217186   7.303   0.315   6.566 -1.5519  0.1432 -1.1199
   48MOL   H17317187   7.404   0.180   6.533  1.3273 -0.8685 -2.5988
   48MOL   H17417188   7.156   0.253   6.358  0.3160  0.8719  0.8862
   48MOL   H17517189   7.284   7.719   6.234 -0.8883 -0.0053  0.3418
   48MOL   H17617190   7.425   7.687   6.328  0.1301 -3.2455  0.9157
   48MOL   H17717191   7.268   7.607   6.521 -0.4455  0.6353  0.0285
   48MOL   H17817192   7.133   7.642   6.424  1.1612  2.7371 -2.4593
   48MOL   H17917193   7.324   7.415   6.341  0.4970  0.8283  2.7446
   48MOL   H18017194   7.197   7.465   6.239  0.5673 -1.3815 -0.1018
   48MOL   H18117195   7.161   7.408   6.407 -0.0652  1.9599  1.0288
   48MOL   C18217196   7.123   0.139   6.531  0.2591 -0.4913  0.0380
   48MOL   C18317197   7.034   0.248   6.579 -0.2111  0.0478 -0.6236
   48MOL   C18417198   6.920   0.260   6.477 -0.3041  0.1389 -0.7130
   48MOL   O18517199   6.813   0.198   6.473 -0.0033 -0.0686 -0.1097
   48MOL   O18617200   6.947   0.360   6.394  0.5893  0.0724  0.0978
   48MOL   C18717201   6.868   0.394   6.284 -0.2368 -0.4307 -0.3909
   48MOL   C18817202   6.925   0.338   6.159  1.1449  0.1777 -0.6758
   48MOL   C18917203   6.816   0.352   6.044 -0.1712 -0.1645 -0.2000
   48MOL   H19017204   7.180   0.116   6.620  1.7999  2.4617 -0.1052
   48MOL   H19117205   7.063   0.050   6.512 -1.8411  1.1915 -1.5404
   48MOL   H19217206   7.084   0.345   6.579 -2.4409  1.2345 -1.2706
   48MOL   H19317207   6.765   0.362   6.299 -0.0530 -1.6049 -1.6124
   48MOL   H19417208   6.853   0.502   6.284  1.4406 -0.1843 -0.0620
   48MOL   H19517209   7.024   0.373   6.132  1.5078  0.5710  1.0886
   48MOL   H19617210   6.930   0.229   6.168 -0.2164  0.1277 -0.4159
   48MOL   H19717211   6.846   0.330   5.942 -2.4769 -1.7420 -0.5798
   48MOL   H19817212   6.789   0.458   6.041 -0.2423 -0.1669  0.3476
   48MOL   H19917213   6.729   0.289   6.063 -1.2153  1.1899 -0.3775
   48MOL   C20017214   6.988   0.235   6.735 -0.3476 -1.0787 -0.4726
   48MOL   C20117215   7.094   0.279   6.841 -0.2090  0.0605  0.1317
   48MOL   C20217216   7.085   0.433   6.864  0.3404  0.2014 -0.4572
   48MOL   O20317217   7.166   0.509   6.809 -0.3737  0.3351  0.5832
   48MOL   O20417218   6.983   0.470   6.937 -0.3748  0.0836 -0.1933
   48MOL   C20517219   6.974   0.605   6.977 -0.0806 -0.4350 -0.0741
   48MOL   C20617220   7.008   0.620   7.132  0.2263  0.2592  0.1425
   48MOL   C20717221   6.913   0.544   7.233 -0.0496  0.3116 -0.7359
   48MOL   H20817222   6.955   0.134   6.756  1.5462 -1.9492 -1.5936
   48MOL   H20917223   6.895   0.289   6.755  0.8182  1.4278 -1.5119
   48MOL   H21017224   7.196   0.263   6.806  0.4424  1.4001  1.3482
   48MOL   H21117225   7.037   0.674   6.920 -0.6277 -0.5878 -0.8671
   48MOL   H21217226   6.868   0.629   6.971 -0.3084 -1.1785  0.8173
   48MOL   H21317227   7.110   0.585   7.144 -0.8625 -2.6994  1.3044
   48MOL   H21417228   6.999   0.728   7.143  0.7373  0.2793  0.3348
   48MOL   H21517229   6.811   0.558   7.198  0.1641 -2.2592 -2.5509
   48MOL   H21617230   6.920   0.586   7.334  0.9566 -1.6844  0.0582
   48MOL   H21717231   6.928   0.436   7.231  0.9997  0.4291 -0.0585
   48MOL   C21817232   7.071   0.198   6.964  0.4456 -0.5620  0.8016
   48MOL   C21917233   7.189   0.185   7.073  0.6353  0.1519  0.0800
   48MOL   C22017234   7.312   0.116   7.010  0.0598 -0.3319 -0.2151
   48MOL   O22117235   7.395   0.176   6.938  0.4945 -0.0587 -0.1475
   48MOL   O22217236   7.313   7.853   7.034  0.2047  0.1845 -0.5446
   48MOL   C22317237   7.396   7.777   6.952 -0.2379 -0.3749  0.5349
   48MOL   C22417238   7.352   7.755   6.808 -0.4290  0.3452  0.0402
   48MOL   C22517239   7.216   7.692   6.814 -0.0403 -0.2078  0.1916
   48MOL   H22617240   7.053   0.094   6.937  1.2420 -0.7222  0.8705
   48MOL   H22717241   6.990   0.233   7.029  0.7234 -0.3741  1.0495
   48MOL   H22817242   7.142   0.118   7.144 -1.2386  1.9546  0.5950
   48MOL   H22917243   7.493   7.826   6.945 -1.3106  1.6987 -0.1343
   48MOL   H23017244   7.410   7.682   7.003  0.2980  0.2096  1.4828
   48MOL   H23117245   7.355   7.855   6.764  0.0795  0.8476  1.1911
   48MOL   H23217246   7.414   7.692   6.744 -1.2497  0.1166 -0.5339
   48MOL   H23317247   7.219   7.601   6.874 -0.9501 -1.0000 -0.9513
   48MOL   H23417248   7.175   7.676   6.714  0.7896  0.2119 -0.2246
   48MOL   H23517249   7.148   7.769   6.848 -0.6233 -0.2690 -0.8189
   48MOL   C23617250   7.232   0.315   7.146  0.2930 -0.6819  0.1224
   48MOL   C23717251   7.339   0.301   7.258 -0.2958 -0.2915  0.3504
   48MOL   C23817252   7.370   0.436   7.331  0.1259 -0.3616 -1.2660
   48MOL   O23917253   7.485   0.476   7.349  0.8741 -0.1066 -0.1920
   48MOL   O24017254   7.265   0.499   7.366  0.5828 -0.8204 -0.4093
   48MOL   C24117255   7.265   0.606   7.455  0.2703 -1.0435 -0.2530
   48MOL   C24217256   7.283   0.743   7.388 -0.7222 -0.0487  0.0906
   48MOL   C24317257   7.288   0.863   7.482 -0.3211  0.3002  0.5920
   48MOL   H24417258   7.139   0.350   7.190  0.3649  0.3821 -0.5481
   48MOL   H24517259   7.253   0.396   7.076  1.0327  0.4014  1.5780
   48MOL   H24617260   7.429   0.264   7.209 -0.4791  1.0222 -1.0442
   48MOL   H24717261   7.170   0.602   7.508  0.7153 -0.0982  0.6309
   48MOL   H24817262   7.334   0.587   7.537  0.9316  0.4689 -0.4565
   48MOL   H24917263   7.371   0.739   7.323 -0.4103 -2.0705  0.5969
   48MOL   H25017264   7.201   0.763   7.319  0.8922  3.6105 -0.8774
   48MOL   H25117265   7.350   0.851   7.572  0.0165 -0.4604  0.2626
   48MOL   H25217266   7.190   0.858   7.528 -1.5219 -2.3510 -2.1515
   48MOL   H25317267   7.322   0.956   7.436  0.5779 -0.4392 -0.2702
   48MOL   C25417268   7.282   0.211   7.369 -0.4727  0.4372  0.5706
   48MOL   C25517269   7.378   0.181   7.485  0.1920  0.1943  0.3971
   48MOL   C25617270   7.320   0.199   7.620  0.0173 -0.0646 -0.3964
   48MOL   O25717271   7.336   0.304   7.682  0.3403 -0.4003  0.3591
   48MOL   O25817272   7.243   0.096   7.659  0.1267 -0.2761 -0.1565
   48MOL   C25917273   7.175   0.103   7.788  0.8226  0.7827  0.1147
   48MOL   C26017274   7.267   0.048   0.018  0.3170  0.2809  0.0675
   48MOL   C26117275   7.212   0.070   0.164  0.0669  0.3974 -0.5116
   48MOL   H26217276   7.260   0.110   7.333  1.5880  1.0000 -2.3908
   48MOL   H26317277   7.189   0.246   7.414  0.8959  0.6722  3.3267
   48MOL   H26417278   7.450   0.263   7.481 -0.9677  1.1963 -0.4362
   48MOL   H26517279   7.138   0.203   7.811  0.9007  0.3529  2.2249
   48MOL   H26617280   7.092   0.035   7.766  0.0259  1.6054  0.5725
   48MOL   H26717281   7.286   7.822   0.004 -0.0320  0.4445 -1.7877
   48MOL   H26817282   7.370   0.081   0.003  0.4739 -0.2717 -0.0817
   48MOL   H26917283   7.208   0.175   0.193  0.6794  0.5448 -0.9347
   48MOL   H27017284   7.283   0.016   0.227 -1.7689 -0.4836  0.8192
   48MOL   H27117285   7.116   0.019   0.169  0.2120  0.2261  0.6699
   48MOL   C27217286   7.457   0.044   7.471  0.7033 -0.2488 -0.6109
   48MOL   C27317287   7.558   0.018   7.354  0.5128 -0.1786 -0.4724
   48MOL   C27417288   7.641   0.146   7.345 -0.2277  0.2047 -0.5988
   48MOL   O27517289   7.696   0.194   7.445  0.8232 -0.0702  0.3383
   48MOL   O27617290   7.659   0.186   7.215 -0.6327  0.1389 -0.0103
   48MOL   C27717291   7.775   0.248   7.166  0.3667  0.0824 -0.1928
   48MOL   C27817292   7.849   0.152   7.066 -0.2019  0.5877  0.0800
   48MOL   C27917293   7.761   0.123   6.942 -0.3085 -1.2030 -0.8856
   48MOL   H28017294   7.379   7.849   7.477 -0.0529  0.4204 -1.8466
   48MOL   H28117295   7.518   0.026   7.560 -0.6810  3.1160  1.1160
   48MOL   H28217296   7.507   0.022   7.258  1.7025  0.3919 -1.1014
   48MOL   H28317297   7.741   0.345   7.130 -3.1939 -1.1840 -0.3557
   48MOL   H28417298   7.840   0.269   7.252 -1.0811  0.9238  0.7177
   48MOL   H28517299   0.062   0.205   7.049 -0.3224  0.3536 -1.4011
   48MOL   H28617300   7.880   0.055   7.106 -0.6963  0.1956 -0.4782
   48MOL   H28717301   7.736   0.215   6.890  1.8152 -0.3192 -0.3551
   48MOL   H28817302   7.675   0.065   6.977  0.1854 -2.3885 -1.5845
   48MOL   H28917303   7.816   0.068   6.865  2.1326 -0.4086  0.2403
   48MOL   C29017304   7.651   7.783   7.368 -0.1750  0.6114  0.5630
   48MOL   C29117305   7.580   7.641   7.383 -1.1948 -0.2867  0.4153
   48MOL   C29217306   7.540   7.592   7.242  0.5590  0.1611  0.0053
   48MOL   O29317307   7.610   7.607   7.147 -0.7716  0.3420  0.0611
   48MOL   O29417308   7.421   7.530   7.234  0.0107  0.3298 -0.1305
   48MOL   C29517309   7.391   7.461   7.107  0.1802  0.8770  0.3692
   48MOL   C29617310   7.335   7.324   7.157 -0.0376 -0.0972 -0.0151
   48MOL   C29717311   7.433   7.235   7.238 -0.4442 -0.3212 -0.9310
   48MOL   H29817312   7.708   7.814   7.455 -1.8237  1.2419  1.4600
   48MOL   H29917313   7.723   7.787   7.287  0.8524  1.4900  1.5126
   48MOL   H30017314   7.484   7.644   7.435 -2.7611  1.4487 -2.3997
   48MOL   H30117315   7.309   7.511   7.054  0.3410 -0.5638 -1.2783
   48MOL   H30217316   7.469   7.447   7.033 -0.7398  0.5826 -0.5623
   48MOL   H30317317   7.241   7.343   7.210  0.5550 -0.7202  1.2597
   48MOL   H30417318   7.313   7.265   7.068 -0.8536 -0.4438  0.4107
   48MOL   H30517319   7.449   7.276   7.338  1.3179  0.4222 -1.5018
   48MOL   H30617320   7.530   7.220   7.192 -0.0231 -1.5591  0.3127
   48MOL   H30717321   7.400   7.134   7.263 -0.4002  0.2750  1.6654
   48MOL   C30817322   7.666   7.526   7.446  0.2859 -0.2166 -0.9241
   48MOL   C30917323   7.724   7.567   7.583  0.7028  0.5498 -0.0515
   48MOL   C31017324   7.615   7.603   7.683  0.4471 -0.1450  0.1657
   48MOL   O31117325   7.622   7.702   7.758 -0.0366 -0.5328  0.8253
   48MOL   O31217326   7.513   7.509   7.689  0.3083  0.2839  0.4563
   48MOL   C31317327   7.407   7.520   7.773  0.6941 -0.3774  0.5162
   48MOL   C31417328   7.292   7.602   7.712 -0.6888 -0.2073  0.2389
   48MOL   C31517329   7.231   7.528   7.589  0.4110  0.0130 -0.6917
   48MOL   H31617330   7.749   7.492   7.384  1.8910  0.6243  0.7089
   48MOL   H31717331   7.610   7.433   7.452  1.1354 -0.8904 -2.8628
   48MOL   H31817332   7.785   7.654   7.560  1.5480 -0.1015 -0.2917
   48MOL   H31917333   7.372   7.421   7.803 -2.1549  0.4217  0.0147
   48MOL   H32017334   7.443   7.576   7.860  0.7307  2.1530 -1.0675
   48MOL   H32117335   7.214   7.620   7.786 -0.7456 -0.4635  0.2422
   48MOL   H32217336   7.332   7.702   7.694 -1.2367 -0.1123 -0.5070
   48MOL   H32317337   7.161   7.597   7.543 -0.0807 -0.1237 -0.1551
   48MOL   H32417338   7.307   7.512   7.513 -0.3168  2.5041 -1.9813
   48MOL   H32517339   7.171   7.439   7.607  0.4157 -0.4113 -2.7104
   48MOL   C32617340   7.825   7.471   7.637  0.3548  0.3708 -0.6988
   48MOL   C32717341   0.011   7.508   7.772  0.5587 -0.0418  0.2741
   48MOL   C32817342   0.089   7.384   7.821 -0.5516 -0.2718  0.1214
   48MOL   O32917343   0.048   7.309   0.029  0.2688  0.1024 -0.3663
   48MOL   O33017344   0.200   7.362   7.742 -0.4385 -0.0422  0.5630
   48MOL   C33117345   0.287   7.258   7.767  0.2265  0.5374  0.4201
   48MOL   C33217346   0.241   7.136   7.679 -0.0795  0.4746  0.1873
   48MOL   C33317347   0.340   7.018   7.696  0.3997 -0.3753  0.6413
   48MOL   H33417348   0.014   7.467   7.553 -1.4155 -0.8253 -2.1426
   48MOL   H33517349   7.776   7.374   7.642 -0.7895  0.9512 -0.4464
   48MOL   H33617350   7.808   7.531   7.839 -0.0982  0.4895 -0.7212
   48MOL   H33717351   0.388   7.288   7.741 -0.1649  1.6883  0.2129
   48MOL   H33817352   0.289   7.230   7.872  2.5927  0.0746  0.2857
   48MOL   H33917353   0.139   7.104   7.701  0.1313 -1.0539 -0.9761
   48MOL   H34017354   0.259   7.168   7.576 -0.4096  0.7129  0.2019
   48MOL   H34117355   0.342   6.966   7.792  0.1495 -0.7081  0.4651
   48MOL   H34217356   0.323   6.949   7.614  0.4558 -1.3963  1.4673
   48MOL   H34317357   0.444   7.050   7.685  0.2349  0.6309  1.8586
   48MOL   C34417358   0.100   7.632   7.755 -1.0146  0.5276  0.1133
   48MOL   C34517359   0.184   7.655   0.001  0.4866 -0.4520 -0.5316
   48MOL   C34617360   0.294   7.763   7.869 -0.2145 -0.1735 -0.6885
   48MOL   O34717361   0.376   7.757   7.779  0.0821  0.2300  0.3138
   48MOL   O34817362   0.280   7.869   0.082 -0.5841 -0.8428  0.1094
   48MOL   C34917363   0.394   0.070   0.077 -0.0941  0.1819 -0.3158
   48MOL   C35017364   0.371   0.178   0.184 -0.3512 -0.2297 -0.0250
   48MOL   C35117365   0.344   0.125   0.321  0.7998  0.8887 -0.3376
   48MOL   H35217366   0.040   7.722   7.739  1.6978  2.1524 -1.3038
   48MOL   H35317367   0.164   7.624   7.667 -2.6115 -0.1288 -0.9972
   48MOL   H35417368   0.251   7.571   0.020 -1.5059 -1.4450  2.5459
   48MOL   H35517369   0.483   0.008   0.086 -2.1986 -2.9782 -0.2819
   48MOL   H35617370   0.399   0.126   7.864  0.0977 -1.4623 -1.3234
   48MOL   H35717371   0.459   0.241   0.191  0.3877 -1.1050 -1.2309
   48MOL   H35817372   0.292   0.252   0.168  1.1178  1.4979  0.4747
   48MOL   H35917373   0.361   0.199   0.400 -0.2802 -0.2854  1.0269
   48MOL   H36017374   0.238   0.101   0.321  0.9275  0.3124 -1.2295
   48MOL   H36117375   0.409   0.039   0.336  1.5446  1.2209 -1.5730
   48MOL   H36217376   0.120   7.679   0.086  0.6264 -1.1826 -0.2192
   49MOL     C117377   4.391   2.910   0.859 -0.2324  0.5598 -0.7620
   49MOL     C217378   4.355   2.933   0.711 -0.1675  0.5894  0.7403
   49MOL     C317379   4.418   3.068   0.665 -0.1236  0.2438  0.0749
   49MOL     O417380   4.525   3.076   0.603 -0.1013 -0.2628  0.4052
   49MOL     O517381   4.338   3.166   0.702 -0.3549 -0.0434  0.3510
   49MOL     C617382   4.368   3.302   0.666  0.3981 -0.1606  0.3146
   49MOL     C717383   4.269   3.364   0.567 -0.1518 -0.3819 -0.2198
   49MOL     C817384   4.129   3.349   0.633 -0.3954  0.9309  0.1989
   49MOL     H917385   4.360   2.809   0.884  0.6878  0.3749 -0.3318
   49MOL    H1017386   4.499   2.902   0.877 -0.2688  2.6352  0.5480
   49MOL    H1117387   4.247   2.923   0.703 -0.0758 -0.2096  0.4193
   49MOL    H1217388   4.364   3.358   0.760 -1.3835  1.6124 -0.7613
   49MOL    H1317389   4.468   3.321   0.629  0.4598 -0.7132  0.1899
   49MOL    H1417390   4.295   3.466   0.539 -0.2764 -0.5156 -0.8218
   49MOL    H1517391   4.271   3.316   0.470 -1.9263  0.1058 -0.5228
   49MOL    H1617392   4.144   3.386   0.735  1.2403  1.1541 -0.1161
   49MOL    H1717393   4.047   3.400   0.582 -0.6292  0.3743  0.0114
   49MOL    H1817394   4.104   3.243   0.641  2.4844 -0.1019 -3.3859
   49MOL    H1917395   4.345   2.976   0.933 -1.9307 -2.9602  1.4253
   49MOL    C2017396   4.410   2.831   0.609  0.5821  0.1391  0.1422
   49MOL    C2117397   4.347   2.692   0.619 -0.4221  0.8678  0.9171
   49MOL    C2217398   4.237   2.664   0.513  0.2730  0.2315 -0.8925
   49MOL    O2317399   4.123   2.653   0.546  0.3147  0.5293 -0.0060
   49MOL    O2417400   4.288   2.644   0.391  0.7059 -0.6905  0.0985
   49MOL    C2517401   4.208   2.590   0.295  0.0621  0.3915  0.1212
   49MOL    C2617402   4.281   2.593   0.156 -0.5156  0.1619 -0.8542
   49MOL    C2717403   4.196   2.605   0.036  0.5269  0.5407 -0.6222
   49MOL    H2817404   4.519   2.832   0.607  0.5991  0.8654  0.9862
   49MOL    H2917405   4.388   2.860   0.506  2.2771 -0.7698 -0.5009
   49MOL    H3017406   4.290   2.687   0.711  0.3820  3.8422  1.6374
   49MOL    H3117407   4.183   2.488   0.324 -0.6498  0.4550 -0.2821
   49MOL    H3217408   4.117   2.649   0.285 -2.0289 -2.7616  0.0567
   49MOL    H3317409   4.351   2.676   0.161  0.6889 -0.8374 -0.8016
   49MOL    H3417410   4.338   2.500   0.159 -2.3637 -0.9904 -0.7024
   49MOL    H3517411   4.261   2.605   7.829  0.1829  1.4503 -0.8852
   49MOL    H3617412   4.153   2.704   0.019  1.9273  1.0505 -1.3079
   49MOL    H3717413   4.121   2.529   0.011 -0.2607  0.8640  0.7269
   49MOL    C3817414   4.454   2.579   0.607  0.3142  0.1388 -0.0603
   49MOL    C3917415   4.557   2.567   0.727 -0.3919 -0.0888 -0.1535
   49MOL    C4017416   4.498   2.517   0.857  0.6186 -0.3094  0.6173
   49MOL    O4117417   4.455   2.592   0.946 -0.0509 -0.3017 -0.3566
   49MOL    O4217418   4.503   2.389   0.872  0.0041 -0.7820  0.2721
   49MOL    C4317419   4.423   2.323   0.964  0.5999  0.4183 -0.1441
   49MOL    C4417420   4.487   2.184   0.998 -0.1089 -0.1891 -0.0275
   49MOL    C4517421   4.383   2.074   1.032 -1.1362  0.0358 -0.1879
   49MOL    H4617422   4.510   2.610   0.518 -0.7573  0.5804 -0.5865
   49MOL    H4717423   4.406   2.484   0.587  1.0283  0.4861 -3.9214
   49MOL    H4817424   4.597   2.665   0.755  0.7786 -0.6520  0.1633
   49MOL    H4917425   4.412   2.377   1.058 -0.0261 -0.7942  0.5025
   49MOL    H5017426   4.324   2.312   0.919 -0.2931  0.3400  1.7691
   49MOL    H5117427   4.547   2.150   0.914  0.4499 -1.5282  0.9010
   49MOL    H5217428   4.555   2.189   1.083  0.4486 -0.6084 -0.4512
   49MOL    H5317429   4.340   2.093   1.131 -0.6180 -1.8873  0.4314
   49MOL    H5417430   4.420   1.972   1.043  1.6255  0.8552 -1.3716
   49MOL    H5517431   4.302   2.076   0.960 -0.9813  0.5808 -0.3489
   49MOL    C5617432   4.678   2.488   0.689  0.4303 -0.0514  0.6734
   49MOL    C5717433   4.783   2.565   0.607  0.0440  0.1032 -0.5156
   49MOL    C5817434   4.832   2.685   0.685  0.2833 -0.4873 -0.6775
   49MOL    O5917435   4.808   2.804   0.646  0.1181  0.3381 -0.0096
   49MOL    O6017436   4.896   2.659   0.802  0.0834  0.0330 -1.1600
   49MOL    C6117437   4.923   2.767   0.890 -0.0972 -0.2251 -0.2578
   49MOL    C6217438   5.064   2.819   0.890 -1.0837 -0.5068 -0.2218
   49MOL    C6317439   5.156   2.695   0.908 -0.0556  0.3565  0.1265
   49MOL    H6417440   4.646   2.393   0.647 -0.7046  1.2001 -1.3522
   49MOL    H6517441   4.731   2.453   0.778  2.8188 -1.6282 -1.3136
   49MOL    H6617442   4.727   2.607   0.524 -0.0637  0.0354 -0.4773
   49MOL    H6717443   4.854   2.849   0.869 -1.6957 -1.9400 -1.9302
   49MOL    H6817444   4.893   2.732   0.989 -1.5293  0.3815 -0.4636
   49MOL    H6917445   5.083   2.885   0.805 -0.1036  1.7836  1.7036
   49MOL    H7017446   5.075   2.883   0.978 -1.9090 -2.0899  1.0507
   49MOL    H7117447   5.257   2.725   0.936  0.4344  0.3949 -1.6293
   49MOL    H7217448   5.156   2.645   0.812  1.9469  1.8790 -0.6976
   49MOL    H7317449   5.126   2.612   0.974  0.8728 -0.2175 -0.1697
   49MOL    C7417450   4.902   2.481   0.551 -0.0206  0.2155 -0.3698
   49MOL    C7517451   4.959   2.533   0.415 -0.7843  0.0951  0.0780
   49MOL    C7617452   5.111   2.505   0.411  0.5618 -0.6029 -0.2215
   49MOL    O7717453   5.164   2.406   0.467  0.3433 -0.2705 -0.3135
   49MOL    O7817454   5.172   2.595   0.321  0.5600 -0.1009  0.3060
   49MOL    C7917455   5.315   2.579   0.296  0.3081 -0.0038  0.1819
   49MOL    C8017456   5.359   2.658   0.172 -0.1897 -0.0962  0.3573
   49MOL    C8117457   5.513   2.643   0.154  0.5127 -0.6720 -0.6347
   49MOL    H8217458   4.879   2.376   0.533 -4.1156  0.7370  1.3112
   49MOL    H8317459   4.969   2.469   0.636  0.4716  0.7798 -0.6741
   49MOL    H8417460   4.959   2.642   0.417  0.5580  0.1352 -1.0637
   49MOL    H8517461   5.368   2.610   0.386 -2.8522  0.6100  1.9067
   49MOL    H8617462   5.344   2.475   0.289  0.9548  0.2842 -1.6268
   49MOL    H8717463   5.293   2.640   0.087 -0.3004 -0.0716  0.4382
   49MOL    H8817464   5.349   2.766   0.181  0.0455  0.3680 -3.7127
   49MOL    H8917465   5.534   2.538   0.133  1.7012 -0.5486 -0.0976
   49MOL    H9017466   5.571   2.669   0.242  0.1527 -2.6724  0.2332
   49MOL    H9117467   5.547   2.713   0.077  1.8201  0.0841  0.6213
   49MOL    C9217468   4.879   2.483   0.291 -0.2263  0.3378  0.3873
   49MOL    C9317469   4.841   2.578   0.174  0.7253  0.4725  0.2356
   49MOL    C9417470   4.737   2.687   0.218  0.1206  0.2428 -0.2584
   49MOL    O9517471   4.616   2.670   0.199  0.0932  0.1858  0.0827
   49MOL    O9617472   4.798   2.799   0.286 -0.4563  0.4546 -0.2331
   49MOL    C9717473   4.715   2.904   0.336 -0.8404 -0.0157 -0.0380
   49MOL    C9817474   4.672   3.003   0.222  0.3626  0.1862  0.1639
   49MOL    C9917475   4.598   3.131   0.259  0.6915  0.2748  0.0764
   49MOL   H10017476   4.791   2.437   0.335  1.4289 -1.2241  2.1429
   49MOL   H10117477   4.938   2.401   0.251 -0.9061 -0.0654  0.2101
   49MOL   H10217478   4.789   2.505   0.112  1.6968  0.4219 -0.5309
   49MOL   H10317479   4.617   2.872   0.370 -1.0536  1.3098  0.6564
   49MOL   H10417480   4.765   2.950   0.421 -1.5786  0.3587  0.1949
   49MOL   H10517481   4.754   3.040   0.160 -1.3673 -0.3224 -2.5060
   49MOL   H10617482   4.598   2.959   0.155  1.1462 -0.5274 -0.2347
   49MOL   H10717483   4.666   3.194   0.318 -0.9652  2.5236 -0.3300
   49MOL   H10817484   4.516   3.103   0.325  0.3136 -0.8249 -0.8551
   49MOL   H10917485   4.549   3.190   0.182  2.1506  1.9688  0.3921
   49MOL   C11017486   4.962   2.636   0.099  0.8536  0.2439 -0.7137
   49MOL   C11117487   4.935   2.735   7.864  0.3933 -0.7211  0.5923
   49MOL   C11217488   5.062   2.818   7.826  0.2725 -0.5845 -0.7605
   49MOL   O11317489   5.145   2.769   7.743 -0.2069 -0.1482 -0.0208
   49MOL   O11417490   5.077   2.929   0.020 -1.0158 -0.4215  0.0329
   49MOL   C11517491   5.188   3.015   7.875  0.2112 -0.7463  0.3789
   49MOL   C11617492   5.231   3.075   0.127 -0.0978  0.3086  0.2359
   49MOL   C11717493   5.122   3.163   0.206  0.3731  0.5045  0.1087
   49MOL   H11817494   5.025   2.552   0.069 -2.7722 -2.8486  0.0051
   49MOL   H11917495   5.011   2.698   0.174 -2.0148  1.4316  0.2467
   49MOL   H12017496   4.866   2.812   0.017 -0.4616 -0.8088 -0.9564
   49MOL   H12117497   5.267   2.954   7.830  0.1509  0.7283 -1.8019
   49MOL   H12217498   5.160   3.101   7.813 -1.8120 -1.1624  0.6917
   49MOL   H12317499   5.276   3.002   0.194  1.1337  0.2029 -0.6842
   49MOL   H12417500   5.308   3.148   0.104 -0.5873  0.5337 -0.7216
   49MOL   H12517501   5.171   3.194   0.299 -0.6850  1.1157  0.4762
   49MOL   H12617502   5.042   3.093   0.228 -0.0923  1.2188  0.7459
   49MOL   H12717503   5.085   3.244   0.143 -2.8233 -0.3085  0.8617
   49MOL   C12817504   4.861   2.671   7.743  0.2716 -0.3421  0.5384
   49MOL   C12917505   4.795   2.768   7.636  0.2794  0.4838 -0.1838
   49MOL   C13017506   4.751   2.680   7.514 -0.6535  0.1722  0.7077
   49MOL   O13117507   4.764   2.717   7.401  0.0808  0.3423  0.4029
   49MOL   O13217508   4.685   2.574   7.548 -0.0893 -0.3246  0.3673
   49MOL   C13317509   4.602   2.495   7.456 -1.1583  0.3497 -0.0165
   49MOL   C13417510   4.481   2.554   7.399  0.0525  0.1610  0.2017
   49MOL   C13517511   4.362   2.580   7.489 -0.1522 -0.2090  0.0469
   49MOL   H13617512   4.780   2.617   7.792  0.6405 -2.3130 -0.9805
   49MOL   H13717513   4.929   2.596   7.705  1.2962  1.9188 -2.2446
   49MOL   H13817514   4.876   2.836   7.609 -1.0234  1.3715 -1.9490
   49MOL   H13917515   4.666   2.471   7.372 -0.8076  0.6853  0.1534
   49MOL   H14017516   4.572   2.406   7.511  1.1855 -1.7483 -2.0620
   49MOL   H14117517   4.512   2.648   7.352  0.8860 -0.0575  0.3098
   49MOL   H14217518   4.441   2.495   7.317  1.6703 -0.3861 -0.2137
   49MOL   H14317519   4.317   2.486   7.521  0.2069 -1.0436 -1.8218
   49MOL   H14417520   4.294   2.651   7.441 -1.0621  0.8193  2.7690
   49MOL   H14517521   4.391   2.627   7.583  0.4877  0.9738 -0.7336
   49MOL   C14617522   4.665   2.843   7.686 -0.2790  0.7049 -0.2507
   49MOL   C14717523   4.604   2.954   7.596  0.0624 -0.4796 -0.3688
   49MOL   C14817524   4.455   2.987   7.640 -0.1247  0.3504 -0.3519
   49MOL   O14917525   4.428   3.071   7.722  0.2577 -0.0621 -0.6735
   49MOL   O15017526   4.361   2.916   7.573  0.0399 -0.3531  0.4494
   49MOL   C15117527   4.219   2.910   7.607  0.1985  0.6217 -0.5076
   49MOL   C15217528   4.142   2.971   7.497  0.3189 -0.2353 -0.4498
   49MOL   C15317529   3.988   2.965   7.517 -0.0626  0.8087 -0.4768
   49MOL   H15417530   4.675   2.878   7.788 -0.1935  2.1345 -0.7415
   49MOL   H15517531   4.593   2.762   7.701  2.1405 -1.8453 -1.7602
   49MOL   H15617532   4.599   2.917   7.494  0.6979  0.8907 -0.9054
   49MOL   H15717533   4.197   2.804   7.595  1.6886  0.4492 -1.8946
   49MOL   H15817534   4.188   2.955   7.702  1.9368 -2.2783  1.5268
   49MOL   H15917535   4.177   3.073   7.487  1.2845 -0.7139 -2.1366
   49MOL   H16017536   4.161   2.918   7.403 -2.1562 -1.8151 -0.0942
   49MOL   H16117537   3.963   2.860   7.531  1.6800  0.4624  0.1840
   49MOL   H16217538   3.929   3.002   7.433 -1.0801 -0.9136 -0.5551
   49MOL   H16317539   3.962   3.017   7.610 -0.9477 -0.1345 -0.1861
   49MOL   C16417540   4.699   3.080   7.607 -0.6707  0.9464  0.0729
   49MOL   C16517541   4.674   3.181   7.490  0.1472  0.0027 -0.0597
   49MOL   C16617542   4.751   3.310   7.505  0.2038  0.2363 -0.3164
   49MOL   O16717543   4.696   3.397   7.572  0.2119  0.4105  0.5515
   49MOL   O16817544   4.879   3.314   7.446  0.1053  0.1091 -0.2625
   49MOL   C16917545   4.962   3.431   7.466  0.4205 -0.0090 -0.3098
   49MOL   C17017546   5.063   3.433   7.581 -0.1167 -0.0291 -0.3699
   49MOL   C17117547   4.991   3.432   7.722 -0.5199  0.3765 -0.6779
   49MOL   H17217548   4.798   3.034   7.606 -0.6484  0.9707  0.7586
   49MOL   H17317549   4.699   3.122   7.708 -2.0464 -2.2614  1.4946
   49MOL   H17417550   4.570   3.208   7.509 -0.2740 -1.0091 -0.9135
   49MOL   H17517551   5.009   3.460   7.372 -2.7452  2.0277 -1.3724
   49MOL   H17617552   4.890   3.513   7.470  0.2116 -0.1650 -0.8467
   49MOL   H17717553   5.129   3.346   7.583  2.2965  1.7873  2.3691
   49MOL   H17817554   5.126   3.520   7.565 -0.4550  0.2465 -0.2068
   49MOL   H17917555   5.069   3.439   7.797  0.5293 -2.2431 -1.4419
   49MOL   H18017556   4.940   3.336   7.732 -1.2833  0.9406  0.9300
   49MOL   H18117557   4.921   3.512   7.743  0.5574  0.5829  2.3701
   49MOL   C18217558   4.683   3.116   7.345  0.8163  0.2987  0.1487
   49MOL   C18317559   4.542   3.061   7.286  0.2727  0.0507  0.2462
   49MOL   C18417560   4.442   3.167   7.276  0.1583 -0.4054 -0.5713
   49MOL   O18517561   4.331   3.161   7.322 -0.4924 -0.3826  0.4373
   49MOL   O18617562   4.492   3.268   7.189  0.9678 -0.1909 -0.2218
   49MOL   C18717563   4.427   3.392   7.160 -0.2716 -0.1841 -0.2824
   49MOL   C18817564   4.477   3.501   7.270 -0.3217  0.0693  0.3290
   49MOL   C18917565   4.621   3.553   7.260  0.5370  0.1874 -0.5776
   49MOL   H19017566   4.756   3.035   7.347 -0.7584 -1.1422  1.1355
   49MOL   H19117567   4.718   3.189   7.273  1.9989  1.0390  1.4624
   49MOL   H19217568   4.485   3.002   7.357  1.9338 -1.9290 -0.0366
   49MOL   H19317569   4.444   3.419   7.056 -1.3428  1.4879 -0.0378
   49MOL   H19417570   4.320   3.377   7.178 -0.7896  1.9178 -1.5449
   49MOL   H19517571   4.401   3.580   7.268 -1.8594 -1.2809  2.5966
   49MOL   H19617572   4.450   3.464   7.369 -0.7205  1.3325  0.7089
   49MOL   H19717573   4.642   3.624   7.180 -2.9090  0.7517 -1.0534
   49MOL   H19817574   4.696   3.475   7.245 -1.0202 -1.1481 -1.6139
   49MOL   H19917575   4.651   3.601   7.353 -0.4754  0.6048 -0.4662
   49MOL   C20017576   4.552   2.976   7.155 -0.5893 -0.1095 -0.0649
   49MOL   C20117577   4.412   2.920   7.096 -0.3084 -0.0175 -0.7473
   49MOL   C20217578   4.361   3.002   6.975 -0.5107  0.3949 -0.2105
   49MOL   O20317579   4.424   3.007   6.873 -0.0758 -0.0159  0.0311
   49MOL   O20417580   4.247   3.050   7.000 -0.4512 -0.0166 -0.2045
   49MOL   C20517581   4.183   3.128   6.900 -0.0018 -0.3051  0.1501
   49MOL   C20617582   4.074   3.206   6.970 -0.5113  0.3600  0.6443
   49MOL   C20717583   3.948   3.125   6.980  0.6912  0.3456  0.3201
   49MOL   H20817584   4.618   2.896   7.187 -0.1536  0.2412 -0.0728
   49MOL   H20917585   4.613   3.041   7.091 -0.2755 -0.7019 -0.3666
   49MOL   H21017586   4.339   2.931   7.176  1.0577 -2.4842  0.9362
   49MOL   H21117587   4.261   3.193   6.863 -1.2599  1.6998  0.9459
   49MOL   H21217588   4.145   3.063   6.821  2.0565  0.8532 -1.8373
   49MOL   H21317589   4.092   3.251   7.068 -0.2646  0.9810  0.3187
   49MOL   H21417590   4.054   3.297   6.912  3.6172  0.3648 -0.9986
   49MOL   H21517591   3.865   3.183   7.020  1.3553  1.9117 -0.5481
   49MOL   H21617592   3.949   3.048   7.057 -2.4043 -0.3730 -0.2868
   49MOL   H21717593   3.925   3.065   6.892  1.2990  0.2464  0.2277
   49MOL   C21817594   4.425   2.771   7.061 -0.6632 -0.4451  0.1044
   49MOL   C21917595   4.295   2.704   7.011 -0.8242 -0.5119  0.3790
   49MOL   C22017596   4.350   2.572   6.954  0.4815 -0.2873  0.4518
   49MOL   O22117597   4.402   2.485   7.026 -0.1456 -0.4588 -0.4607
   49MOL   O22217598   4.334   2.564   6.827  0.7898  0.1507  0.2593
   49MOL   C22317599   4.361   2.435   6.765 -0.2346 -0.4025 -0.1969
   49MOL   C22417600   4.240   2.345   6.767  0.8390  0.1336 -0.1081
   49MOL   C22517601   4.266   2.208   6.701  0.0506 -0.2740  1.2233
   49MOL   H22617602   4.444   2.721   7.156 -0.9370 -1.3382 -0.2949
   49MOL   H22717603   4.512   2.747   6.999 -1.1967 -0.7487 -0.5313
   49MOL   H22817604   4.263   2.766   6.927 -1.3989  0.1854  1.0986
   49MOL   H22917605   4.389   2.441   6.660 -3.0816 -2.1563 -1.1263
   49MOL   H23017606   4.440   2.379   6.817 -0.3512 -0.4963 -0.1183
   49MOL   H23117607   4.196   2.315   6.862 -1.4424 -0.8395 -1.4196
   49MOL   H23217608   4.152   2.380   6.712 -1.5370  2.0752  4.7056
   49MOL   H23317609   4.301   2.209   6.598  1.2388 -3.3598  1.5306
   49MOL   H23417610   4.177   2.146   6.710 -1.9411  1.8289 -2.7765
   49MOL   H23517611   4.349   2.164   6.756  0.3769  0.8562  1.6497
   49MOL   C23617612   4.191   2.701   7.126  0.3398 -0.1558 -0.1316
   49MOL   C23717613   4.051   2.646   7.085 -0.0262  0.3431  0.9341
   49MOL   C23817614   3.957   2.631   7.207  0.7487 -0.4209  0.4127
   49MOL   O23917615   3.989   2.659   7.319  0.0790  0.5412 -0.1476
   49MOL   O24017616   3.843   2.580   7.169  0.2937  0.4287  0.2341
   49MOL   C24117617   3.734   2.601   7.258  0.0551 -0.5725  0.4680
   49MOL   C24217618   3.615   2.514   7.205 -0.0464  0.0377 -0.0163
   49MOL   C24317619   3.644   2.359   7.224  0.6052 -0.2629  0.4143
   49MOL   H24417620   4.181   2.805   7.156  2.0379 -0.1598  0.4888
   49MOL   H24517621   4.233   2.639   7.205 -0.2656 -1.1773 -0.6002
   49MOL   H24617622   4.064   2.544   7.049  1.0397  0.3264  1.3439
   49MOL   H24717623   3.748   2.561   7.358  1.5028  0.6204  0.7705
   49MOL   H24817624   3.698   2.703   7.269 -0.9729 -0.9365  0.4775
   49MOL   H24917625   3.524   2.550   7.254 -1.0506  2.0539 -3.2066
   49MOL   H25017626   3.592   2.523   7.098 -0.9133 -1.1387  0.0583
   49MOL   H25117627   3.629   2.331   7.328 -1.4649  2.0988  0.8028
   49MOL   H25217628   3.749   2.338   7.206  0.4493 -1.4632  0.8994
   49MOL   H25317629   3.595   2.289   7.156  1.1787 -1.7583  1.5123
   49MOL   C25417630   3.987   2.740   6.974 -0.4016  0.7488  0.6527
   49MOL   C25517631   3.966   2.682   6.830 -0.1316  0.8457 -0.3033
   49MOL   C25617632   3.849   2.588   6.849  0.1594  0.0230  0.2212
   49MOL   O25717633   3.739   2.634   6.867  0.5008  0.2900 -0.4219
   49MOL   O25817634   3.883   2.461   6.861 -0.3866 -0.2191  0.1924
   49MOL   C25917635   3.788   2.368   6.908  0.1851  1.2041  0.3783
   49MOL   C26017636   3.849   2.230   6.956  0.2363  0.0306  0.0613
   49MOL   C26117637   3.906   2.153   6.837 -0.4250  0.6974  0.0801
   49MOL   H26217638   4.045   2.832   6.959 -1.1744  0.7844 -2.4284
   49MOL   H26317639   3.889   2.778   7.003 -1.2080 -1.5749  1.0231
   49MOL   H26417640   4.050   2.621   6.797 -0.2143  0.8463 -0.5151
   49MOL   H26517641   3.741   2.411   6.996  1.0069  0.0735  1.3887
   49MOL   H26617642   3.712   2.349   6.832 -1.5730 -0.0696  2.3846
   49MOL   H26717643   3.928   2.250   7.028  0.4174  1.1260 -0.4439
   49MOL   H26817644   3.782   2.166   7.013  0.5718 -0.8195 -0.4822
   49MOL   H26917645   3.829   2.092   6.790 -1.0825  0.5276  1.3533
   49MOL   H27017646   3.977   2.074   6.859  1.2123  2.4666  1.2615
   49MOL   H27117647   3.961   2.223   6.774  2.7718 -0.3420  1.6307
   49MOL   C27217648   3.928   2.802   6.733 -0.0286 -0.9205  0.7498
   49MOL   C27317649   3.957   2.775   6.583 -0.1037  0.3415  0.4104
   49MOL   C27417650   4.106   2.738   6.559 -0.1873 -0.4874 -0.8523
   49MOL   O27517651   4.141   2.635   6.509 -0.2075  0.4306 -0.0845
   49MOL   O27617652   4.188   2.838   6.601  0.5448  0.0587 -0.6036
   49MOL   C27717653   4.327   2.818   6.575  0.3883  0.0823 -0.1612
   49MOL   C27817654   4.370   2.923   6.466 -0.3600 -0.2469  0.1094
   49MOL   C27917655   4.355   2.869   6.322  0.1455  0.6237 -0.1110
   49MOL   H28017656   3.993   2.888   6.754 -0.7410 -0.5875  1.6238
   49MOL   H28117657   3.829   2.844   6.749  0.2288  0.0274 -0.0668
   49MOL   H28217658   3.936   2.873   6.540  0.2745  0.3928  0.3387
   49MOL   H28317659   4.386   2.847   6.661  1.3883  0.0649 -0.8236
   49MOL   H28417660   4.351   2.713   6.554  0.4485  0.2541 -0.9776
   49MOL   H28517661   4.320   3.020   6.477 -0.0889 -0.0845 -0.0936
   49MOL   H28617662   4.477   2.925   6.483 -0.4244 -2.0686  0.8569
   49MOL   H28717663   4.387   2.765   6.315  1.6191  1.0577  0.0807
   49MOL   H28817664   4.421   2.910   6.245  0.8820 -2.3597 -1.1505
   49MOL   H28917665   4.266   2.875   6.260  0.5204 -1.1333 -0.8626
   49MOL   C29017666   3.848   2.685   6.524  0.2833 -0.3396  0.3285
   49MOL   C29117667   3.817   2.698   6.372  0.0972 -0.2719  0.0903
   49MOL   C29217668   3.757   2.834   6.337  0.1206  0.4267 -0.0629
   49MOL   O29317669   3.641   2.870   6.371 -0.5188 -0.1376 -0.2052
   49MOL   O29417670   3.842   2.916   6.273 -0.3092  0.5005  0.1977
   49MOL   C29517671   3.794   3.041   6.240  0.1069  0.3058 -0.1524
   49MOL   C29617672   3.776   3.133   6.357  0.1270 -0.4420 -0.1223
   49MOL   C29717673   3.903   3.143   6.446 -0.4558 -0.1136  0.0061
   49MOL   H29817674   3.755   2.696   6.580  0.8505  2.4696  0.7954
   49MOL   H29917675   3.874   2.579   6.530  2.6506  0.1162 -1.0383
   49MOL   H30017676   3.736   2.629   6.351  0.3336 -0.7135  0.6026
   49MOL   H30117677   3.860   3.091   6.168 -1.8672  0.4433 -1.9252
   49MOL   H30217678   3.697   3.025   6.193  0.1886 -0.2482 -0.1334
   49MOL   H30317679   3.761   3.236   6.323  0.9189 -0.3256 -0.1306
   49MOL   H30417680   3.693   3.110   6.423  0.3282 -0.7770  0.0141
   49MOL   H30517681   3.991   3.189   6.402 -0.4915  0.5475  0.6121
   49MOL   H30617682   3.932   3.049   6.492  0.0585  0.2821  0.5019
   49MOL   H30717683   3.876   3.210   6.528  0.1964 -0.3962  0.4524
   49MOL   C30817684   3.918   2.649   6.266 -1.2332  0.7896 -0.1019
   49MOL   C30917685   3.855   2.563   6.151 -0.7360  0.1965  0.3964
   49MOL   C31017686   3.790   2.653   6.035 -0.1777  0.6293 -0.3119
   49MOL   O31117687   3.670   2.675   6.037 -0.6387 -0.0634 -0.7512
   49MOL   O31217688   3.882   2.710   5.953 -0.0128  0.2480 -0.1046
   49MOL   C31317689   3.846   2.786   5.840 -0.0724  0.3506  0.6523
   49MOL   C31417690   3.853   2.687   5.723  0.7674  0.0894  0.1820
   49MOL   C31517691   3.990   2.630   5.688 -0.1587 -0.1935  0.5182
   49MOL   H31617692   3.991   2.583   6.313  0.4708  1.5141 -1.6728
   49MOL   H31717693   3.987   2.719   6.218 -1.6878  0.7300 -0.8573
   49MOL   H31817694   3.773   2.509   6.200  0.6942 -2.5621 -0.1205
   49MOL   H31917695   3.747   2.830   5.849 -0.4007 -0.4763  1.0679
   49MOL   H32017696   3.914   2.871   5.830 -0.3979  0.2409 -3.8862
   49MOL   H32117697   3.773   2.615   5.743  1.0206 -0.6114 -1.2250
   49MOL   H32217698   3.816   2.737   5.634  2.0053  0.3748 -0.1866
   49MOL   H32317699   4.063   2.696   5.642 -1.6893  0.4906 -0.9698
   49MOL   H32417700   4.028   2.581   5.778  0.8330 -3.2477 -1.4599
   49MOL   H32517701   3.989   2.551   5.612 -1.6487 -0.8007  1.1465
   49MOL   C32617702   3.961   2.472   6.083 -0.6313 -0.3366 -0.4901
   49MOL   C32717703   3.909   2.352   5.997 -0.4201  0.3155 -0.1645
   49MOL   C32817704   4.029   2.272   5.944  0.6781  0.5051 -0.1726
   49MOL   O32917705   4.084   2.180   6.012  0.0753  0.0015 -0.1049
   49MOL   O33017706   4.066   2.317   5.822  0.0401  0.7005  0.2896
   49MOL   C33117707   4.166   2.257   5.758 -0.0586 -0.2715  0.3982
   49MOL   C33217708   4.162   2.272   5.604 -0.4284  0.0281 -0.1606
   49MOL   C33317709   4.276   2.202   5.544 -0.4026 -0.9862  0.5533
   49MOL   H33417710   4.032   2.426   6.152 -0.8759 -0.9400 -0.6366
   49MOL   H33517711   4.016   2.534   6.012 -0.2020 -1.6525 -1.3259
   49MOL   H33617712   3.863   2.414   5.920  1.6974  2.2389  0.0866
   49MOL   H33717713   4.261   2.288   5.802  2.0388 -0.3543 -3.8309
   49MOL   H33817714   4.163   2.148   5.768  1.8397 -0.5339 -1.5811
   49MOL   H33917715   4.072   2.225   5.563  0.8829 -0.4074 -2.6327
   49MOL   H34017716   4.158   2.378   5.579 -0.4048  0.6746  2.4405
   49MOL   H34117717   4.367   2.257   5.564  0.1045 -2.3204  2.0360
   49MOL   H34217718   4.290   2.104   5.590 -1.2161 -0.1348  2.6951
   49MOL   H34317719   4.268   2.187   5.436  0.3392  1.4630  0.1374
   49MOL   C34417720   3.806   2.258   6.073  0.9857 -0.3785 -0.0290
   49MOL   C34517721   3.656   2.295   6.030 -0.6059  0.0584 -0.1340
   49MOL   C34617722   3.632   2.244   5.883 -0.0365 -0.4024  0.0062
   49MOL   O34717723   3.641   2.124   5.854 -0.6057  0.3926  0.4060
   49MOL   O34817724   3.601   2.344   5.806  0.3706 -0.0158  0.3993
   49MOL   C34917725   3.552   2.319   5.674 -0.4417 -0.4590  0.1055
   49MOL   C35017726   3.663   2.360   5.570  0.0168  0.4298  0.2746
   49MOL   C35117727   3.795   2.289   5.578  0.3558  0.2255 -0.2765
   49MOL   H35217728   3.816   2.276   6.180 -1.0444  0.1410  0.0851
   49MOL   H35317729   3.827   2.152   6.062 -2.1708 -1.0805  0.1658
   49MOL   H35417730   3.635   2.399   6.051 -1.6189 -0.3056  0.6665
   49MOL   H35517731   3.523   2.215   5.662 -0.9139 -0.3555  0.3536
   49MOL   H35617732   3.464   2.379   5.654 -0.5474 -0.1099  1.5992
   49MOL   H35717733   3.624   2.324   5.475  0.5260  1.4260 -0.3301
   49MOL   H35817734   3.682   2.467   5.563  0.1212  0.5444  2.1561
   49MOL   H35917735   3.788   2.181   5.594  1.2876  0.2771  0.5462
   49MOL   H36017736   3.864   2.302   5.494 -2.2660  2.4829 -2.1617
   49MOL   H36117737   3.842   2.321   5.671 -0.3356 -2.1966  0.9443
   49MOL   H36217738   3.596   2.237   6.100  0.4241 -2.2598 -1.0919
   50MOL     C117739   7.553   1.051   5.678  0.6214 -0.3213  0.2698
   50MOL     C217740   7.700   1.099   5.672  0.6354 -0.3186 -0.0858
   50MOL     C317741   7.790   1.000   5.594  0.5008 -0.0053 -0.1005
   50MOL     O417742   7.848   1.034   5.489  0.3410  0.3209 -0.5243
   50MOL     O517743   7.797   0.879   5.658 -0.3233  0.0837 -0.1190
   50MOL     C617744   7.876   0.782   5.596 -0.4508  0.2340  0.1949
   50MOL     C717745   7.798   0.706   5.482 -0.5937  0.4348 -0.0226
   50MOL     C817746   7.875   0.591   5.417 -0.1364 -0.1333  0.7856
   50MOL     H917747   7.542   0.973   5.754 -0.9289 -0.5074 -0.1361
   50MOL    H1017748   7.484   1.121   5.724  0.9546 -0.2255  0.6286
   50MOL    H1117749   7.743   1.105   5.772 -2.7935  1.5287  1.3497
   50MOL    H1217750   0.077   0.838   5.550  0.9950 -1.4389  0.6447
   50MOL    H1317751   0.040   0.711   5.665 -1.4482  0.4826  1.1062
   50MOL    H1417752   7.705   0.671   5.526  0.1221  0.8939  1.9197
   50MOL    H1517753   7.779   0.782   5.407 -1.2849  0.7376  0.4554
   50MOL    H1617754   7.822   0.536   5.338  0.5848  1.3228 -0.7506
   50MOL    H1717755   0.085   0.633   5.373  0.5834 -0.1604  2.2333
   50MOL    H1817756   0.031   0.511   5.482  0.9603 -0.2769  0.0203
   50MOL    H1917757   7.528   1.005   5.583  0.0598 -2.5315  1.4471
   50MOL    C2017758   7.714   1.238   5.604 -0.2781  0.3439 -0.2445
   50MOL    C2117759   7.678   1.357   5.694 -0.3629  0.7336 -0.0241
   50MOL    C2217760   7.789   1.429   5.763 -0.2618 -0.1663  0.1725
   50MOL    O2317761   7.809   1.414   5.887  0.4481  1.1351  0.7068
   50MOL    O2417762   7.873   1.499   5.684  0.0737  0.2655 -0.3795
   50MOL    C2517763   0.115   1.552   5.739 -0.4780  0.3183  0.6208
   50MOL    C2617764   0.096   1.700   5.763  0.1600  0.3057 -0.3857
   50MOL    C2717765   7.872   1.723   5.875 -0.3210  0.1334 -0.3386
   50MOL    H2817766   7.650   1.254   5.517 -1.5588  1.0482  0.8165
   50MOL    H2917767   7.814   1.267   5.573  0.2228 -0.6881  0.3938
   50MOL    H3017768   7.619   1.324   5.780  0.6330  0.6892  0.6473
   50MOL    H3117769   0.134   1.502   5.833 -1.4317 -2.0337 -0.4129
   50MOL    H3217770   0.196   1.527   5.670 -0.1927 -2.0555  1.7847
   50MOL    H3317771   0.186   1.745   5.804 -0.7048 -0.1515  2.1084
   50MOL    H3417772   0.057   1.750   5.674 -3.6190 -2.6454 -0.5295
   50MOL    H3517773   7.777   1.686   5.836  0.3447 -1.2155 -0.7241
   50MOL    H3617774   7.858   1.830   5.889  0.0483  0.3458 -1.6192
   50MOL    H3717775   0.008   1.671   5.970  0.9364 -0.9122 -1.1182
   50MOL    C3817776   7.588   1.450   5.622  1.2281 -0.1684  0.6080
   50MOL    C3917777   7.440   1.413   5.616  0.2630 -0.2498  0.3731
   50MOL    C4017778   7.369   1.438   5.749 -0.0858  0.3196  0.5641
   50MOL    O4117779   7.431   1.460   5.856  0.2367  0.2534  0.5659
   50MOL    O4217780   7.237   1.450   5.735  0.2719  0.2026  0.2225
   50MOL    C4317781   7.152   1.446   5.856  0.2499  0.3181  0.4324
   50MOL    C4417782   7.010   1.415   5.812 -0.2741  0.3289 -0.0321
   50MOL    C4517783   6.995   1.262   5.783 -0.2011 -0.6491 -0.6573
   50MOL    H4617784   7.634   1.455   5.523 -1.6640  0.6185 -0.7404
   50MOL    H4717785   7.603   1.554   5.654  1.3166  1.2776 -3.8010
   50MOL    H4817786   7.428   1.305   5.613  1.2535 -0.3858  1.1057
   50MOL    H4917787   7.189   1.371   5.926  0.8626 -1.8618 -2.1337
   50MOL    H5017788   7.150   1.550   5.887 -1.3360  0.3010  0.4502
   50MOL    H5117789   6.933   1.447   5.882 -3.0255  0.0264 -2.8065
   50MOL    H5217790   6.977   1.476   5.728 -1.0070 -1.2985 -0.9595
   50MOL    H5317791   7.065   1.230   5.705 -0.1186  0.5593 -1.0991
   50MOL    H5417792   6.898   1.237   5.740  0.0475  0.2802 -1.7770
   50MOL    H5517793   7.021   1.210   5.875 -2.3817 -0.5244  0.0642
   50MOL    C5617794   7.378   1.479   5.483 -0.2265  0.0566  0.0576
   50MOL    C5717795   7.435   1.425   5.349 -0.1187  0.0254 -0.4008
   50MOL    C5817796   7.405   1.281   5.329 -0.1380  0.3283 -0.0967
   50MOL    O5917797   7.490   1.191   5.322 -0.3978 -0.0168 -0.3348
   50MOL    O6017798   7.275   1.266   5.315  0.0845 -0.2294 -0.0038
   50MOL    C6117799   7.219   1.137   5.303 -0.1113 -0.8461 -0.2422
   50MOL    C6217800   7.078   1.134   5.364 -0.0397 -0.7052  0.4157
   50MOL    C6317801   7.017   0.991   5.347  0.0322 -0.0983 -0.6981
   50MOL    H6417802   7.383   1.588   5.485  3.8171 -0.0992  0.8449
   50MOL    H6517803   7.269   1.477   5.494 -0.2470  0.0151 -0.1520
   50MOL    H6617804   7.544   1.420   5.347 -0.1641 -1.5606  0.1890
   50MOL    H6717805   7.211   1.114   5.197  0.8664 -0.9558 -0.2916
   50MOL    H6817806   7.275   1.051   5.339 -0.7568 -1.3558 -0.4572
   50MOL    H6917807   7.077   1.156   5.471  0.8852  1.6236 -0.0123
   50MOL    H7017808   7.019   1.211   5.315  0.4468 -0.8103 -0.3320
   50MOL    H7117809   7.053   0.931   5.262 -0.0956 -0.4690 -0.4920
   50MOL    H7217810   6.909   0.982   5.343  0.1501 -2.5841  0.4611
   50MOL    H7317811   7.036   0.936   5.440 -2.5536  0.5207  0.2096
   50MOL    C7417812   7.396   1.517   5.228 -0.5632 -0.5344 -0.1521
   50MOL    C7517813   7.521   1.578   5.152  0.2525  0.2446 -0.4902
   50MOL    C7617814   7.598   1.692   5.225  0.2101 -0.6572 -0.3006
   50MOL    O7717815   7.572   1.813   5.205 -0.4069 -0.2831  0.2695
   50MOL    O7817816   7.681   1.645   5.324  0.3276 -0.2284  0.3120
   50MOL    C7917817   7.784   1.732   5.377 -0.4158  0.3175 -0.4971
   50MOL    C8017818   0.034   1.701   5.304 -0.0518  0.1183  0.9862
   50MOL    C8117819   0.077   1.556   5.334 -0.0535  0.1105  0.4212
   50MOL    H8217820   7.343   1.603   5.270 -0.0615 -0.1094 -0.3982
   50MOL    H8317821   7.326   1.476   5.155 -0.6935  0.2426 -0.4705
   50MOL    H8417822   7.488   1.619   5.057  1.8574  0.9210 -0.7598
   50MOL    H8517823   7.752   1.836   5.371  0.0952  0.5168  0.1779
   50MOL    H8617824   7.801   1.714   5.483  2.7374 -0.7418 -1.1159
   50MOL    H8717825   0.025   1.706   5.196 -0.9901  1.1963  1.1072
   50MOL    H8817826   0.120   1.765   5.322 -0.0533  0.9006 -1.6454
   50MOL    H8917827   0.132   1.528   5.245  1.3436  1.5880  0.8007
   50MOL    H9017828   7.874   1.486   5.344  0.1550  0.0248  1.6271
   50MOL    H9117829   0.141   1.542   5.421 -0.8150 -0.7044  0.8641
   50MOL    C9217830   7.625   1.471   5.102 -1.1509 -0.1611 -0.1275
   50MOL    C9317831   7.557   1.372   5.001 -0.1870 -0.8985  0.0790
   50MOL    C9417832   7.546   1.440   4.858  0.1241  0.2063  0.1917
   50MOL    O9517833   7.463   1.524   4.831  0.4048 -1.1097 -0.0691
   50MOL    O9617834   7.644   1.407   4.789 -0.2022 -0.2551  0.8842
   50MOL    C9717835   7.639   1.447   4.651 -0.7396  0.1114 -0.5342
   50MOL    C9817836   7.641   1.322   4.568 -0.3596  0.0290  0.1168
   50MOL    C9917837   7.762   1.227   4.588  0.1328 -0.4523 -0.2119
   50MOL   H10017838   7.670   1.410   5.180 -1.6581 -1.2189 -0.6322
   50MOL   H10117839   7.709   1.529   5.064 -0.2128 -0.2980  1.6839
   50MOL   H10217840   7.453   1.363   5.032 -0.0691 -0.2676  0.6610
   50MOL   H10317841   7.568   1.521   4.614 -1.6288 -0.4293  0.0733
   50MOL   H10417842   7.733   1.499   4.634 -0.2756 -0.9815 -1.4095
   50MOL   H10517843   7.543   1.273   4.565  0.2395 -1.2943  1.2760
   50MOL   H10617844   7.653   1.357   4.466 -0.7556  2.4928  0.9042
   50MOL   H10717845   7.772   1.179   4.685  1.7151 -0.5831 -0.4378
   50MOL   H10817846   7.854   1.280   4.565 -0.4507  1.7716  2.2321
   50MOL   H10917847   7.757   1.144   4.519  1.2750 -1.6269  1.0822
   50MOL   C11017848   7.618   1.236   5.008  0.0912  0.4002  0.3184
   50MOL   C11117849   7.552   1.121   4.928  0.4060 -0.0858  0.6227
   50MOL   C11217850   7.648   1.009   4.914  0.4115  0.3686 -0.1180
   50MOL   O11317851   7.688   0.964   4.808 -0.3802 -0.4579 -0.1401
   50MOL   O11417852   7.670   0.950   5.029 -0.3653 -0.3130  0.2520
   50MOL   C11517853   7.759   0.840   5.047 -0.3286 -0.4820 -0.0489
   50MOL   C11617854   7.702   0.701   4.998  0.4914 -0.1899  0.0310
   50MOL   C11717855   7.790   0.580   5.001  0.0285 -0.3607  0.1877
   50MOL   H11817856   7.620   1.198   5.110  1.1214 -1.4405 -0.3638
   50MOL   H11917857   7.716   1.241   4.960  0.1414 -1.0310  0.2293
   50MOL   H12017858   7.533   1.159   4.828 -0.3053 -0.4354  0.6290
   50MOL   H12117859   7.851   0.856   4.990 -1.5047 -0.8935 -2.1418
   50MOL   H12217860   7.774   0.843   5.155 -0.8635 -1.0570  0.0490
   50MOL   H12317861   7.607   0.684   5.048  1.4132  0.2622  1.9863
   50MOL   H12417862   7.675   0.720   4.895 -0.8718 -1.7035  0.0898
   50MOL   H12517863   7.725   0.492   5.000 -1.0977  0.4661 -0.2675
   50MOL   H12617864   7.854   0.569   5.089  1.4325 -0.6231 -0.8463
   50MOL   H12717865   7.847   0.568   4.909 -2.1813 -1.3658 -1.0830
   50MOL   C12817866   7.417   1.081   4.994  0.4452  0.1073  0.2458
   50MOL   C12917867   7.334   0.996   4.904  0.5916 -0.4462 -0.4303
   50MOL   C13017868   7.324   0.850   4.943 -0.0759  0.5202  0.4861
   50MOL   O13117869   7.300   0.816   5.064 -0.1383  0.0413 -0.0746
   50MOL   O13217870   7.344   0.767   4.837  0.1723 -0.5206 -0.0760
   50MOL   C13317871   7.343   0.630   4.856 -0.0061  1.0681  0.5587
   50MOL   C13417872   7.205   0.566   4.860  0.6833  0.0502 -0.2552
   50MOL   C13517873   7.136   0.547   4.726  0.6420  0.0690  0.6625
   50MOL   H13617874   7.367   1.178   5.007  4.0225  2.0953 -0.1450
   50MOL   H13717875   7.428   1.040   5.094  1.5413  0.3441  0.2295
   50MOL   H13817876   7.379   0.989   4.805 -0.8927  0.4855 -1.1877
   50MOL   H13917877   7.400   0.575   4.781  0.9916  0.7966  1.5091
   50MOL   H14017878   7.378   0.612   4.957 -2.7250  1.2290  1.5782
   50MOL   H14117879   7.207   0.465   4.901 -1.4478 -0.3871 -1.1714
   50MOL   H14217880   7.151   0.619   4.938  0.2860 -1.3687  0.4580
   50MOL   H14317881   7.036   0.505   4.736 -0.2842  1.1123 -3.3770
   50MOL   H14417882   7.191   0.483   4.658  0.9615 -0.0961  1.0730
   50MOL   H14517883   7.128   0.647   4.683  0.7119 -1.0372 -2.0312
   50MOL   C14617884   7.185   1.037   4.882  0.0327 -0.7702  0.0427
   50MOL   C14717885   7.157   1.166   4.800 -0.6112  0.8325  0.1065
   50MOL   C14817886   7.232   1.162   4.664  0.0160 -0.1393 -0.0957
   50MOL   O14917887   7.282   1.262   4.613 -0.0884  0.2994 -0.1858
   50MOL   O15017888   7.223   1.038   4.601 -0.6847 -0.9496  0.0868
   50MOL   C15117889   7.278   1.021   4.472 -0.1528  0.4147 -0.2747
   50MOL   C15217890   7.429   0.990   4.454  0.0271 -0.1451 -0.3327
   50MOL   C15317891   7.475   0.856   4.509  0.4019 -0.4071 -0.3480
   50MOL   H15417892   7.146   1.040   4.983  1.1249 -1.5073  0.5060
   50MOL   H15517893   7.130   0.955   4.835 -2.6732  1.0860 -0.0991
   50MOL   H15617894   7.202   1.250   4.853  1.6763  0.7677 -1.6413
   50MOL   H15717895   7.227   0.942   4.418  0.9137  0.1402 -0.8922
   50MOL   H15817896   7.259   1.114   4.419  1.6990 -0.7986 -3.1907
   50MOL   H15917897   7.462   0.997   4.350 -0.7958 -0.6127 -0.6326
   50MOL   H16017898   7.478   1.072   4.506  0.6786  0.1923 -1.4595
   50MOL   H16117899   7.431   0.770   4.461 -0.5968 -0.5700  0.8389
   50MOL   H16217900   7.449   0.861   4.615 -2.4493 -0.0606 -1.0365
   50MOL   H16317901   7.584   0.855   4.510  0.4056 -1.5551  1.6037
   50MOL   C16417902   7.012   1.195   4.783  0.2669  0.0545 -0.6061
   50MOL   C16517903   6.932   1.252   4.908  0.2977  0.2788  0.3745
   50MOL   C16617904   7.001   1.366   4.972  0.2208  0.1549  0.0024
   50MOL   O16717905   7.045   1.359   5.089 -0.0515  0.5575 -0.0865
   50MOL   O16817906   7.018   1.472   4.885  0.2317  0.5891  0.7111
   50MOL   C16917907   7.071   1.599   4.926 -0.4555 -0.7701  0.2878
   50MOL   C17017908   6.983   1.669   5.031 -0.8285 -0.0358  0.0048
   50MOL   C17117909   6.843   1.707   4.987  0.4314 -0.6960  0.2546
   50MOL   H17217910   6.963   1.102   4.755 -1.1054  0.5362  0.1710
   50MOL   H17317911   7.002   1.262   4.697  0.6469  0.9180  0.0073
   50MOL   H17417912   6.925   1.171   4.981  0.5465  1.1092  1.3350
   50MOL   H17517913   7.172   1.575   4.958  0.3588  1.4682 -0.4944
   50MOL   H17617914   7.076   1.666   4.840  1.3040  1.1065  1.7873
   50MOL   H17717915   6.972   1.611   5.123 -0.4500 -2.4997 -1.4458
   50MOL   H17817916   7.043   1.756   5.056  2.4025 -1.5304 -2.1551
   50MOL   H17917917   6.799   1.611   4.959  0.8423 -0.8333  0.0803
   50MOL   H18017918   6.851   1.767   4.896 -0.7170 -0.7426  0.1131
   50MOL   H18117919   6.788   1.761   5.064 -0.4455  0.2694 -1.0250
   50MOL   C18217920   6.783   1.283   4.874 -0.5537 -0.0871 -0.1150
   50MOL   C18317921   6.689   1.334   4.990  0.0977 -0.3240  0.2618
   50MOL   C18417922   6.548   1.370   4.934  0.0948 -0.4872  0.6115
   50MOL   O18517923   6.519   1.356   4.817 -0.0189  0.7165  0.2924
   50MOL   O18617924   6.471   1.429   5.033 -0.4446  0.1867  0.5116
   50MOL   C18717925   6.343   1.494   5.008  0.3465 -0.1312  0.3756
   50MOL   C18817926   6.350   1.631   5.085 -0.1090  0.6234 -0.1447
   50MOL   C18917927   6.448   1.728   5.012  0.5402 -0.3826  0.8210
   50MOL   H19017928   6.741   1.192   4.831  0.5729 -0.7978  0.2604
   50MOL   H19117929   6.772   1.355   4.794 -2.0962  1.2295  1.2480
   50MOL   H19217930   6.739   1.423   5.027 -2.1174  1.3160 -0.6078
   50MOL   H19317931   6.324   1.500   4.901 -0.8067  0.7264  0.6204
   50MOL   H19417932   6.261   1.449   5.064 -2.2850  1.2301 -2.2704
   50MOL   H19517933   6.253   1.675   5.106  0.6854  1.5480  1.6737
   50MOL   H19617934   6.391   1.618   5.185  0.9783  0.4258 -0.6067
   50MOL   H19717935   6.425   1.829   5.046  0.6074  0.3101 -1.1294
   50MOL   H19817936   6.442   1.724   4.904 -2.5225  0.3279  0.9142
   50MOL   H19917937   6.553   1.716   5.038  0.3757  1.0232  2.2516
   50MOL   C20017938   6.670   1.235   5.107 -0.5675  0.0708  0.1156
   50MOL   C20117939   6.587   1.101   5.089  0.1234 -0.0566 -0.9453
   50MOL   C20217940   6.655   1.000   4.994  0.1113  0.0982 -0.0011
   50MOL   O20317941   6.596   0.961   4.892 -1.2407  0.2531  0.1044
   50MOL   O20417942   6.775   0.969   5.024 -0.5520  0.0354  0.1934
   50MOL   C20517943   6.848   0.876   4.948  0.0366 -0.4010  0.5067
   50MOL   C20617944   6.925   0.773   5.027  0.1036 -0.2095  0.7029
   50MOL   C20717945   6.841   0.665   5.086  0.4167 -0.1225 -0.9071
   50MOL   H20817946   6.619   1.300   5.178  0.8319 -1.6349  2.7638
   50MOL   H20917947   6.761   1.232   5.167 -0.6297 -2.0308  0.1284
   50MOL   H21017948   6.490   1.121   5.043 -0.5581  0.8398  0.8157
   50MOL   H21117949   6.792   0.812   4.881 -0.1648 -0.5696  0.8338
   50MOL   H21217950   6.923   0.925   4.886  1.7207 -2.1233  1.1458
   50MOL   H21317951   6.999   0.733   4.957 -0.1633 -2.1635  1.5062
   50MOL   H21417952   6.993   0.814   5.102  1.1558 -0.7461  0.0662
   50MOL   H21517953   6.887   0.598   5.159  0.6990  1.0190 -0.0141
   50MOL   H21617954   6.815   0.590   5.011 -1.3022 -0.5923  0.1292
   50MOL   H21717955   6.751   0.695   5.140 -0.1663  1.0072 -2.4705
   50MOL   C21817956   6.554   1.045   5.226  0.1592 -0.2599 -0.5971
   50MOL   C21917957   6.406   1.014   5.243 -0.3301  0.6022 -0.0609
   50MOL   C22017958   6.313   1.135   5.240 -0.3910 -0.1382 -0.5743
   50MOL   O22117959   6.211   1.140   5.175 -0.2188 -0.0618 -0.3658
   50MOL   O22217960   6.359   1.237   5.316 -0.0860 -0.6427 -0.8426
   50MOL   C22317961   6.287   1.363   5.315  0.3268 -0.5738 -0.0938
   50MOL   C22417962   6.246   1.416   5.453  0.5078  0.2964 -0.0483
   50MOL   C22517963   6.370   1.443   5.540  0.2454 -0.1254 -0.2977
   50MOL   H22617964   6.589   1.114   5.303 -2.2739 -1.0627  1.3113
   50MOL   H22717965   6.610   0.954   5.248  1.6430  0.4122 -1.4961
   50MOL   H22817966   6.396   0.990   5.349 -2.1050 -2.8704 -0.9426
   50MOL   H22917967   6.349   1.439   5.267  0.6534 -1.9037 -1.8109
   50MOL   H23017968   6.193   1.356   5.260 -0.0673  1.3415  0.2997
   50MOL   H23117969   6.177   1.498   5.433  0.3326 -0.0738 -1.0032
   50MOL   H23217970   6.195   1.328   5.492  0.0213  0.1546 -0.9723
   50MOL   H23317971   6.459   1.383   5.521 -1.1953 -2.7573  1.0706
   50MOL   H23417972   6.341   1.448   5.645  1.7424 -0.5550  0.1396
   50MOL   H23517973   6.401   1.543   5.507  0.3786  0.1626  0.7001
   50MOL   C23617974   6.346   0.894   5.163  0.1687 -0.0751  0.0140
   50MOL   C23717975   6.427   0.757   5.171 -0.7821 -0.8020 -0.0014
   50MOL   C23817976   6.453   0.702   5.307  0.3042  0.1090  0.8145
   50MOL   O23917977   6.559   0.724   5.360  0.3007 -0.5132  0.3486
   50MOL   O24017978   6.351   0.637   5.357 -0.4819  0.4084  0.2549
   50MOL   C24117979   6.374   0.546   5.461  0.1316  0.3736  0.2293
   50MOL   C24217980   6.370   0.613   5.601 -0.7718 -0.0088  0.4160
   50MOL   C24317981   6.233   0.632   5.660  0.5819 -0.6431  0.0563
   50MOL   H24417982   6.349   0.939   5.063 -0.3298  2.4670  1.1090
   50MOL   H24517983   6.243   0.871   5.187  0.3729 -0.2606  0.7252
   50MOL   H24617984   6.519   0.799   5.132 -1.9002  1.2349 -0.5077
   50MOL   H24717985   6.297   0.471   5.445 -0.2060  0.8187 -0.2404
   50MOL   H24817986   6.470   0.495   5.446  0.4772  0.7555  1.0959
   50MOL   H24917987   6.416   0.541   5.669  2.7061  0.9651 -0.7824
   50MOL   H25017988   6.429   0.704   5.606 -1.4315  0.3828  1.2619
   50MOL   H25117989   6.177   0.691   5.586  1.3720 -0.4242 -0.3742
   50MOL   H25217990   6.234   0.694   5.750  0.1758 -1.4432  0.6126
   50MOL   H25317991   6.193   0.532   5.679 -1.1767  0.0867  0.3328
   50MOL   C25417992   6.375   0.655   5.068 -0.0816  0.4952  0.6109
   50MOL   C25517993   6.486   0.560   5.008  0.2097 -0.3033 -0.4228
   50MOL   C25617994   6.509   0.437   5.091 -0.5942  0.4189  0.5111
   50MOL   O25717995   6.439   0.403   5.190 -0.8424 -0.1757 -0.2299
   50MOL   O25817996   6.612   0.364   5.047 -0.2965  0.0406 -0.4975
   50MOL   C25917997   6.645   0.243   5.115  0.7090 -0.5535  0.1384
   50MOL   C26017998   6.735   0.164   5.022 -0.5969 -0.6850  0.7893
   50MOL   C26117999   6.851   0.246   4.956 -0.8571 -0.1779  0.7647
   50MOL   H26218000   6.352   0.711   4.977 -1.3054  0.3284  0.7994
   50MOL   H26318001   6.285   0.606   5.105 -0.3959  1.6220  1.3905
   50MOL   H26418002   6.580   0.613   5.002 -1.4980  2.6714 -2.0665
   50MOL   H26518003   6.702   0.273   5.202  0.1817 -0.9038  0.6072
   50MOL   H26618004   6.557   0.187   5.148  0.3874 -0.2015 -0.1160
   50MOL   H26718005   6.782   0.091   5.087 -0.8130 -2.9389 -1.4965
   50MOL   H26818006   6.672   0.125   4.942 -0.3771 -0.7864  0.6670
   50MOL   H26918007   6.915   0.293   5.031 -0.9050  0.2565  0.5413
   50MOL   H27018008   6.811   0.318   4.884 -0.3954 -0.3389  0.3479
   50MOL   H27118009   6.915   0.175   4.904  0.6275  1.0375  0.9059
   50MOL   C27218010   6.439   0.514   4.872 -0.1069 -0.4697 -0.4703
   50MOL   C27318011   6.491   0.608   4.752 -0.5602  0.1159  1.0274
   50MOL   C27418012   6.642   0.608   4.741  0.5301 -0.4124  0.2152
   50MOL   O27518013   6.711   0.523   4.798  0.0987  0.2672 -0.1184
   50MOL   O27618014   6.687   0.712   4.674  0.1399  0.0941  0.1130
   50MOL   C27718015   6.816   0.743   4.661 -0.3451  0.1094  0.5983
   50MOL   C27818016   6.871   0.707   4.523  0.1790 -0.0356  0.6834
   50MOL   C27918017   6.988   0.792   4.475 -0.7161  0.3874  0.3797
   50MOL   H28018018   6.330   0.518   4.872 -0.1820 -1.9633  0.7666
   50MOL   H28118019   6.455   0.410   4.841 -1.6318 -1.7265  2.7695
   50MOL   H28218020   6.456   0.710   4.766  0.0068  0.6742 -1.3158
   50MOL   H28318021   6.818   0.850   4.681  0.8861  0.1402  0.3528
   50MOL   H28418022   6.884   0.700   4.735  0.5030 -0.0221 -0.2490
   50MOL   H28518023   6.899   0.602   4.525 -2.1817 -0.7533 -0.9974
   50MOL   H28618024   6.782   0.716   4.460 -0.2290  0.5126  1.3307
   50MOL   H28718025   7.019   0.753   4.378  3.1431 -0.1004  1.6977
   50MOL   H28818026   7.074   0.793   4.543  0.1375 -1.3276 -0.6275
   50MOL   H28918027   6.940   0.886   4.451 -0.0338  0.2488 -1.6340
   50MOL   C29018028   6.426   0.565   4.617 -0.0958 -0.3611 -0.7252
   50MOL   C29118029   6.416   0.683   4.521  0.5257  0.0892 -0.0433
   50MOL   C29218030   6.479   0.652   4.392  0.8136  0.4644  0.0244
   50MOL   O29318031   6.556   0.735   4.341 -0.2321 -0.0441 -0.3579
   50MOL   O29418032   6.434   0.538   4.330  0.1807  0.1351 -0.3698
   50MOL   C29518033   6.506   0.490   4.216 -0.7263 -0.1523  0.2395
   50MOL   C29618034   6.482   0.343   4.197  0.1564 -0.0992 -0.4597
   50MOL   C29718035   6.337   0.299   4.159  0.3743  0.4888 -0.0975
   50MOL   H29818036   6.330   0.518   4.634  0.4310 -0.6434  1.6692
   50MOL   H29918037   6.485   0.484   4.574  1.8715  0.9279 -0.5303
   50MOL   H30018038   6.478   0.763   4.562 -0.2887 -0.2988  2.0106
   50MOL   H30118039   6.474   0.552   4.131  0.5514 -0.5389 -0.5483
   50MOL   H30218040   6.615   0.498   4.217 -0.7732  0.4387  2.7393
   50MOL   H30318041   6.549   0.293   4.127 -0.4914  2.0511 -2.7182
   50MOL   H30418042   6.507   0.300   4.294 -1.6158 -0.4939 -0.1654
   50MOL   H30518043   6.275   0.309   4.247  1.5829  0.5214  0.7673
   50MOL   H30618044   6.331   0.190   4.154 -0.6572  0.5281  0.2687
   50MOL   H30718045   6.289   0.354   4.078  1.7024  1.9672  0.1019
   50MOL   C30818046   6.276   0.740   4.502  0.0039  0.0706  0.0432
   50MOL   C30918047   6.201   0.807   4.619 -0.1770 -0.0020 -0.1852
   50MOL   C31018048   6.265   0.933   4.668  0.7770 -0.2334  0.2272
   50MOL   O31118049   6.253   0.953   4.791 -0.1222  0.3500  0.8626
   50MOL   O31218050   6.314   1.012   4.570  0.3111  0.7404  0.1507
   50MOL   C31318051   6.397   1.124   4.597 -0.1395  0.0626 -0.1528
   50MOL   C31418052   6.524   1.135   4.514 -0.1766  0.0892 -0.0411
   50MOL   C31518053   6.628   1.034   4.542  0.1117  0.3332  0.2326
   50MOL   H31618054   6.221   0.655   4.462  1.6225 -1.0324  0.0920
   50MOL   H31718055   6.294   0.813   4.423 -0.5849 -0.0871 -0.2389
   50MOL   H31818056   6.191   0.731   4.695 -2.7182  2.1395  1.7213
   50MOL   H31918057   6.340   1.215   4.576 -0.4434  0.2624  1.4562
   50MOL   H32018058   6.419   1.125   4.704 -1.1517 -0.9784  0.0676
   50MOL   H32118059   6.500   1.146   4.408  0.6585  0.7593 -0.1637
   50MOL   H32218060   6.572   1.223   4.556  0.0228 -0.2987  0.5392
   50MOL   H32318061   6.619   0.950   4.474  0.1237  0.3347  0.2291
   50MOL   H32418062   6.725   1.075   4.516 -0.1262  0.4774 -0.4241
   50MOL   H32518063   6.626   1.001   4.646  0.9090  1.0037  0.4669
   50MOL   C32618064   6.057   0.832   4.576 -0.1065  0.1636  0.8956
   50MOL   C32718065   5.971   0.718   4.516 -0.4174  0.4103 -0.1526
   50MOL   C32818066   5.968   0.594   4.609  0.0136 -0.2751 -0.6670
   50MOL   O32918067   6.007   0.483   4.573  0.5325 -0.3027 -0.4660
   50MOL   O33018068   5.924   0.612   4.732  0.7067  0.0908 -0.1005
   50MOL   C33118069   5.954   0.517   4.839  0.0686  0.3588 -0.0156
   50MOL   C33218070   5.970   0.601   4.963  0.0063  0.8107  0.7638
   50MOL   C33318071   5.862   0.710   4.977  0.1968 -0.7516  0.2084
   50MOL   H33418072   6.055   0.918   4.508  4.1449  0.1763  0.6887
   50MOL   H33518073   5.993   0.870   4.656  2.8506  2.7540  2.1509
   50MOL   H33618074   6.008   0.686   4.419 -0.0859 -0.3702  0.2302
   50MOL   H33718075   5.879   0.438   4.848 -0.0591  0.3549 -1.0112
   50MOL   H33818076   6.049   0.465   4.828  0.1083  0.5083 -0.4129
   50MOL   H33918077   5.964   0.540   5.053  0.0962  0.4968  0.5589
   50MOL   H34018078   6.068   0.649   4.956  0.6857 -0.5484  0.7233
   50MOL   H34118079   5.758   0.678   4.977  0.3034 -1.1209  1.1315
   50MOL   H34218080   5.881   0.755   5.075 -0.3237  0.6396 -0.3219
   50MOL   H34318081   5.857   0.789   4.902  0.5610 -0.3998  0.5529
   50MOL   C34418082   5.829   0.766   4.476  0.1487  0.5853  0.7676
   50MOL   C34518083   5.726   0.662   4.425  0.4683 -0.6581 -0.0526
   50MOL   C34618084   5.777   0.573   4.314 -0.2775 -0.1611 -0.6034
   50MOL   O34718085   5.745   0.458   4.305  0.3872  0.2386  0.3686
   50MOL   O34818086   5.859   0.645   4.232 -0.5877 -0.4539  0.1027
   50MOL   C34918087   5.897   0.578   4.110 -0.8936  0.0317  0.4685
   50MOL   C35018088   6.046   0.551   4.120 -0.2030  0.9106  0.6391
   50MOL   C35118089   6.143   0.666   4.143  0.5396 -0.4513  0.2016
   50MOL   H35218090   5.830   0.856   4.414  0.4990  1.0249  1.4063
   50MOL   H35318091   5.781   0.793   4.570 -0.5149  0.3565  0.4921
   50MOL   H35418092   5.636   0.714   4.391  1.7025 -0.0561 -2.4540
   50MOL   H35518093   5.866   0.475   4.095  0.9375 -0.2215 -1.8206
   50MOL   H35618094   5.873   0.641   4.024  2.0084  0.4626 -0.0792
   50MOL   H35718095   6.057   0.474   4.197  0.7350  0.4279  0.0296
   50MOL   H35818096   6.074   0.496   4.031 -0.6500  1.2391  0.2941
   50MOL   H35918097   6.151   0.736   4.060  3.1056  1.4865  1.9674
   50MOL   H36018098   6.102   0.732   4.221  2.7493  1.3919 -0.1304
   50MOL   H36118099   6.243   0.629   4.167  0.0718 -0.8155  1.6916
   50MOL   H36218100   5.685   0.594   4.500 -0.6146 -1.7338 -1.5874
   51MOL     C118101   7.822   5.087   2.527  0.3800  0.3629 -0.0686
   51MOL     C218102   7.673   5.111   2.555 -0.2568  0.2718 -0.2192
   51MOL     C318103   7.606   4.994   2.635 -0.8587 -0.5437 -0.0699
   51MOL     O418104   7.536   4.913   2.575 -0.4351  0.1066 -0.2744
   51MOL     O518105   7.642   4.986   2.773  0.2543  0.3106  0.1897
   51MOL     C618106   7.598   4.875   2.846 -0.3277 -0.6970  0.7496
   51MOL     C718107   7.450   4.845   2.854 -0.5559  0.8676  0.0354
   51MOL     C818108   7.415   4.720   2.931 -0.2976 -0.1345  0.2896
   51MOL     H918109   0.000   5.128   2.609  0.3297  0.7985 -0.2465
   51MOL    H1018110   7.848   4.982   2.512  0.9840  0.7058 -1.5141
   51MOL    H1118111   7.621   5.117   2.459  0.9936  0.7587 -0.8770
   51MOL    H1218112   7.637   4.794   2.785 -0.5660 -0.6117  0.4824
   51MOL    H1318113   7.648   4.871   2.943  1.4745 -0.4793 -0.1516
   51MOL    H1418114   7.400   4.927   2.905  0.6338  1.0131  0.9803
   51MOL    H1518115   7.411   4.834   2.752 -0.7892  2.3499 -0.0487
   51MOL    H1618116   7.315   4.687   2.902 -0.4721 -0.1920  0.9330
   51MOL    H1718117   7.475   4.632   2.904  0.9899  0.4194  1.2664
   51MOL    H1818118   7.428   4.729   3.039  6.2664 -2.7462 -0.0173
   51MOL    H1918119   7.849   5.144   2.438 -0.7911 -0.4089 -0.9343
   51MOL    C2018120   7.644   5.258   2.595  0.2514 -0.6299  0.5141
   51MOL    C2118121   7.673   5.367   2.493  0.6377 -0.2507 -0.5865
   51MOL    C2218122   7.605   5.350   2.357 -0.5503 -0.0772 -0.0799
   51MOL    O2318123   7.669   5.369   2.255  0.1625  0.1031 -0.3675
   51MOL    O2418124   7.480   5.327   2.367  0.5862 -0.0771  0.1891
   51MOL    C2518125   7.393   5.333   2.252 -0.5890 -0.8043 -0.6556
   51MOL    C2618126   7.322   5.472   2.236 -0.0978  0.1961  0.4851
   51MOL    C2718127   7.241   5.526   2.348 -0.3422  0.2516 -0.0648
   51MOL    H2818128   7.707   5.264   2.684 -0.2916 -0.9138  0.9215
   51MOL    H2918129   7.544   5.263   2.637 -0.2659 -2.7384 -0.4224
   51MOL    H3018130   7.781   5.371   2.481  0.9547 -2.3264  1.3507
   51MOL    H3118131   7.439   5.300   2.159 -1.7891 -2.2362 -0.7602
   51MOL    H3218132   7.320   5.253   2.263  0.3211 -1.6081 -0.4028
   51MOL    H3318133   7.387   5.558   2.219 -2.1759  1.5593 -0.8305
   51MOL    H3418134   7.252   5.471   2.151 -0.6231 -1.1640  0.9211
   51MOL    H3518135   7.318   5.562   2.417  1.4373 -0.8536 -1.4201
   51MOL    H3618136   7.169   5.450   2.379  1.8748 -1.6629  0.5321
   51MOL    H3718137   7.183   5.613   2.317 -1.2554 -0.9777 -1.9250
   51MOL    C3818138   7.622   5.503   2.549 -0.2228  0.3626 -0.4388
   51MOL    C3918139   7.677   5.550   2.687  0.0508 -0.3882 -0.4050
   51MOL    C4018140   7.830   5.574   2.688 -0.9076  0.2084 -0.4619
   51MOL    O4118141   0.018   5.543   2.785 -0.9466  0.4023 -0.0310
   51MOL    O4218142   0.006   5.642   2.579 -0.0134  0.0442  0.4561
   51MOL    C4318143   0.139   5.691   2.583  0.5351 -0.5745 -0.3608
   51MOL    C4418144   0.231   5.597   2.503  0.0366 -0.1359  0.1153
   51MOL    C4518145   0.170   5.580   2.364 -0.0790  0.1999  0.1349
   51MOL    H4618146   7.513   5.498   2.556 -0.2880  1.2099 -0.7849
   51MOL    H4718147   7.652   5.585   2.484  0.1289  0.1592 -0.5347
   51MOL    H4818148   7.653   5.485   2.770 -1.0963  0.4322 -0.0838
   51MOL    H4918149   0.115   5.785   2.534 -0.3831 -0.6703 -0.1023
   51MOL    H5018150   0.179   5.708   2.683  1.5588 -0.7106 -0.7393
   51MOL    H5118151   0.332   5.637   2.499 -0.5381  1.4715  1.2823
   51MOL    H5218152   0.237   5.497   2.546  1.0560 -0.1414 -0.0102
   51MOL    H5318153   0.174   5.679   2.320  0.8594 -0.2194 -0.7598
   51MOL    H5418154   0.069   5.540   2.370  0.2547 -0.9238 -1.4215
   51MOL    H5518155   0.224   5.518   2.293  2.8623 -0.1312  2.5645
   51MOL    C5618156   7.606   5.684   2.720  1.0369 -0.4638 -0.0089
   51MOL    C5718157   7.457   5.657   2.770 -0.1890  0.9265 -0.3172
   51MOL    C5818158   7.420   5.526   2.837  0.8053  0.8988 -1.3121
   51MOL    O5918159   7.319   5.461   2.804 -0.6679 -0.1081  0.4177
   51MOL    O6018160   7.494   5.497   2.946  0.5500 -0.7446 -0.6605
   51MOL    C6118161   7.471   5.384   3.028 -0.3127  0.3421  0.3353
   51MOL    C6218162   7.560   5.268   2.994 -0.0905 -0.0963 -0.4996
   51MOL    C6318163   7.711   5.301   3.018 -0.5960  0.4794  0.1251
   51MOL    H6418164   7.608   5.765   2.647  1.3373 -0.9088 -0.4955
   51MOL    H6518165   7.665   5.721   2.805  1.7640  0.2245 -0.8027
   51MOL    H6618166   7.396   5.663   2.680 -2.6331 -0.0075  1.2163
   51MOL    H6718167   7.494   5.422   3.128 -0.3300 -0.0694  0.4948
   51MOL    H6818168   7.367   5.350   3.036  0.4478 -2.0528  0.4384
   51MOL    H6918169   7.527   5.182   3.052  0.1297  0.5268  0.5612
   51MOL    H7018170   7.546   5.231   2.892  0.6647 -2.8052  0.3371
   51MOL    H7118171   7.748   5.360   2.934 -0.0351  2.0889  1.4885
   51MOL    H7218172   7.768   5.208   3.018 -1.3810 -0.0203 -1.6014
   51MOL    H7318173   7.730   5.367   3.102 -1.2523  0.8289  0.0044
   51MOL    C7418174   7.399   5.774   2.849  0.4586  0.4370 -0.4598
   51MOL    C7518175   7.426   5.913   2.795 -0.1615 -0.4383  0.1554
   51MOL    C7618176   7.356   5.933   2.661  0.3508 -0.7230  0.8450
   51MOL    O7718177   7.420   5.947   2.559  0.1081 -0.0379 -0.0028
   51MOL    O7818178   7.219   5.943   2.675  0.0321 -0.3859 -0.1888
   51MOL    C7918179   7.130   5.988   2.571  0.4961 -0.8655 -0.3354
   51MOL    C8018180   7.076   5.862   2.506 -0.1091  0.0637  0.0408
   51MOL    C8118181   7.005   5.882   2.373 -0.4448  0.6005 -0.4526
   51MOL    H8218182   7.437   5.780   2.951  1.3142  3.7038 -0.9142
   51MOL    H8318183   7.290   5.765   2.853  0.2777  2.1069 -1.0293
   51MOL    H8418184   7.532   5.932   2.777 -0.3749  0.5656 -0.0526
   51MOL    H8518185   7.051   6.044   2.620  2.2291  1.4475 -0.1249
   51MOL    H8618186   7.183   6.048   2.498  0.0988  0.5650  0.5306
   51MOL    H8718187   7.158   5.790   2.498 -0.6012 -0.8005  2.5035
   51MOL    H8818188   7.020   5.816   2.586  1.4442  0.7337  1.5535
   51MOL    H8918189   6.976   5.782   2.339 -1.6232  1.0569 -0.8184
   51MOL    H9018190   7.080   5.926   2.307  0.2044  0.1222 -0.0402
   51MOL    H9118191   6.919   5.947   2.392  1.2793  2.9464 -0.5028
   51MOL    C9218192   7.372   6.016   2.894 -0.5665 -0.9554 -0.0317
   51MOL    C9318193   7.474   6.039   3.006 -0.3523 -0.2560 -0.6745
   51MOL    C9418194   7.555   6.164   2.993 -0.1213  0.2928  0.2662
   51MOL    O9518195   7.533   6.258   2.916 -0.5846 -0.0041 -0.0733
   51MOL    O9618196   7.665   6.161   3.069 -0.4822 -0.4512 -0.4626
   51MOL    C9718197   7.759   6.257   3.054 -0.2664  0.2491  0.6326
   51MOL    C9818198   0.010   6.225   3.136  0.4505  0.0819 -0.3817
   51MOL    C9918199   0.077   6.100   3.076  0.7356 -0.1448 -0.6234
   51MOL   H10018200   7.269   5.990   2.919 -1.0014 -1.3675 -2.1155
   51MOL   H10118201   7.359   6.115   2.852 -2.6183 -0.7189  1.1100
   51MOL   H10218202   7.547   5.958   2.999 -0.7614 -0.6620 -0.2592
   51MOL   H10318203   7.796   6.276   2.953 -0.4536  0.6660  0.6412
   51MOL   H10418204   7.720   6.355   3.085 -1.1709 -0.0915  0.5817
   51MOL   H10518205   0.072   6.313   3.122  1.2053 -0.2349  0.9058
   51MOL   H10618206   7.879   6.210   3.244  1.6058 -0.3274 -0.3124
   51MOL   H10718207   0.095   6.101   2.969 -0.1681  0.7804 -0.7712
   51MOL   H10818208   0.013   6.014   3.097 -2.5433  1.3782 -3.9743
   51MOL   H10918209   0.164   6.069   3.135  1.6092  0.4774 -1.5598
   51MOL   C11018210   7.409   6.038   3.150  0.9485 -0.5650  0.0003
   51MOL   C11118211   7.361   5.904   3.203  0.0025  0.7364  0.6097
   51MOL   C11218212   7.477   5.817   3.262  0.4025  0.1600 -0.4626
   51MOL   O11318213   7.474   5.786   3.381  0.1639  0.0208  0.5862
   51MOL   O11418214   7.578   5.799   3.178  0.1291 -0.1165 -0.1388
   51MOL   C11518215   7.687   5.708   3.197  0.3191  0.0176 -0.0261
   51MOL   C11618216   7.820   5.743   3.130 -0.2803 -0.4039  0.0392
   51MOL   C11718217   0.048   5.635   3.137 -0.4711 -0.2660 -0.1477
   51MOL   H11818218   7.324   6.106   3.148 -0.2594 -2.0072  0.9475
   51MOL   H11918219   7.478   6.086   3.219 -0.0828  0.2440  0.4822
   51MOL   H12018220   7.319   5.855   3.114 -0.0406  1.8884 -0.0067
   51MOL   H12118221   7.712   5.690   3.302 -1.4639  0.4092  0.4745
   51MOL   H12218222   7.653   5.618   3.146 -0.7143 -1.3993  3.0347
   51MOL   H12318223   7.802   5.781   3.030 -1.7414 -1.3500 -0.0705
   51MOL   H12418224   7.861   5.829   3.183  0.0447 -1.1707  1.0672
   51MOL   H12518225   0.024   5.556   3.066 -0.2949 -0.6943  0.2680
   51MOL   H12618226   0.053   5.578   3.230  1.0329 -0.4603 -0.3421
   51MOL   H12718227   0.143   5.683   3.113  0.3401 -0.7457  1.9897
   51MOL   C12818228   7.249   5.923   3.307  0.1533 -0.5456  0.1943
   51MOL   C12918229   7.120   5.849   3.261  0.0326  0.0349  0.2897
   51MOL   C13018230   7.144   5.703   3.203 -0.0537  0.4930 -0.0991
   51MOL   O13118231   7.129   5.681   3.083  0.3591  0.3944 -0.7506
   51MOL   O13218232   7.186   5.617   3.291 -0.5240 -0.5847  0.3718
   51MOL   C13318233   7.228   5.483   3.254 -0.0588  0.2378 -0.1132
   51MOL   C13418234   7.350   5.435   3.334 -0.1525  0.0731 -0.2383
   51MOL   C13518235   7.305   5.423   3.477 -0.1616 -0.6362  0.3150
   51MOL   H13618236   7.230   6.029   3.324  0.6616 -0.3316 -0.5402
   51MOL   H13718237   7.275   5.889   3.407  0.0350  1.0333  0.7624
   51MOL   H13818238   7.105   5.905   3.169  1.8162  1.1370  0.6531
   51MOL   H13918239   7.145   5.420   3.283 -0.0073  0.3581  0.2997
   51MOL   H14018240   7.240   5.486   3.145 -0.7772  3.2901 -0.1722
   51MOL   H14118241   7.399   5.342   3.303 -1.4379 -0.1850 -1.5926
   51MOL   H14218242   7.425   5.512   3.317 -0.5837  0.9392  1.7275
   51MOL   H14318243   7.387   5.385   3.538  1.1970  0.6966 -0.6533
   51MOL   H14418244   7.212   5.367   3.492 -0.4625 -0.3174 -0.3419
   51MOL   H14518245   7.284   5.517   3.528 -1.0691 -0.1136 -1.0045
   51MOL   C14618246   6.997   5.860   3.357 -0.4894  0.0915 -0.0398
   51MOL   C14718247   6.909   5.986   3.347  0.3575 -0.4259 -0.3915
   51MOL   C14818248   6.795   5.972   3.245  0.6525 -0.2621 -0.3651
   51MOL   O14918249   6.675   5.965   3.280  0.2157 -0.2927 -0.4760
   51MOL   O15018250   6.842   5.963   3.120 -0.0010 -0.0196 -0.0718
   51MOL   C15118251   6.755   5.957   3.011  0.0337 -0.4057 -0.0206
   51MOL   C15218252   6.822   5.880   2.892  0.3895 -0.2322  0.5472
   51MOL   C15318253   6.740   5.886   2.761 -0.2367 -0.3911 -1.2800
   51MOL   H15418254   7.032   5.842   3.459 -0.8138  1.5694  0.3403
   51MOL   H15518255   6.926   5.778   3.339 -2.1015  1.6845 -1.1125
   51MOL   H15618256   6.976   6.063   3.311 -0.7634  0.8979  0.3023
   51MOL   H15718257   6.655   5.925   3.038 -0.7428  0.4816 -1.8034
   51MOL   H15818258   6.741   6.060   2.980 -1.1719 -0.3239  0.7784
   51MOL   H15918259   6.911   5.936   2.863 -0.0333  0.2044  0.0710
   51MOL   H16018260   6.834   5.775   2.918 -3.0248 -1.2507 -1.6590
   51MOL   H16118261   6.706   5.986   2.733  0.2414 -0.0376 -0.6269
   51MOL   H16218262   6.657   5.819   2.784 -1.1524  1.0808 -0.1910
   51MOL   H16318263   6.793   5.847   2.674 -0.1083 -0.4642 -1.1706
   51MOL   C16418264   6.867   6.033   3.492  0.0746 -0.0320 -0.1536
   51MOL   C16518265   6.822   6.186   3.485 -0.1110  0.6895  0.4920
   51MOL   C16618266   6.779   6.228   3.626  0.7113  0.5563  0.1461
   51MOL   O16718267   6.841   6.301   3.701  0.3119  0.5074  0.1796
   51MOL   O16818268   6.669   6.160   3.664  0.2430 -0.1356 -0.1925
   51MOL   C16918269   6.607   6.170   3.794  0.5910  0.1827 -0.1339
   51MOL   C17018270   6.662   6.060   3.885  0.7234 -0.8325  0.5376
   51MOL   C17118271   6.628   6.074   4.031 -0.0732 -0.2013  0.2793
   51MOL   H17218272   6.949   6.022   3.564 -0.2600 -2.0139 -0.0703
   51MOL   H17318273   6.782   5.971   3.519 -0.4328  0.9636  0.6034
   51MOL   H17418274   6.733   6.192   3.423  0.8512  0.0880 -0.9689
   51MOL   H17518275   6.629   6.267   3.838 -3.9127  0.6170  1.4098
   51MOL   H17618276   6.498   6.165   3.793  0.5481 -1.1528  3.9687
   51MOL   H17718277   6.633   5.960   3.850  2.4092 -1.4308  0.7987
   51MOL   H17818278   6.770   6.050   3.870  0.8394 -0.8390  1.3952
   51MOL   H17918279   6.523   6.102   4.048  0.0115  1.1528 -1.3774
   51MOL   H18018280   6.696   6.140   4.084  0.3485 -0.0932 -0.3976
   51MOL   H18118281   6.634   5.976   4.078  0.3730 -1.0456 -1.5162
   51MOL   C18218282   6.931   6.281   3.421  0.2684  0.2308 -0.4190
   51MOL   C18318283   6.888   6.340   3.280 -0.1648 -0.2257  0.4202
   51MOL   C18418284   6.748   6.407   3.276 -0.1031 -0.0454  0.4108
   51MOL   O18518285   6.658   6.393   3.187  0.4956  0.0390  0.6098
   51MOL   O18618286   6.742   6.495   3.383  0.2788  0.3671  0.0389
   51MOL   C18718287   6.626   6.570   3.395  0.0287  0.1885 -0.3322
   51MOL   C18818288   6.652   6.691   3.486 -0.8713 -0.0659 -0.6779
   51MOL   C18918289   6.637   6.668   3.641 -0.1788 -0.3027  0.3827
   51MOL   H19018290   7.021   6.220   3.418  0.3064  0.1009  1.9036
   51MOL   H19118291   6.948   6.358   3.496 -0.7377  0.7023 -0.6723
   51MOL   H19218292   6.880   6.257   3.209  0.1893  1.4411 -1.5936
   51MOL   H19318293   6.595   6.600   3.295  0.4734 -2.2045 -1.2111
   51MOL   H19418294   6.555   6.498   3.434  0.3306 -0.8720 -1.7169
   51MOL   H19518295   6.741   6.751   3.470 -0.3952  0.0809  2.2394
   51MOL   H19618296   6.575   6.762   3.453 -0.3185  0.0270 -1.7841
   51MOL   H19718297   6.550   6.603   3.648  0.7573 -1.7974 -1.1791
   51MOL   H19818298   6.626   6.766   3.686  1.6990 -0.9376  2.3274
   51MOL   H19918299   6.726   6.611   3.670  0.5828 -0.1937 -1.5878
   51MOL   C20018300   6.992   6.422   3.213 -0.7935  0.6909 -0.4838
   51MOL   C20118301   7.106   6.331   3.168  0.5902 -0.3674 -0.1505
   51MOL   C20218302   7.062   6.257   3.041 -0.1219  0.3686 -0.4393
   51MOL   O20318303   7.047   6.135   3.042 -0.4613 -0.0672  0.3470
   51MOL   O20418304   7.034   6.332   2.941 -0.3296  0.0269  0.4117
   51MOL   C20518305   6.990   6.278   2.819 -0.8109 -0.5744  0.4449
   51MOL   C20618306   7.039   6.361   2.697 -0.3126 -0.1724  0.1890
   51MOL   C20718307   7.187   6.363   2.683 -0.1398  0.5112 -0.1302
   51MOL   H20818308   7.025   6.496   3.286 -1.4170  0.3376  0.1649
   51MOL   H20918309   6.945   6.484   3.136 -2.1192  0.2231 -0.0623
   51MOL   H21018310   7.142   6.260   3.243  1.3578 -2.5766 -2.5255
   51MOL   H21118311   7.028   6.177   2.805  1.7273  0.2050  1.3293
   51MOL   H21218312   6.882   6.268   2.822 -1.0096  1.4813  0.6136
   51MOL   H21318313   6.994   6.329   2.603  0.5714 -0.3464 -0.1801
   51MOL   H21418314   6.991   6.456   2.722  0.4697 -0.4720  2.9971
   51MOL   H21518315   7.217   6.258   2.679  0.2956  0.4039  3.7686
   51MOL   H21618316   7.239   6.402   2.771  0.9402 -0.0344 -0.5190
   51MOL   H21718317   7.213   6.418   2.593  1.7677  1.3433  0.8976
   51MOL   C21818318   7.243   6.408   3.138  0.7502 -0.0547  0.1034
   51MOL   C21918319   7.304   6.475   3.264  0.1005  0.2927 -0.2586
   51MOL   C22018320   7.311   6.387   3.393 -0.0797  0.0875  0.3980
   51MOL   O22118321   7.234   6.400   3.489 -0.4483 -0.1097  0.3712
   51MOL   O22218322   7.415   6.300   3.387  0.2280 -0.6369 -0.1235
   51MOL   C22318323   7.430   6.212   3.496  0.1479  0.0945 -0.2050
   51MOL   C22418324   7.568   6.205   3.554  0.0026 -0.0294 -0.1161
   51MOL   C22518325   7.658   6.120   3.471  0.2210  0.2042  0.9697
   51MOL   H22618326   7.216   6.496   3.081  1.1856 -0.9044 -1.4440
   51MOL   H22718327   7.307   6.340   3.083  0.0937 -0.4503 -0.1834
   51MOL   H22818328   7.243   6.558   3.301  1.1498  1.0907 -0.2978
   51MOL   H22918329   7.366   6.233   3.581  0.0828 -2.7384  0.5029
   51MOL   H23018330   7.407   6.108   3.469  0.1095  0.1301 -0.3082
   51MOL   H23118331   7.604   6.308   3.558 -2.2878  0.8307 -0.6257
   51MOL   H23218332   7.575   6.172   3.658  2.8387 -0.4888 -0.4109
   51MOL   H23318333   7.761   6.131   3.505  0.5943 -0.8890  0.2076
   51MOL   H23418334   7.657   6.162   3.370  0.4883  0.0718  0.9135
   51MOL   H23518335   7.631   6.015   3.474 -1.0583  0.5524  2.0976
   51MOL   C23618336   7.437   6.547   3.245 -0.0121  0.1507 -0.0025
   51MOL   C23718337   7.438   6.647   3.130 -0.8285  0.4777  0.3971
   51MOL   C23818338   7.358   6.772   3.165 -0.3041  0.8927  0.6972
   51MOL   O23918339   7.353   6.822   3.275 -0.3550  0.3548  0.8828
   51MOL   O24018340   7.293   6.821   3.059 -0.3723  0.1404  0.4522
   51MOL   C24118341   7.200   6.933   3.072  0.0481  0.1437 -0.0554
   51MOL   C24218342   7.051   6.879   3.057  0.2127  0.0797  0.5536
   51MOL   C24318343   6.988   6.824   3.190  0.6806 -0.1961 -0.7615
   51MOL   H24418344   7.521   6.477   3.242  0.5597  0.6545  2.6428
   51MOL   H24518345   7.458   6.605   3.335  0.6517  0.7418 -0.5313
   51MOL   H24618346   7.395   6.601   3.041  1.0149  0.0605 -0.2997
   51MOL   H24718347   7.201   6.976   3.173  1.6189 -0.6466  0.2929
   51MOL   H24818348   7.219   7.013   3.001  1.2181 -1.7960 -1.9868
   51MOL   H24918349   6.992   6.963   3.019  0.4815 -0.6019 -1.4122
   51MOL   H25018350   7.042   6.803   2.979  0.0204 -0.7438  1.3761
   51MOL   H25118351   6.879   6.829   3.179  0.7568  2.8027 -0.4033
   51MOL   H25218352   7.013   6.880   3.279  1.9517  0.8627 -1.7554
   51MOL   H25318353   7.024   6.721   3.199  1.7076  0.0386 -2.0228
   51MOL   C25418354   7.590   6.698   3.097  0.0970  0.4401 -0.3239
   51MOL   C25518355   7.616   6.712   2.940  0.0492 -0.1315  0.2580
   51MOL   C25618356   7.711   6.827   2.909 -0.1859  0.0095 -0.1621
   51MOL   O25718357   7.676   6.934   2.864  0.3731  0.1073  0.0110
   51MOL   O25818358   7.840   6.800   2.940 -0.2367 -0.2319  0.4458
   51MOL   C25918359   0.062   6.897   2.944 -0.0421 -0.3522  0.1176
   51MOL   C26018360   0.170   6.861   2.840 -0.3835  0.4472  0.5219
   51MOL   C26118361   0.235   6.724   2.854  0.5317  0.6945 -0.2929
   51MOL   H26218362   7.669   6.640   3.145  0.1609  0.0779 -0.8653
   51MOL   H26318363   7.603   6.794   3.146  0.6694  0.6738 -0.9269
   51MOL   H26418364   7.525   6.752   2.895 -0.3157 -1.7065 -0.4218
   51MOL   H26518365   0.020   6.995   2.921  1.6252  0.7542  1.6251
   51MOL   H26618366   0.099   6.897   3.047  0.0734 -1.1945  0.0806
   51MOL   H26718367   0.115   6.861   2.745  0.9173 -1.0291 -0.2588
   51MOL   H26818368   0.245   6.940   2.837 -1.0420  1.0410 -3.7463
   51MOL   H26918369   0.161   6.645   2.866  1.7695 -0.4076  0.2250
   51MOL   H27018370   0.298   6.724   2.943 -0.2824  0.5934  0.2832
   51MOL   H27118371   0.303   6.707   2.770 -0.5461 -1.7708 -0.7039
   51MOL   C27218372   7.654   6.573   2.876  0.7304  0.1112  0.4385
   51MOL   C27318373   7.694   6.579   2.722  0.0004  0.1047  0.1579
   51MOL   C27418374   7.800   6.473   2.683  0.3355 -0.0551 -0.1923
   51MOL   O27518375   0.037   6.505   2.659 -0.0091  0.3422 -0.3708
   51MOL   O27618376   7.754   6.348   2.683 -0.2032  0.2187  0.6227
   51MOL   C27718377   7.843   6.246   2.649  0.2199  0.2681 -0.0519
   51MOL   C27818378   7.756   6.127   2.609 -0.0362 -0.6237  0.4014
   51MOL   C27918379   7.837   5.999   2.591  0.0937  0.4689  0.3967
   51MOL   H28018380   7.565   6.512   2.892  0.0849  0.9707  0.1434
   51MOL   H28118381   7.723   6.519   2.942 -1.4380 -2.3342  0.7961
   51MOL   H28218382   7.746   6.674   2.707 -0.4070 -0.0724 -2.6519
   51MOL   H28318383   0.011   6.273   2.555 -0.7568 -0.0022 -0.6408
   51MOL   H28418384   0.032   6.228   2.731 -0.2018 -1.9220 -0.1484
   51MOL   H28518385   7.687   6.109   2.691 -0.6069 -1.6734 -0.2995
   51MOL   H28618386   7.693   6.144   2.522  0.6032  0.1321  0.0756
   51MOL   H28718387   0.013   5.970   2.680  1.8141  0.2050 -0.7389
   51MOL   H28818388   0.035   6.005   2.515 -0.9275  0.9351 -0.6390
   51MOL   H28918389   7.770   5.921   2.555 -0.9340  1.6396 -0.2793
   51MOL   C29018390   7.564   6.578   2.638  0.0525 -0.5247 -0.6729
   51MOL   C29118391   7.588   6.612   2.494 -0.0563  0.5501  0.4802
   51MOL   C29218392   7.466   6.572   2.411  0.5316  0.1687  0.1595
   51MOL   O29318393   7.361   6.635   2.402  0.1061  0.3481 -0.2543
   51MOL   O29418394   7.489   6.455   2.343  0.5663  0.0486 -0.5372
   51MOL   C29518395   7.392   6.412   2.252  0.5381 -0.1440 -0.1595
   51MOL   C29618396   7.427   6.269   2.212 -0.6828  0.1988  0.2730
   51MOL   C29718397   7.336   6.168   2.288 -0.0555  0.2543 -0.1679
   51MOL   H29818398   7.495   6.654   2.674  1.6098  0.0286  1.2244
   51MOL   H29918399   7.520   6.480   2.658  0.9671 -0.9746 -0.8376
   51MOL   H30018400   7.670   6.555   2.451  0.8811  1.3724  1.1547
   51MOL   H30118401   7.302   6.402   2.314 -1.7138  2.3772 -2.8373
   51MOL   H30218402   7.374   6.486   2.173 -0.6002 -0.8369 -0.5576
   51MOL   H30318403   7.404   6.259   2.105 -1.0554 -2.9304  0.6183
   51MOL   H30418404   7.533   6.248   2.222 -0.7311  0.8364  2.2821
   51MOL   H30518405   7.356   6.068   2.249  1.3136 -0.7620  2.9773
   51MOL   H30618406   7.235   6.199   2.264  0.7364  1.6612 -1.7923
   51MOL   H30718407   7.331   6.171   2.397  1.3748 -2.4837 -0.0033
   51MOL   C30818408   7.619   6.763   2.481  0.5686 -0.7490 -0.4261
   51MOL   C30918409   7.751   6.792   2.406  0.4937  0.2956 -0.2836
   51MOL   C31018410   7.725   6.816   2.253  0.3755 -0.1420  0.7986
   51MOL   O31118411   7.717   6.927   2.203  0.3031 -1.0427  0.2032
   51MOL   O31218412   7.724   6.699   2.188  0.6212 -0.5764 -0.2113
   51MOL   C31318413   7.723   6.698   2.040 -0.1966  0.3918  0.3236
   51MOL   C31418414   7.639   6.572   2.001  0.3711  0.1008  0.5981
   51MOL   C31518415   7.627   6.551   1.854  0.1813 -0.4109 -0.1977
   51MOL   H31618416   7.627   6.802   2.582  0.9671 -0.3508 -0.6106
   51MOL   H31718417   7.540   6.823   2.435  0.2362  0.9573  2.2741
   51MOL   H31818418   7.808   6.700   2.421 -1.1179 -0.9714 -1.7901
   51MOL   H31918419   7.675   6.782   1.991 -1.5547 -0.3332  0.3788
   51MOL   H32018420   7.823   6.682   2.000 -0.2122  0.0521  0.4167
   51MOL   H32118421   7.681   6.491   2.060  3.2771  1.3613  0.3288
   51MOL   H32218422   7.541   6.575   2.048 -0.4538  1.7634 -1.1313
   51MOL   H32318423   7.714   6.500   1.811  2.0913  0.5763  2.3731
   51MOL   H32418424   7.533   6.499   1.834 -1.2311  0.3718  3.9410
   51MOL   H32518425   7.612   6.643   1.797 -0.0866 -0.0997  0.3773
   51MOL   C32618426   7.828   6.898   2.490 -0.3787  0.1510  0.6280
   51MOL   C32718427   0.087   6.933   2.426  1.0421 -0.0300 -0.0334
   51MOL   C32818428   0.137   7.069   2.474  0.5745 -0.7920 -0.2249
   51MOL   O32918429   0.090   7.126   2.573 -0.1253 -0.1341 -0.0816
   51MOL   O33018430   0.241   7.112   2.405  0.3214 -0.0476 -0.1807
   51MOL   C33118431   0.318   7.226   2.452  0.4237  0.1262 -0.7574
   51MOL   C33218432   0.456   7.183   2.513 -0.2803  0.0777  0.4355
   51MOL   C33318433   0.549   7.104   2.425 -0.2694 -0.7593  0.1160
   51MOL   H33418434   7.863   6.847   2.580 -0.3452  2.6495  2.0610
   51MOL   H33518435   7.760   6.976   2.524 -0.6703 -0.3163  1.1302
   51MOL   H33618436   0.073   6.940   2.318 -0.1695 -1.2639  0.0237
   51MOL   H33718437   0.330   7.282   2.358  0.0885 -0.3392 -1.0789
   51MOL   H33818438   0.268   7.295   2.520  0.3286 -1.0483  0.3585
   51MOL   H33918439   0.513   7.267   2.554 -1.4645  1.1115 -0.0253
   51MOL   H34018440   0.430   7.111   2.592  0.1919  1.4657  1.8887
   51MOL   H34118441   0.647   7.087   2.469  1.2322  0.8292 -2.4548
   51MOL   H34218442   0.510   7.006   2.396 -0.9874 -1.3786  3.0445
   51MOL   H34318443   0.567   7.162   2.335  0.6855  0.4523  1.0806
   51MOL   C34418444   0.194   6.824   2.446  0.8348  0.4023 -0.4878
   51MOL   C34518445   0.283   6.792   2.323  0.5290 -0.8327 -0.2926
   51MOL   C34618446   0.207   6.711   2.221 -0.4197  0.1902 -0.6903
   51MOL   O34718447   0.203   6.748   2.100  0.1059  0.2720 -0.6502
   51MOL   O34818448   0.155   6.597   2.273 -0.0693 -0.1499  0.0245
   51MOL   C34918449   0.110   6.498   2.187 -0.0807  0.3392 -0.1818
   51MOL   C35018450   0.020   6.399   2.266  0.5567  0.0164 -0.6777
   51MOL   C35118451   7.837   6.276   2.195  0.2865 -0.4101  0.3702
   51MOL   H35218452   0.146   6.733   2.480  0.4022  0.6248 -0.5043
   51MOL   H35318453   0.269   6.850   2.522  0.5417 -1.2695  0.3876
   51MOL   H35418454   0.370   6.739   2.363 -1.2673 -2.0608  2.1414
   51MOL   H35518455   0.068   6.529   2.091  0.9531 -0.0134 -0.7523
   51MOL   H35618456   0.201   6.460   2.141  0.1590 -0.5797  1.0341
   51MOL   H35718457   0.086   6.364   2.345 -0.4300 -0.6671 -0.1355
   51MOL   H35818458   7.820   6.456   2.314  1.3211  3.4606 -3.2668
   51MOL   H35918459   7.758   6.239   2.259 -1.8548  0.4220 -1.7164
   51MOL   H36018460   7.794   6.312   2.101  1.7340  1.6496  0.4685
   51MOL   H36118461   0.021   6.192   2.169  1.1660 -0.2130  1.8465
   51MOL   H36218462   0.306   6.886   2.274  1.8974 -1.5661 -1.0813
   52MOL     C118463   0.304   3.994   4.924  0.8085 -0.4193  0.2231
   52MOL     C218464   0.260   3.978   4.783 -0.1876 -0.2229  0.0805
   52MOL     C318465   0.118   4.027   4.759  0.2261  0.6730  0.1302
   52MOL     O418466   0.075   4.130   4.806  0.0991  0.1232  0.0356
   52MOL     O518467   0.046   3.935   4.690  0.7074  0.1361 -0.2592
   52MOL     C618468   7.780   3.945   4.684  0.3386 -0.4200  0.1221
   52MOL     C718469   7.708   3.832   4.616  0.7196  0.1014  0.3623
   52MOL     C818470   7.557   3.825   4.621 -0.3801  0.5495  0.4433
   52MOL     H918471   0.409   3.966   4.939  1.0257  0.8386  1.2134
   52MOL    H1018472   0.293   4.096   4.963 -2.1067 -0.0963 -1.3617
   52MOL    H1118473   0.249   3.872   4.759  1.2400 -0.1389 -1.0645
   52MOL    H1218474   7.731   3.972   4.778 -1.6871  1.3943 -1.4087
   52MOL    H1318475   7.755   4.034   4.626 -0.9472 -1.0411 -0.2990
   52MOL    H1418476   7.736   3.844   4.512  1.3996  0.3972  0.5708
   52MOL    H1518477   7.739   3.733   4.650  0.3492 -0.5284 -1.1408
   52MOL    H1618478   7.534   3.732   4.569  1.9127  0.3074 -0.1970
   52MOL    H1718479   7.518   3.805   4.722  2.0590  4.8346  2.3696
   52MOL    H1818480   7.508   3.908   4.571 -2.3255 -0.6902  0.2293
   52MOL    H1918481   0.244   3.932   4.990 -0.3539 -0.6861 -1.0770
   52MOL    C2018482   0.362   4.035   4.681 -0.2913 -0.0751  0.2014
   52MOL    C2118483   0.416   3.930   4.575 -0.0156  0.1132 -0.0438
   52MOL    C2218484   0.438   3.989   4.437 -0.9739  0.0595 -0.0036
   52MOL    O2318485   0.445   3.913   4.335 -0.1324 -0.2691  0.2458
   52MOL    O2418486   0.451   4.120   4.426 -0.5441  0.2355  0.5699
   52MOL    C2518487   0.468   4.188   4.295 -0.1790 -0.7943 -0.7955
   52MOL    C2618488   0.366   4.301   4.306 -0.3133 -0.3613 -0.1519
   52MOL    C2718489   0.409   4.408   4.411  0.0548 -0.0235 -0.1858
   52MOL    H2818490   0.446   4.088   4.726  0.1028  2.1544 -2.9224
   52MOL    H2918491   0.305   4.114   4.632  0.2222  0.7753  0.9624
   52MOL    H3018492   0.342   3.851   4.558 -0.6699  0.6520  0.2576
   52MOL    H3118493   0.569   4.223   4.276 -1.3008  3.0281  0.0303
   52MOL    H3218494   0.443   4.118   4.215 -0.4403  0.2113 -1.5996
   52MOL    H3318495   0.348   4.343   4.207 -0.3324 -1.0845 -0.4631
   52MOL    H3418496   0.277   4.246   4.337 -0.8607  1.0308  0.7533
   52MOL    H3518497   0.321   4.465   4.441  1.5159  1.3233  1.6163
   52MOL    H3618498   0.491   4.478   4.396 -0.9143  0.6976 -2.3613
   52MOL    H3718499   0.435   4.357   4.504  0.3331  1.0760  0.3513
   52MOL    C3818500   0.537   3.849   4.633 -0.3740 -0.5105 -0.3721
   52MOL    C3918501   0.598   3.730   4.556  0.6950 -0.2917 -0.1049
   52MOL    C4018502   0.755   3.729   4.575 -0.2283  0.5407 -0.0970
   52MOL    O4118503   0.815   3.771   4.672  0.7606  0.0786 -0.8116
   52MOL    O4218504   0.816   3.648   4.482  0.5449 -0.2275  0.6267
   52MOL    C4318505   0.942   3.594   4.505  0.7317  0.1643  0.1820
   52MOL    C4418506   0.938   3.449   4.557  0.3531 -0.4689 -0.6550
   52MOL    C4518507   1.056   3.399   4.634  0.4572  0.2645 -0.6954
   52MOL    H4618508   0.510   3.816   4.733  1.6407 -0.7048  0.1282
   52MOL    H4718509   0.607   3.931   4.649 -0.1246 -0.9122  0.6032
   52MOL    H4818510   0.604   3.754   4.450  0.4230  2.4247  0.4517
   52MOL    H4918511   0.986   3.598   4.405  1.3291 -0.9645  0.3816
   52MOL    H5018512   1.005   3.655   4.570  1.3494  1.3132 -1.4465
   52MOL    H5118513   0.847   3.435   4.614  0.9768  0.9405  0.6977
   52MOL    H5218514   0.923   3.388   4.468  2.0887 -0.3187 -1.0804
   52MOL    H5318515   1.066   3.479   4.707  0.0594  1.5277 -2.0001
   52MOL    H5418516   1.146   3.391   4.573  0.9678  2.5506 -0.2987
   52MOL    H5518517   1.042   3.299   4.676  2.3095 -0.0377 -0.7228
   52MOL    C5618518   0.539   3.585   4.581  0.0296 -0.1441  0.5716
   52MOL    C5718519   0.529   3.497   4.453 -0.3732  0.2328  0.7457
   52MOL    C5818520   0.536   3.346   4.473 -0.3414  0.1255 -0.3267
   52MOL    O5918521   0.637   3.279   4.445  0.4655 -0.2465  0.0139
   52MOL    O6018522   0.419   3.300   4.535 -0.0474  0.0239  0.7191
   52MOL    C6118523   0.419   3.173   4.608  0.1777 -0.3107  0.0063
   52MOL    C6218524   0.421   3.192   4.759 -0.4217 -0.3377  0.0175
   52MOL    C6318525   0.307   3.279   4.804 -0.3856  0.4695 -0.6235
   52MOL    H6418526   0.437   3.600   4.617  0.7530  1.8907  1.8881
   52MOL    H6518527   0.589   3.532   4.662 -0.4289  1.6162  2.0535
   52MOL    H6618528   0.622   3.520   4.401 -0.3034 -1.0854  0.2802
   52MOL    H6718529   0.331   3.122   4.569  0.7694  0.6164 -2.6547
   52MOL    H6818530   0.510   3.115   4.595  0.3732  0.0178 -0.1179
   52MOL    H6918531   0.405   3.099   4.814  1.9803 -0.5218  0.4665
   52MOL    H7018532   0.516   3.234   4.793 -0.0021  0.0438 -1.5546
   52MOL    H7118533   0.292   3.292   4.911 -1.5351 -0.7113 -0.6272
   52MOL    H7218534   0.219   3.227   4.766  0.4260 -0.2434 -1.5708
   52MOL    H7318535   0.303   3.380   4.765 -0.6075  0.4851 -0.5603
   52MOL    C7418536   0.411   3.539   4.350 -0.6005  0.7569 -0.0693
   52MOL    C7518537   0.435   3.498   4.200 -0.4546  0.2708 -0.1686
   52MOL    C7618538   0.310   3.513   4.121  0.6483 -0.3502  0.9719
   52MOL    O7718539   0.229   3.422   4.117  0.6381 -0.0710 -0.4893
   52MOL    O7818540   0.282   3.645   4.086 -0.7194 -0.4218  0.2546
   52MOL    C7918541   0.148   3.690   4.050  0.4285 -0.4902  0.0576
   52MOL    C8018542   0.097   3.786   4.161  0.2075  0.1753  0.4327
   52MOL    C8118543   0.061   3.711   4.286 -0.4280  0.3090 -0.2057
   52MOL    H8218544   0.404   3.648   4.350  2.0866  0.9822  0.8424
   52MOL    H8318545   0.318   3.503   4.392 -0.1637 -2.1196 -1.4241
   52MOL    H8418546   0.463   3.394   4.184  0.2541  0.4913 -0.3590
   52MOL    H8518547   0.154   3.735   3.951  0.4089  0.8928  0.6872
   52MOL    H8618548   0.086   3.600   4.046 -0.3385  0.0867 -1.1976
   52MOL    H8718549   0.167   3.869   4.171  3.9697 -2.8865  0.5376
   52MOL    H8818550   0.009   3.841   4.127  0.0272 -1.1649 -1.3064
   52MOL    H8918551   0.034   3.782   4.364 -2.1704 -1.5869  0.9329
   52MOL    H9018552   0.143   3.655   4.331  0.2748  1.6086  0.1799
   52MOL    H9118553   7.858   3.642   4.283 -0.0944 -0.0829 -0.6427
   52MOL    C9218554   0.563   3.569   4.142 -0.3148  0.6804 -0.6430
   52MOL    C9318555   0.697   3.486   4.118  0.2430 -1.3741  0.3621
   52MOL    C9418556   0.681   3.387   4.005 -1.0114  0.2244  0.0784
   52MOL    O9518557   0.695   3.270   4.018 -0.2485 -0.2409  0.4704
   52MOL    O9618558   0.623   3.449   3.892 -0.5049 -0.3740 -0.1148
   52MOL    C9718559   0.581   3.371   3.775  0.6965 -0.7069 -0.2926
   52MOL    C9818560   0.434   3.321   3.781  0.3072  0.7895 -0.9087
   52MOL    C9918561   0.339   3.430   3.735 -0.4951  0.2583  0.0787
   52MOL   H10018562   0.590   3.642   4.218 -0.1231 -1.5749  1.5152
   52MOL   H10118563   0.535   3.630   4.056 -1.6309 -0.4744 -1.0463
   52MOL   H10218564   0.709   3.438   4.215 -0.0732  0.0299  1.1168
   52MOL   H10318565   0.595   3.436   3.689  0.5136  0.4613  0.5537
   52MOL   H10418566   0.644   3.282   3.772  0.5401 -0.8653  0.8669
   52MOL   H10518567   0.429   3.236   3.713  3.0410  0.0949 -0.2928
   52MOL   H10618568   0.400   3.281   3.876 -1.0662  1.1935 -1.2203
   52MOL   H10718569   0.330   3.498   3.819 -1.5738  0.1755  0.0300
   52MOL   H10818570   0.240   3.388   3.723 -1.0165  1.1100  1.3119
   52MOL   H10918571   0.366   3.471   3.638 -2.1356  3.0211  0.7498
   52MOL   C11018572   0.825   3.574   4.116 -0.0595 -0.1324  0.4498
   52MOL   C11118573   0.957   3.504   4.075 -0.6587  0.6654 -0.0285
   52MOL   C11218574   1.069   3.608   4.081  0.8377  0.0823  0.5372
   52MOL   O11318575   1.147   3.615   3.987 -0.0809  0.3110  0.1655
   52MOL   O11418576   1.056   3.698   4.184  0.1686 -0.0010  0.2548
   52MOL   C11518577   1.115   3.826   4.183  0.1772  0.1500  0.1859
   52MOL   C11618578   1.025   3.934   4.246  0.5619 -0.1498 -0.1926
   52MOL   C11718579   0.882   3.939   4.186 -0.2210 -0.4592  0.2977
   52MOL   H11818580   0.832   3.597   4.222  0.8500 -0.4391  0.4576
   52MOL   H11918581   0.802   3.662   4.056 -3.6099 -1.2884  0.0113
   52MOL   H12018582   0.948   3.471   3.972 -0.2305 -0.9585  0.4390
   52MOL   H12118583   1.211   3.824   4.235  0.2112 -1.0973  0.0787
   52MOL   H12218584   1.120   3.855   4.078  0.2680 -1.0564 -0.1509
   52MOL   H12318585   1.036   3.912   4.352  0.0015  0.8157  0.0628
   52MOL   H12418586   1.074   4.031   4.246 -0.7266  0.4999 -0.2438
   52MOL   H12518587   0.888   3.907   4.082 -2.1831 -0.4648  0.1792
   52MOL   H12618588   0.865   4.046   4.200  3.0065  0.0756  0.6566
   52MOL   H12718589   0.812   3.876   4.240 -0.0641 -2.0438 -1.3031
   52MOL   C12818590   0.988   3.380   4.170 -0.0798 -0.1536 -0.4302
   52MOL   C12918591   1.073   3.268   4.107 -0.6810  0.4207  0.1492
   52MOL   C13018592   1.225   3.299   4.095  0.2649 -0.6450  0.0320
   52MOL   O13118593   1.292   3.287   3.995 -0.0900 -0.1631 -0.3895
   52MOL   O13218594   1.271   3.344   4.210 -0.2911 -0.5011 -0.1147
   52MOL   C13318595   1.416   3.369   4.225  0.3414  0.3497  0.2369
   52MOL   C13418596   1.419   3.450   4.360  0.6138 -0.8214  0.2611
   52MOL   C13518597   1.354   3.595   4.348 -0.0762 -0.0100  0.2808
   52MOL   H13618598   0.899   3.337   4.214  0.2963 -2.0273 -1.4407
   52MOL   H13718599   1.036   3.414   4.262 -1.1764 -1.1293  0.5117
   52MOL   H13818600   1.037   3.263   4.004  2.4144 -0.4621 -0.9639
   52MOL   H13918601   1.465   3.274   4.245  1.0434  0.3718 -1.3369
   52MOL   H14018602   1.462   3.416   4.139  2.1766 -2.3198 -0.3081
   52MOL   H14118603   1.376   3.391   4.441 -2.3010  0.5622 -0.2007
   52MOL   H14218604   1.526   3.465   4.374  0.5314  1.1666 -0.9905
   52MOL   H14318605   1.411   3.633   4.263  1.9005 -2.5571  0.4024
   52MOL   H14418606   1.371   3.661   4.433 -0.6064  0.4762  0.0107
   52MOL   H14518607   1.248   3.584   4.328  0.4975 -0.7608 -2.5001
   52MOL   C14618608   1.053   3.137   4.184  0.0106 -0.0520 -0.5895
   52MOL   C14718609   1.008   3.023   4.097  0.4548 -0.5727 -0.1313
   52MOL   C14818610   1.116   2.965   4.004  0.7745 -0.1337  0.5952
   52MOL   O14918611   1.085   2.910   3.891 -0.3167  0.0636 -0.0684
   52MOL   O15018612   1.240   2.969   4.051 -0.0995 -0.3924 -0.3957
   52MOL   C15118613   1.348   2.947   3.968  0.1730  0.6897  0.2442
   52MOL   C15218614   1.478   2.967   4.051 -0.4338 -0.6390  0.6879
   52MOL   C15318615   1.509   2.870   4.161  0.8965 -0.2537 -0.3425
   52MOL   H15418616   0.980   3.150   4.264  2.2058 -0.7921  1.5940
   52MOL   H15518617   1.140   3.109   4.243 -0.7341 -0.1631  0.4615
   52MOL   H15618618   0.935   3.066   4.029 -0.2776 -0.3079  0.8050
   52MOL   H15718619   1.343   2.854   3.911  0.3432 -0.3133  1.8410
   52MOL   H15818620   1.335   3.036   3.905 -0.5869  0.6581  0.3511
   52MOL   H15918621   1.558   2.979   3.979  0.2782  0.8201  1.6973
   52MOL   H16018622   1.488   3.059   4.110  0.0055 -2.0161  2.8314
   52MOL   H16118623   1.593   2.916   4.214 -0.7842  1.7076  0.6732
   52MOL   H16218624   1.540   2.777   4.114  1.7999  0.2781 -0.8176
   52MOL   H16318625   1.425   2.861   4.230  1.8486 -0.9240  0.7618
   52MOL   C16418626   0.938   2.910   4.183  0.5002  0.1646 -0.2610
   52MOL   C16518627   1.018   2.808   4.259  0.0816  0.4688 -0.1023
   52MOL   C16618628   1.097   2.876   4.369 -0.9011  0.4177  0.3168
   52MOL   O16718629   1.215   2.854   4.375 -0.6854  0.1320 -0.6329
   52MOL   O16818630   1.020   2.959   4.445 -0.0020 -0.3289  0.6889
   52MOL   C16918631   1.076   3.032   4.553  0.1192 -0.3242 -0.1676
   52MOL   C17018632   0.982   3.022   4.672 -0.2805  0.2001  0.4702
   52MOL   C17118633   0.847   3.081   4.643  0.0126 -0.0758 -0.2845
   52MOL   H17218634   0.882   2.860   4.105  2.0939 -0.6325 -0.9229
   52MOL   H17318635   0.856   2.956   4.239  1.2326  1.0367  0.1130
   52MOL   H17418636   1.099   2.763   4.202  1.3591  1.6619  0.7265
   52MOL   H17518637   1.175   2.998   4.582 -0.1089 -0.6665  0.2094
   52MOL   H17618638   1.083   3.136   4.520  0.5718  0.1723  1.4328
   52MOL   H17718639   0.974   2.919   4.706 -0.9905  0.0388 -0.1660
   52MOL   H17818640   1.034   3.086   4.743 -1.9708 -0.6293  2.4996
   52MOL   H17918641   0.797   3.014   4.573 -0.2064 -1.1957  0.9256
   52MOL   H18018642   0.833   3.185   4.615  1.3324 -0.1653 -1.3565
   52MOL   H18118643   0.789   3.066   4.734  2.1097 -0.8376  0.9445
   52MOL   C18218644   0.938   2.685   4.298 -0.0013 -1.1440 -0.5303
   52MOL   C18318645   1.007   2.547   4.304 -0.0910 -0.4322 -0.0488
   52MOL   C18418646   0.915   2.441   4.369  0.4160  0.3846 -0.1830
   52MOL   O18518647   0.958   2.377   4.466 -0.0807 -0.6979  0.1538
   52MOL   O18618648   0.789   2.429   4.317  0.3594  0.2054  0.7637
   52MOL   C18718649   0.687   2.377   4.400  0.3555  0.1735  0.0195
   52MOL   C18818650   0.670   2.235   4.353  0.1763  0.8712 -0.7196
   52MOL   C18918651   0.644   2.221   4.204 -0.6452  0.3756 -0.3450
   52MOL   H19018652   0.852   2.679   4.230 -0.9609 -3.4242  0.8288
   52MOL   H19118653   0.888   2.712   4.391 -0.6428 -1.7531 -0.6872
   52MOL   H19218654   1.095   2.556   4.368 -0.8991  2.2448  0.7922
   52MOL   H19318655   0.713   2.385   4.505 -2.4845 -0.0622  0.7854
   52MOL   H19418656   0.599   2.440   4.383  0.7251  0.2290 -1.8042
   52MOL   H19518657   0.756   2.184   4.396 -2.4637 -0.9432  2.6551
   52MOL   H19618658   0.585   2.189   4.404  0.4645 -0.6062 -1.5403
   52MOL   H19718659   0.575   2.298   4.169  0.7807  3.8891  4.0929
   52MOL   H19818660   0.599   2.126   4.177 -0.8515  0.2258  0.5316
   52MOL   H19918661   0.735   2.224   4.142  0.5428  1.3420  1.3987
   52MOL   C20018662   1.048   2.503   4.165 -0.1392  0.0836  0.4873
   52MOL   C20118663   1.149   2.386   4.156  0.0977 -0.3997  0.1401
   52MOL   C20218664   1.088   2.248   4.172 -0.1953 -0.5655  0.6871
   52MOL   O20318665   0.969   2.219   4.149 -0.1355 -0.4300  0.2973
   52MOL   O20418666   1.180   2.159   4.220  0.2106  0.1129 -0.7001
   52MOL   C20518667   1.134   2.026   4.252 -0.7831  0.4614  0.0666
   52MOL   C20618668   1.074   2.012   4.392  0.3086  0.0640 -0.1580
   52MOL   C20718669   1.008   1.873   4.399 -0.0595 -0.8262  0.3072
   52MOL   H20818670   1.081   2.587   4.104  1.2999 -1.2973 -0.6901
   52MOL   H20918671   0.957   2.467   4.116 -2.5613  3.4560  2.3704
   52MOL   H21018672   1.212   2.407   4.241  1.3901  3.1173 -1.6041
   52MOL   H21118673   1.065   2.000   4.172 -1.8751 -0.9256  1.4341
   52MOL   H21218674   1.218   1.959   4.230 -1.3281 -0.4262  0.7057
   52MOL   H21318675   1.142   2.002   4.477  1.1443 -1.0677 -0.9508
   52MOL   H21418676   0.997   2.085   4.418  0.9418  1.4850 -2.1471
   52MOL   H21518677   0.924   1.871   4.329 -0.6775  2.2282  0.8769
   52MOL   H21618678   0.976   1.860   4.502 -1.2874  2.0397  0.3404
   52MOL   H21718679   1.076   1.792   4.374  0.9914 -0.2890  1.3915
   52MOL   C21818680   1.245   2.392   4.034  0.0764  0.0495 -0.5769
   52MOL   C21918681   1.169   2.393   3.897  0.1841 -0.3691 -0.7407
   52MOL   C22018682   1.155   2.537   3.840 -0.6447 -0.1839  1.2516
   52MOL   O22118683   1.212   2.630   3.893 -0.2325  0.4227  0.4292
   52MOL   O22218684   1.071   2.547   3.733  0.3645  0.9784  0.1508
   52MOL   C22318685   1.089   2.664   3.643  0.5749  0.6785  0.3027
   52MOL   C22418686   1.201   2.634   3.545 -1.2006  0.1532  0.7180
   52MOL   C22518687   1.168   2.515   3.451 -0.2477  0.3096  0.4721
   52MOL   H22618688   1.309   2.305   4.045 -0.7215 -0.5245 -0.4517
   52MOL   H22718689   1.310   2.478   4.051  0.8591 -0.8703  1.2194
   52MOL   H22818690   1.065   2.365   3.915  0.1279  0.4533  0.1996
   52MOL   H22918691   0.999   2.655   3.582  1.4970 -3.0298 -0.6262
   52MOL   H23018692   1.094   2.764   3.685 -1.0217  1.5260 -1.4532
   52MOL   H23118693   1.230   2.722   3.488  0.6342  0.4611  2.0755
   52MOL   H23218694   1.290   2.618   3.606  1.0067  2.4879 -1.7361
   52MOL   H23318695   1.251   2.477   3.391 -0.8206 -0.0352 -0.1092
   52MOL   H23418696   1.078   2.514   3.389  0.5339  3.1543 -0.7806
   52MOL   H23518697   1.151   2.437   3.526  0.1090 -1.1685 -0.9511
   52MOL   C23618698   1.229   2.292   3.803  0.2341 -0.2687  0.9140
   52MOL   C23718699   1.200   2.149   3.846 -1.2234 -0.6172  0.4996
   52MOL   C23818700   1.057   2.105   3.820 -0.4305 -0.1166  0.3140
   52MOL   O23918701   0.982   2.165   3.747  0.0837 -0.9328  0.4349
   52MOL   O24018702   1.030   1.987   3.881  0.0479 -0.2957  0.3493
   52MOL   C24118703   0.900   1.943   3.874 -0.3103  0.1581  0.6301
   52MOL   C24218704   0.823   1.971   4.001  0.6963 -0.1594  0.1985
   52MOL   C24318705   0.693   1.898   4.007  0.5909  0.4100 -0.7744
   52MOL   H24418706   1.337   2.305   3.797  0.2018 -0.5441 -0.4289
   52MOL   H24518707   1.196   2.304   3.700  1.8468  1.0039  0.5159
   52MOL   H24618708   1.222   2.132   3.951 -0.5607 -1.5821  0.2115
   52MOL   H24718709   0.837   1.968   3.788 -1.6127 -2.6520  0.7342
   52MOL   H24818710   0.916   1.836   3.868  0.9766  0.4577 -3.1587
   52MOL   H24918711   0.879   1.934   4.087  1.3094 -0.2686 -0.2509
   52MOL   H25018712   0.801   2.078   4.008  0.0234 -0.3079  0.4422
   52MOL   H25118713   0.619   1.920   3.929  0.2099 -1.1398 -0.8748
   52MOL   H25218714   0.637   1.907   4.100 -0.1035 -0.5428 -1.0929
   52MOL   H25318715   0.712   1.792   3.989 -0.4684  0.1426 -0.3567
   52MOL   C25418716   1.291   2.054   3.765  0.5822 -0.1246 -0.1124
   52MOL   C25518717   1.440   2.042   3.808 -0.0786  0.4518 -0.0369
   52MOL   C25618718   1.462   1.942   3.918 -0.2433 -0.7036  0.1989
   52MOL   O25718719   1.485   1.823   3.905 -0.5380 -0.0727 -0.0705
   52MOL   O25818720   1.463   2.003   4.036  0.0927  0.4238  0.0533
   52MOL   C25918721   1.513   1.933   4.157 -0.8377  0.1210 -0.3526
   52MOL   C26018722   1.603   2.029   4.233  0.5128 -0.4015  0.3804
   52MOL   C26118723   1.528   2.146   4.310 -0.7824 -0.8666  0.8560
   52MOL   H26218724   1.292   2.072   3.657  0.8876  1.9255  0.2159
   52MOL   H26318725   1.257   1.950   3.771 -1.3693  0.5083  0.0813
   52MOL   H26418726   1.489   2.128   3.854 -0.1194  1.4883 -1.8800
   52MOL   H26518727   1.423   1.923   4.218  0.2490  3.2716  1.9051
   52MOL   H26618728   1.567   1.839   4.139 -2.1983 -0.4399 -1.5898
   52MOL   H26718729   1.664   1.964   4.296  1.1351  0.9559  1.2007
   52MOL   H26818730   1.674   2.066   4.159  0.4254 -0.8788  0.0596
   52MOL   H26918731   1.503   2.233   4.249 -0.0841  0.2731  2.1551
   52MOL   H27018732   1.582   2.182   4.397 -0.4115  0.8729 -0.0593
   52MOL   H27118733   1.429   2.118   4.345 -1.0032 -0.7804  0.3085
   52MOL   C27218734   1.528   2.017   3.685  0.1341 -0.2646 -0.2811
   52MOL   C27318735   1.558   2.145   3.598  0.3322 -0.1985 -0.0168
   52MOL   C27418736   1.667   2.233   3.664  0.4442 -0.5513 -0.1132
   52MOL   O27518737   1.773   2.177   3.696  0.0614  0.2970  0.6848
   52MOL   O27618738   1.629   2.359   3.696  0.3463 -0.3739 -0.7718
   52MOL   C27718739   1.710   2.451   3.764  0.0874 -0.5581  0.6961
   52MOL   C27818740   1.622   2.535   3.858 -0.2252  0.2256 -0.8808
   52MOL   C27918741   1.597   2.457   3.991 -0.7623  0.2013  0.1010
   52MOL   H28018742   1.469   1.946   3.627  1.6315 -1.8022  0.0399
   52MOL   H28118743   1.619   1.966   3.717 -0.1870  0.3286  1.7030
   52MOL   H28218744   1.469   2.206   3.585  0.6705  0.2262 -0.4078
   52MOL   H28318745   1.797   2.416   3.820  2.3510 -0.2895 -2.4586
   52MOL   H28418746   1.747   2.520   3.687 -0.2682 -0.2955  0.7584
   52MOL   H28518747   1.680   2.624   3.884  0.4702  0.3892 -2.9123
   52MOL   H28618748   1.530   2.568   3.810 -0.6634 -0.6998 -0.6775
   52MOL   H28718749   1.675   2.399   4.040 -2.9596 -2.0323  1.0556
   52MOL   H28818750   1.537   2.368   3.973 -0.7887  0.4778 -1.3021
   52MOL   H28918751   1.562   2.526   4.068  0.4790  0.9048  0.0439
   52MOL   C29018752   1.600   2.114   3.446  0.1972  0.1587  0.3003
   52MOL   C29118753   1.498   2.062   3.340  0.5259 -0.7161  0.5594
   52MOL   C29218754   1.370   2.147   3.345  0.1325 -0.3842 -0.1767
   52MOL   O29318755   1.370   2.272   3.341 -0.3755 -0.2972 -0.1347
   52MOL   O29418756   1.268   2.071   3.386 -0.2622  0.5309  0.2842
   52MOL   C29518757   1.147   2.127   3.426 -0.4415 -0.0800  0.2885
   52MOL   C29618758   1.049   2.126   3.301  0.1038  0.1430 -0.0804
   52MOL   C29718759   1.057   2.246   3.221 -0.1659 -0.0695  0.4604
   52MOL   H29818760   1.681   2.040   3.446  2.5067  2.6263 -0.2356
   52MOL   H29918761   1.648   2.200   3.400 -2.0922  0.3685 -1.7629
   52MOL   H30018762   1.478   1.959   3.371  0.8117 -1.3529 -1.2927
   52MOL   H30118763   1.102   2.058   3.497  1.5396 -1.3502  0.3402
   52MOL   H30218764   1.170   2.220   3.478  2.0273 -0.7395  0.4141
   52MOL   H30318765   1.059   2.038   3.236  3.4212  1.8574 -2.0527
   52MOL   H30418766   0.950   2.120   3.344  0.7866 -0.9802  1.3848
   52MOL   H30518767   1.011   2.336   3.263  0.8431  0.8634 -0.3978
   52MOL   H30618768   1.005   2.231   3.127 -0.2904  0.4940  0.4396
   52MOL   H30718769   1.161   2.270   3.198 -1.0184  2.3440 -1.0732
   52MOL   C30818770   1.555   2.061   3.193  0.1894  0.3660 -0.3630
   52MOL   C30918771   1.494   1.949   3.103  0.3707  0.0813 -1.0860
   52MOL   C31018772   1.344   1.971   3.061 -0.6243 -0.2817 -0.0722
   52MOL   O31118773   1.256   1.887   3.082  0.6506 -0.0397 -0.4658
   52MOL   O31218774   1.327   2.095   3.007  0.9009  0.1613 -0.1003
   52MOL   C31318775   1.198   2.121   2.964  0.0743  0.3601 -0.2867
   52MOL   C31418776   1.178   2.064   2.817  0.3590 -0.3009  0.3160
   52MOL   C31518777   1.043   2.088   2.749 -0.2117 -0.1437  0.3405
   52MOL   H31618778   1.656   2.020   3.201 -0.2107 -0.5396  0.0632
   52MOL   H31718779   1.568   2.157   3.143  0.3448 -0.2584 -1.5408
   52MOL   H31818780   1.497   1.853   3.154 -3.0727  1.8740  2.8404
   52MOL   H31918781   1.116   2.092   3.031  0.4259  0.5716  0.2436
   52MOL   H32018782   1.198   2.230   2.967 -2.6868  0.4359 -1.2954
   52MOL   H32118783   1.250   2.110   2.749  1.2421 -0.4838  1.1251
   52MOL   H32218784   1.198   1.957   2.820  0.2262 -0.3541 -0.4234
   52MOL   H32318785   1.034   2.061   2.644  1.8229 -0.9339  0.3542
   52MOL   H32418786   0.957   2.042   2.798 -1.2187 -2.0147 -2.9957
   52MOL   H32518787   1.042   2.197   2.746 -1.9230 -0.1483  0.0135
   52MOL   C32618788   1.583   1.937   2.977  0.4994 -0.1113  0.5966
   52MOL   C32718789   1.722   1.871   2.999 -0.3213  0.0057 -0.3878
   52MOL   C32818790   1.716   1.730   3.063  0.1108 -0.8012 -1.0257
   52MOL   O32918791   1.739   1.625   3.000  0.2308 -0.0224 -0.0957
   52MOL   O33018792   1.662   1.729   3.189  0.4478 -0.6839 -0.1696
   52MOL   C33118793   1.667   1.614   3.262 -0.1299 -0.6942 -0.1160
   52MOL   C33218794   1.712   1.650   3.411  0.5750  0.3928 -0.2835
   52MOL   C33318795   1.858   1.677   3.401 -0.2741 -0.3165  0.4482
   52MOL   H33418796   1.585   2.037   2.933 -2.0427  0.6565  2.1234
   52MOL   H33518797   1.512   1.883   2.914  0.3665 -1.7048  2.0728
   52MOL   H33618798   1.775   1.929   3.074 -1.3669 -1.4639  1.5573
   52MOL   H33718799   1.566   1.572   3.270  0.7650 -2.4252  3.3405
   52MOL   H33818800   1.735   1.535   3.232 -0.8179 -1.3811  0.0983
   52MOL   H33918801   1.653   1.724   3.465  1.9402  0.3978  1.2544
   52MOL   H34018802   1.701   1.557   3.466 -1.2115  1.4383  1.1675
   52MOL   H34118803   1.900   1.705   3.498 -0.5738  1.4437  0.0859
   52MOL   H34218804   1.905   1.588   3.359  0.3895  1.3766 -2.4916
   52MOL   H34318805   1.867   1.757   3.328  0.5275 -0.8906 -0.0892
   52MOL   C34418806   1.808   1.875   2.868  0.5788 -0.4140 -0.2837
   52MOL   C34518807   1.953   1.823   2.877  0.2743 -0.4449 -0.3372
   52MOL   C34618808   2.034   1.905   2.973  0.6440  0.1531  0.2033
   52MOL   O34718809   2.096   1.846   3.061  0.0129  0.3031  0.1829
   52MOL   O34818810   2.003   2.039   2.967  0.0990 -0.2521 -0.3846
   52MOL   C34918811   2.048   2.142   3.055  0.6800 -0.2692 -1.0018
   52MOL   C35018812   1.929   2.225   3.107 -0.2743 -0.1607  0.1647
   52MOL   C35118813   1.847   2.277   2.988 -0.1718 -0.0956  0.2417
   52MOL   H35218814   1.814   1.975   2.824  2.0940 -0.8443 -1.0865
   52MOL   H35318815   1.750   1.821   2.794  0.0047 -1.5346  0.9622
   52MOL   H35418816   2.007   1.819   2.782  0.6926 -2.8052 -0.0305
   52MOL   H35518817   2.102   2.092   3.136 -1.2508  0.6999  0.9556
   52MOL   H35618818   2.112   2.214   3.005 -1.5303  3.7525  1.6436
   52MOL   H35718819   1.870   2.172   3.181  0.4853  1.2985  1.8555
   52MOL   H35818820   1.963   2.306   3.173 -1.8631  0.1131  0.6657
   52MOL   H35918821   1.807   2.191   2.935 -1.3191  0.2222  0.5698
   52MOL   H36018822   1.763   2.342   3.012  0.3975  0.9281 -0.4639
   52MOL   H36118823   1.910   2.332   2.918  0.1662 -3.2945 -2.0421
   52MOL   H36218824   1.948   1.720   2.911 -0.9930 -0.4643 -0.5487
   53MOL     C118825   4.734   0.617   0.377  0.0032  0.1091 -0.0956
   53MOL     C218826   4.818   0.693   0.475 -0.5544  0.1701 -0.7674
   53MOL     C318827   4.738   0.808   0.546  0.6519  0.1280  0.0106
   53MOL     O418828   4.758   0.920   0.505 -0.2022  0.1592  0.4307
   53MOL     O518829   4.639   0.761   0.624  0.5632 -0.5078  0.2127
   53MOL     C618830   4.554   0.858   0.689  0.0505 -0.5213 -0.2775
   53MOL     C718831   4.419   0.867   0.620 -0.4395 -0.5221 -0.2296
   53MOL     C818832   4.339   0.741   0.644  0.0985  0.9802  0.6297
   53MOL     H918833   4.646   0.575   0.425  0.9465 -0.3475  1.2716
   53MOL    H1018834   4.702   0.682   0.295  0.0718  0.0510 -0.1681
   53MOL    H1118835   4.898   0.735   0.415  1.9376 -3.4117 -0.1457
   53MOL    H1218836   4.553   0.842   0.797 -0.0872  1.5109  0.0551
   53MOL    H1318837   4.598   0.958   0.687 -2.5783  0.7213  0.9748
   53MOL    H1418838   4.367   0.956   0.656  0.6922 -0.3632  1.0677
   53MOL    H1518839   4.433   0.889   0.514 -0.3637 -0.3454 -0.1836
   53MOL    H1618840   4.319   0.729   0.751  1.9416 -1.6300  0.7213
   53MOL    H1718841   4.240   0.747   0.599 -0.1526  0.1852  1.0682
   53MOL    H1818842   4.379   0.655   0.591  0.2648  0.7466  1.1379
   53MOL    H1918843   4.781   0.524   0.346  0.2441  0.4112 -0.6390
   53MOL    C2018844   4.893   0.608   0.578  0.1440 -0.4077 -0.1380
   53MOL    C2118845   4.991   0.691   0.669 -0.2757 -0.2078  0.8131
   53MOL    C2218846   5.012   0.613   0.803 -0.1863  0.4662  0.0152
   53MOL    O2318847   4.966   0.648   0.911  0.3086  0.0691 -0.3635
   53MOL    O2418848   5.093   0.505   0.787  0.2281  0.3693 -0.3095
   53MOL    C2518849   5.119   0.413   0.894  0.0275 -0.1870 -0.0479
   53MOL    C2618850   5.231   0.325   0.848  0.0063 -0.0827  0.1575
   53MOL    C2718851   5.277   0.233   0.965  0.0236  0.5015 -0.1480
   53MOL    H2818852   4.959   0.538   0.526  1.7564  0.7085  0.3507
   53MOL    H2918853   4.819   0.559   0.640 -0.1361  0.1273 -0.0495
   53MOL    H3018854   4.938   0.781   0.699 -2.6053 -1.9170  2.0271
   53MOL    H3118855   5.135   0.470   0.985 -5.2242 -3.0309  2.8540
   53MOL    H3218856   5.036   0.344   0.911  0.6874 -1.4695 -1.8499
   53MOL    H3318857   5.186   0.263   0.770 -0.4457 -1.0371  1.1556
   53MOL    H3418858   5.322   0.375   0.816 -0.1300  0.6308  0.8609
   53MOL    H3518859   5.328   0.292   1.041  1.6438 -2.3702  1.0483
   53MOL    H3618860   5.350   0.161   0.929  2.2289  1.6011  1.9824
   53MOL    H3718861   5.202   0.174   1.018  1.5972  1.1800  2.9420
   53MOL    C3818862   5.122   0.724   0.598 -0.2936  0.0499 -0.0909
   53MOL    C3918863   5.189   0.855   0.646 -0.3021  0.3214  0.0010
   53MOL    C4018864   5.247   0.838   0.791 -0.2412  0.5315  0.2650
   53MOL    O4118865   5.202   0.908   0.877 -0.5325  0.3590 -0.1385
   53MOL    O4218866   5.344   0.736   0.800 -0.1542  0.4862  0.2646
   53MOL    C4318867   5.423   0.724   0.915 -0.0934 -0.6918  0.6048
   53MOL    C4418868   5.523   0.610   0.890  0.0432  0.3226 -0.2680
   53MOL    C4518869   5.648   0.612   0.976  1.6323  0.1286 -0.3605
   53MOL    H4618870   5.100   0.731   0.491  1.6496  1.6305 -0.4187
   53MOL    H4718871   5.197   0.645   0.602  1.3590  1.3995 -2.7023
   53MOL    H4818872   5.118   0.938   0.646  0.2449  0.8326  2.6455
   53MOL    H4918873   5.479   0.813   0.946 -1.5724  0.5870 -0.3028
   53MOL    H5018874   5.348   0.703   0.992  2.1245 -0.1718  2.9855
   53MOL    H5118875   5.471   0.514   0.900 -2.1161  1.4590 -0.1899
   53MOL    H5218876   5.565   0.620   0.790  0.1088  2.0265 -0.0788
   53MOL    H5318877   5.628   0.589   1.081 -1.4253 -2.1808 -1.3914
   53MOL    H5418878   5.689   0.713   0.982 -0.2999  1.0666 -2.6475
   53MOL    H5518879   5.735   0.561   0.936  0.6661  0.8863 -3.5361
   53MOL    C5618880   5.300   0.893   0.537  0.2061  0.3286  0.1698
   53MOL    C5718881   5.361   1.040   0.545 -1.0918 -0.1648 -0.7107
   53MOL    C5818882   5.479   1.048   0.644  0.3208  0.1384  0.4153
   53MOL    O5918883   5.471   1.103   0.750  0.1250 -0.0038 -0.2619
   53MOL    O6018884   5.579   0.977   0.607  0.3591 -0.4245  0.1682
   53MOL    C6118885   5.689   0.970   0.700  0.4057  0.8169 -0.7495
   53MOL    C6218886   5.778   0.847   0.671 -0.4207 -0.2999  0.6554
   53MOL    C6318887   5.889   0.884   0.566 -0.6133  0.8118 -0.9851
   53MOL    H6418888   5.247   0.882   0.442 -2.6302 -0.2862  1.7687
   53MOL    H6518889   5.377   0.817   0.543  1.0577  0.9603 -2.2515
   53MOL    H6618890   5.279   1.097   0.587  0.8314  0.6713  2.0860
   53MOL    H6718891   5.752   1.059   0.696 -2.6074  2.9537 -1.4321
   53MOL    H6818892   5.656   0.964   0.804  1.2514 -1.3229 -0.5672
   53MOL    H6918893   5.812   0.803   0.765 -0.3657  0.4752  1.0102
   53MOL    H7018894   5.706   0.772   0.638 -1.3742  0.5562  0.7540
   53MOL    H7118895   5.973   0.937   0.610  0.7852 -1.7525 -0.4137
   53MOL    H7218896   5.849   0.944   0.484 -0.4171  0.4048 -1.3817
   53MOL    H7318897   5.925   0.786   0.534 -0.2015 -0.0328  1.9373
   53MOL    C7418898   5.386   1.105   0.404  0.3727  0.8601  0.6472
   53MOL    C7518899   5.502   1.052   0.315 -0.3281  0.5534  0.7472
   53MOL    C7618900   5.511   0.895   0.285  0.2962 -0.5053 -0.7790
   53MOL    O7718901   5.612   0.835   0.320 -0.3027  0.3566 -0.1442
   53MOL    O7818902   5.408   0.843   0.224  0.2321 -0.0138  0.2959
   53MOL    C7918903   5.414   0.711   0.170  0.5503  0.5279  0.1204
   53MOL    C8018904   5.268   0.671   0.145 -0.1112  0.1269  0.1533
   53MOL    C8118905   5.239   0.534   0.084  0.1316  0.0292  0.6020
   53MOL    H8218906   5.417   1.206   0.428 -0.6641  1.3232  0.0401
   53MOL    H8318907   5.291   1.107   0.352  1.2191 -2.4720 -1.2138
   53MOL    H8418908   5.597   1.082   0.360  0.1819 -0.2033  0.1915
   53MOL    H8518909   5.462   0.720   0.073  1.0819 -1.6432  0.1454
   53MOL    H8618910   5.464   0.643   0.239  1.6233  0.2318 -0.9306
   53MOL    H8718911   5.213   0.675   0.239 -0.5147  2.9077 -0.1446
   53MOL    H8818912   5.231   0.755   0.086 -0.2901  0.6365  0.9915
   53MOL    H8918913   5.293   0.512   7.872  0.3540 -1.3388  1.0373
   53MOL    H9018914   5.133   0.531   0.058  0.5308  0.9270 -1.2403
   53MOL    H9118915   5.256   0.447   0.147  0.7982 -1.7524 -1.9287
   53MOL    C9218916   5.493   1.134   0.176 -0.0627  0.0687  0.2269
   53MOL    C9318917   5.486   1.293   0.177 -0.8248  0.3639 -0.5009
   53MOL    C9418918   5.617   1.362   0.209 -0.3677 -0.0450 -0.3741
   53MOL    O9518919   5.730   1.318   0.202 -0.5633  0.4087  0.1468
   53MOL    O9618920   5.586   1.485   0.251  0.2709 -0.2490  0.7665
   53MOL    C9718921   5.692   1.580   0.277  0.0581 -0.2363 -0.3280
   53MOL    C9818922   5.711   1.671   0.148 -0.2088  0.0109  0.7922
   53MOL    C9918923   5.794   1.796   0.162 -0.3251  0.3122  0.1671
   53MOL   H10018924   5.408   1.109   0.113  0.1374 -0.6755  0.2477
   53MOL   H10118925   5.578   1.110   0.112 -0.7115  0.3499 -0.7534
   53MOL   H10218926   5.420   1.331   0.255 -0.3272 -0.7851  0.4890
   53MOL   H10318927   5.655   1.651   0.352 -0.9552 -0.8544 -0.2299
   53MOL   H10418928   5.778   1.527   0.317  0.2705 -0.8995 -1.6504
   53MOL   H10518929   5.758   1.612   0.069 -1.8984 -2.0879  1.2741
   53MOL   H10618930   5.615   1.702   0.106  0.9393  0.7864 -1.2928
   53MOL   H10718931   5.881   1.768   0.222 -1.1706 -0.6919  0.9355
   53MOL   H10818932   5.732   1.879   0.196  0.4558  1.6093 -1.4966
   53MOL   H10918933   5.840   1.824   0.067 -0.3634 -0.1488  0.0097
   53MOL   C11018934   5.430   1.336   0.039  0.1236 -0.3017  0.3374
   53MOL   C11118935   5.536   1.323   7.794 -0.1932  1.0772 -0.6251
   53MOL   C11218936   5.518   1.184   7.731  0.4374 -0.2250 -0.4445
   53MOL   O11318937   5.407   1.138   7.708  0.1360 -0.0160  0.1578
   53MOL   O11418938   5.630   1.113   7.699  0.2444 -0.2534 -0.1156
   53MOL   C11518939   5.619   0.975   7.653 -0.1900  0.7650  1.4337
   53MOL   C11618940   5.595   0.966   7.500  0.2537 -0.3994 -0.1556
   53MOL   C11718941   5.717   1.006   7.412  0.5108  0.0053 -0.1941
   53MOL   H11818942   5.419   1.444   0.050  0.1525 -0.3321  0.6515
   53MOL   H11918943   5.324   1.324   0.016 -0.3416 -0.5711  2.4827
   53MOL   H12018944   5.636   1.336   7.835 -0.7866 -0.3368  1.3737
   53MOL   H12118945   5.716   0.927   7.670  0.1472  1.2599  0.9480
   53MOL   H12218946   5.535   0.932   7.708 -0.3946 -0.6634  0.0319
   53MOL   H12318947   5.574   0.863   7.473  1.0495 -0.1380 -1.8461
   53MOL   H12418948   5.511   1.033   7.480  0.1593  0.0050  1.5805
   53MOL   H12518949   5.770   1.083   7.467 -2.1353  3.0991 -1.8463
   53MOL   H12618950   5.692   1.061   7.322  2.3920  0.6888 -0.3331
   53MOL   H12718951   5.788   0.925   7.394 -0.9512 -1.1138 -0.9561
   53MOL   C12818952   5.506   1.437   7.690  0.4847  0.1890 -0.1870
   53MOL   C12918953   5.617   1.469   7.586 -0.3098  0.8361  0.1775
   53MOL   C13018954   5.744   1.519   7.655  0.3424  0.0128  0.0478
   53MOL   O13118955   5.764   1.637   7.647  0.1419 -0.1503 -0.3159
   53MOL   O13218956   5.824   1.428   7.710  0.0125 -0.2183  0.2766
   53MOL   C13318957   5.946   1.458   7.773 -0.4477  0.7101 -0.0316
   53MOL   C13418958   6.001   1.335   7.853  0.0051 -0.6761  1.0193
   53MOL   C13518959   6.065   1.360   0.105  0.3378 -0.6887 -0.4782
   53MOL   H13618960   5.497   1.520   7.760  0.4425 -0.2009  0.2708
   53MOL   H13718961   5.407   1.429   7.645 -0.4132 -3.4573  2.1758
   53MOL   H13818962   5.580   1.551   7.525 -2.4448 -1.2152 -1.3834
   53MOL   H13918963   6.019   1.464   7.692  0.3029 -0.5725  0.5253
   53MOL   H14018964   5.939   1.552   7.828  0.3542  1.7108 -1.5983
   53MOL   H14118965   5.918   1.266   7.869  0.4467 -1.0730  1.6252
   53MOL   H14218966   6.065   1.276   7.787  1.2264  0.1606  1.4421
   53MOL   H14318967   6.062   1.261   0.152  0.2988 -0.2340  0.4887
   53MOL   H14418968   6.013   1.425   0.175  0.6943 -0.6929 -0.2033
   53MOL   H14518969   6.168   1.393   0.094 -0.3838  1.4300 -1.0286
   53MOL   C14618970   5.632   1.358   7.482  0.0374 -0.2411  0.2590
   53MOL   C14718971   5.649   1.413   7.334 -0.3390  0.1230  0.3147
   53MOL   C14818972   5.513   1.461   7.283  0.6717 -0.1652  1.0275
   53MOL   O14918973   5.489   1.579   7.268 -0.4158 -0.4211  0.1715
   53MOL   O15018974   5.422   1.361   7.271 -0.9248 -0.4290  0.0222
   53MOL   C15118975   5.278   1.391   7.273  0.6042 -0.6584  0.2257
   53MOL   C15218976   5.229   1.408   7.422 -0.4231  0.1006  0.3276
   53MOL   C15318977   5.228   1.276   7.492 -0.4434  0.6765 -0.0033
   53MOL   H15418978   5.551   1.285   7.478 -0.1537  0.0843 -3.5748
   53MOL   H15518979   5.719   1.296   7.503 -0.3172 -0.7365  0.2933
   53MOL   H15618980   5.665   1.326   7.271 -0.6653  0.3896 -0.1432
   53MOL   H15718981   5.252   1.488   7.231  0.5896 -0.1597  1.3455
   53MOL   H15818982   5.229   1.321   7.206 -0.6198  1.2635 -0.9238
   53MOL   H15918983   5.282   1.487   7.475 -0.2392  0.6740 -0.6877
   53MOL   H16018984   5.125   1.441   7.428 -0.9159 -1.5849  1.6962
   53MOL   H16118985   5.303   1.212   7.446 -0.3558  1.6147 -1.2230
   53MOL   H16218986   5.142   1.215   7.465  0.4773 -0.3715 -0.6283
   53MOL   H16318987   5.226   1.291   7.600  1.1287 -0.6686  0.2315
   53MOL   C16418988   5.762   1.519   7.324  0.0588 -0.0735 -0.1094
   53MOL   C16518989   5.800   1.553   7.176  0.0031  0.2577 -0.8519
   53MOL   C16618990   5.823   1.703   7.169  0.2993  0.9932  0.3721
   53MOL   O16718991   5.737   1.774   7.124 -0.0505 -0.2516 -0.2356
   53MOL   O16818992   5.934   1.744   7.223 -0.1583 -0.3859 -0.5827
   53MOL   C16918993   5.964   1.881   7.248 -0.0478 -0.1212 -0.0480
   53MOL   C17018994   5.890   1.936   7.366  0.0008  0.0142 -0.3225
   53MOL   C17118995   5.947   1.862   7.496  0.2566  0.3413  0.0219
   53MOL   H17218996   5.852   1.479   7.371  0.5999  1.9362  0.6352
   53MOL   H17318997   5.744   1.608   7.385  0.3387 -0.1490  0.0862
   53MOL   H17418998   5.705   1.540   7.125 -0.5592  0.2052  0.1928
   53MOL   H17518999   6.072   1.889   7.256 -0.0208  0.7148 -1.1856
   53MOL   H17619000   5.941   1.943   7.161 -2.9834  1.1721  1.5857
   53MOL   H17719001   5.905   2.044   7.363  1.0706  0.0164  3.0122
   53MOL   H17819002   5.782   1.920   7.357 -0.1745  0.9148  0.1621
   53MOL   H17919003   5.910   1.907   7.588 -2.3279 -0.1466 -0.7459
   53MOL   H18019004   6.056   1.856   7.500  0.1372 -0.9744  1.4497
   53MOL   H18119005   5.904   1.762   7.488 -1.8520  1.2905 -0.6620
   53MOL   C18219006   5.915   1.470   7.116 -0.0925 -0.0126 -0.6766
   53MOL   C18319007   5.920   1.317   7.119 -0.7261 -0.1466 -0.7623
   53MOL   C18419008   5.813   1.262   7.026  0.3384  0.2020 -0.6491
   53MOL   O18519009   5.719   1.191   7.071 -0.4024  0.0074  0.3163
   53MOL   O18619010   5.833   1.305   6.893  0.3097  0.8949 -0.4083
   53MOL   C18719011   5.760   1.236   6.792  0.4860  0.2968 -0.0739
   53MOL   C18819012   5.617   1.280   6.780  0.0064 -0.6586  0.4544
   53MOL   C18919013   5.598   1.432   6.752 -0.1183 -0.2853 -0.5648
   53MOL   H19019014   6.004   1.510   7.166 -0.4656 -0.3865  0.3132
   53MOL   H19119015   5.936   1.504   7.015 -0.3485 -0.5743 -0.9187
   53MOL   H19219016   5.905   1.293   7.224  1.7866 -0.0798 -0.3476
   53MOL   H19319017   5.807   1.267   6.699 -0.5582 -0.0248 -0.7072
   53MOL   H19419018   5.751   1.128   6.800 -0.8276  0.3571 -0.7093
   53MOL   H19519019   5.559   1.228   6.704 -1.0834 -1.9517  2.1257
   53MOL   H19619020   5.568   1.262   6.876 -0.0845 -0.6094  0.4175
   53MOL   H19719021   5.696   1.479   6.756 -0.6210  0.7227  0.1607
   53MOL   H19819022   5.520   1.479   6.812 -2.0050 -3.7907 -0.1168
   53MOL   H19919023   5.577   1.454   6.648 -2.5257 -1.9492 -0.4843
   53MOL   C20019024   6.068   1.262   7.081  0.7122 -0.4085  0.0346
   53MOL   C20119025   6.080   1.111   7.103  0.2791  0.1430  0.5547
   53MOL   C20219026   6.219   1.066   7.043  0.0024  0.1457  1.0045
   53MOL   O20319027   6.325   1.134   7.045 -0.0974 -0.1023 -0.1698
   53MOL   O20419028   6.212   0.936   7.000  0.0951 -0.1221  0.4747
   53MOL   C20519029   6.328   0.865   6.950  0.9685  0.0934  0.4143
   53MOL   C20619030   6.312   0.819   6.803  0.0821  0.0293  0.1643
   53MOL   C20719031   6.228   0.695   6.779  0.6776  0.5177 -0.3559
   53MOL   H20819032   6.144   1.310   7.143  2.3783 -1.7940 -0.8842
   53MOL   H20919033   6.104   1.292   6.983 -1.2839  1.6029 -0.1317
   53MOL   H21019034   6.005   1.059   7.044  1.2348 -1.7105  0.9177
   53MOL   H21119035   6.415   0.930   6.941  1.7115 -0.9349 -0.0040
   53MOL   H21219036   6.365   0.782   7.011  0.4087  1.5120  2.7522
   53MOL   H21319037   6.284   0.894   6.730  0.1071 -1.2837 -1.2230
   53MOL   H21419038   6.410   0.789   6.766 -0.6302 -0.0229 -1.7266
   53MOL   H21519039   6.126   0.705   6.815  1.1777 -0.2257  1.2894
   53MOL   H21619040   6.282   0.615   6.829 -1.3759 -0.4217  0.4335
   53MOL   H21719041   6.224   0.656   6.677 -1.1891  0.8405 -0.4231
   53MOL   C21819042   6.056   1.066   7.246  0.3680  0.4040 -0.0957
   53MOL   C21919043   6.153   1.131   7.346  0.3297 -0.1016 -0.9637
   53MOL   C22019044   6.109   1.263   7.406  0.1593 -0.2404  0.1400
   53MOL   O22119045   6.003   1.267   7.469  0.8366 -0.1106 -0.3631
   53MOL   O22219046   6.194   1.362   7.396  0.0396  0.2088 -0.0155
   53MOL   C22319047   6.176   1.491   7.459  0.3706  0.4733 -0.3595
   53MOL   C22419048   6.292   1.581   7.419 -0.4202 -0.3198  0.1662
   53MOL   C22519049   6.416   1.571   7.503 -0.1532 -0.0550 -0.1026
   53MOL   H22619050   6.085   0.961   7.237 -0.4626  0.3825 -2.9745
   53MOL   H22719051   5.956   1.064   7.288  0.2411 -1.4812 -0.4204
   53MOL   H22819052   6.248   1.150   7.295 -0.9940 -2.2435 -4.4634
   53MOL   H22919053   6.083   1.539   7.432 -1.6958 -0.9395  3.7427
   53MOL   H23019054   6.161   1.464   7.564  0.5444  1.9636  0.0485
   53MOL   H23119055   6.321   1.556   7.318  1.3241  0.3671  0.4732
   53MOL   H23219056   6.248   1.680   7.431 -1.0697 -0.6974  0.9979
   53MOL   H23319057   6.482   1.651   7.471  1.3465 -0.3669  2.1197
   53MOL   H23419058   6.473   1.483   7.473 -0.4846  0.5479 -2.6032
   53MOL   H23519059   6.409   1.596   7.609  0.2286 -1.2575  0.2146
   53MOL   C23619060   6.201   1.031   7.454 -0.7340 -0.8227 -0.1865
   53MOL   C23719061   6.330   1.057   7.538 -0.4625 -0.1594  0.4561
   53MOL   C23819062   6.459   1.069   7.459  0.0552 -0.1480 -0.0608
   53MOL   O23919063   6.515   1.171   7.427  0.2805  0.0220  0.0671
   53MOL   O24019064   6.500   0.947   7.425  0.3108 -0.2825  0.0272
   53MOL   C24119065   6.624   0.930   7.355  0.4446  0.4036 -0.2196
   53MOL   C24219066   6.606   0.922   7.205 -0.2110 -0.6837 -0.0084
   53MOL   C24319067   6.742   0.910   7.135 -0.1088  0.1466 -0.3099
   53MOL   H24419068   6.223   0.931   7.418 -2.5146 -2.0065  1.9197
   53MOL   H24519069   6.119   1.014   7.524  2.1783 -2.7011  2.9261
   53MOL   H24619070   6.335   0.961   7.589 -0.5234  0.0321  0.8207
   53MOL   H24719071   6.688   1.017   7.370 -0.5564  1.1500 -0.2022
   53MOL   H24819072   6.681   0.845   7.392 -1.9167 -1.0496  0.1551
   53MOL   H24919073   6.545   0.835   7.179  1.1987 -1.9850  0.9510
   53MOL   H25019074   6.553   1.010   7.169  0.4084  0.0209  0.7914
   53MOL   H25119075   6.785   0.814   7.163  0.3569  0.8147  1.3134
   53MOL   H25219076   6.812   0.991   7.156  0.4969 -0.3451 -0.4405
   53MOL   H25319077   6.721   0.905   7.028 -0.2739  0.2886 -0.2856
   53MOL   C25419078   6.323   1.159   7.650  0.7383  0.1043  0.0442
   53MOL   C25519079   6.447   1.165   7.739 -0.5044 -0.8923 -0.5644
   53MOL   C25619080   6.480   1.311   7.778  0.0259  0.3357 -0.1039
   53MOL   O25719081   6.393   1.393   7.805 -0.0590  0.5334  0.4619
   53MOL   O25819082   6.617   1.339   7.779 -0.5154 -0.0363  0.1872
   53MOL   C25919083   6.666   1.469   7.808 -0.2246  0.2232 -0.3823
   53MOL   C26019084   6.754   1.451   0.054 -0.2581  0.0664 -0.2550
   53MOL   C26119085   6.901   1.392   0.029  1.1259  0.2969 -0.1527
   53MOL   H26219086   6.234   1.147   7.711  0.0177  0.0057 -1.0052
   53MOL   H26319087   6.300   1.260   7.615 -1.6712 -1.0582 -1.9076
   53MOL   H26419088   6.536   1.128   7.688  0.0095  0.9680 -1.0302
   53MOL   H26519089   6.728   1.510   7.728  2.7877 -3.6855 -0.2313
   53MOL   H26619090   6.598   1.546   7.844  0.1085  0.8144 -1.0060
   53MOL   H26719091   6.772   1.552   0.088 -0.1106  1.1099 -3.2975
   53MOL   H26819092   6.703   1.404   0.138  0.3929 -0.4075 -0.1159
   53MOL   H26919093   6.903   1.289   7.874 -0.7189  0.2465 -0.1631
   53MOL   H27019094   6.964   1.401   0.118  0.7308  0.5143  0.1054
   53MOL   H27119095   6.951   1.451   7.833  0.7388  1.9787  0.8612
   53MOL   C27219096   6.427   1.098   7.877  0.2785 -1.0556  0.3458
   53MOL   C27319097   6.556   1.067   0.081 -0.4466  0.0361 -0.4865
   53MOL   C27419098   6.541   1.123   0.222  0.0616 -0.4009 -0.3636
   53MOL   O27519099   6.602   1.218   0.252 -0.2747 -0.4907  0.1338
   53MOL   O27619100   6.459   1.053   0.300  0.2166 -0.3982  0.1733
   53MOL   C27719101   6.431   1.103   0.435 -0.0360 -0.0946  0.5939
   53MOL   C27819102   6.292   1.176   0.440  0.5297 -0.6475 -0.2292
   53MOL   C27919103   6.170   1.099   0.381  0.0138 -0.5813 -0.0856
   53MOL   H28019104   6.372   1.005   7.871 -3.0402  0.9091 -1.0393
   53MOL   H28119105   6.357   1.163   0.050 -0.0393  1.4003 -2.9515
   53MOL   H28219106   6.639   1.121   0.037  0.0089  0.4534  0.8502
   53MOL   H28319107   6.433   1.020   0.505 -1.4991 -0.2383  0.4719
   53MOL   H28419108   6.510   1.170   0.469  0.6456 -0.0610 -1.0269
   53MOL   H28519109   6.274   1.198   0.546  0.7789 -0.4459 -0.2294
   53MOL   H28619110   6.309   1.268   0.386 -1.7642  0.3753  0.7326
   53MOL   H28719111   6.153   1.009   0.439 -1.1505  0.6524  1.5362
   53MOL   H28819112   6.193   1.056   0.284 -0.7307 -1.1776  0.0043
   53MOL   H28919113   6.074   1.150   0.382  1.5936  2.7180 -2.9575
   53MOL   C29019114   6.591   0.911   0.086  0.4128 -0.2768  0.3914
   53MOL   C29119115   6.626   0.862   7.819 -0.0474  0.0405  0.6347
   53MOL   C29219116   6.763   0.921   7.775 -0.4289  0.1615 -0.5143
   53MOL   O29319117   6.766   0.992   7.673 -0.5758 -0.9150  0.1902
   53MOL   O29419118   6.860   0.859   7.838 -0.5595  0.1145 -0.0436
   53MOL   C29519119   6.992   0.879   7.791 -0.2140 -0.4564 -0.3825
   53MOL   C29619120   7.065   0.996   7.866  0.3688  0.0855 -0.8988
   53MOL   C29719121   7.204   1.028   7.811 -0.7703  0.1138  0.1123
   53MOL   H29819122   6.510   0.865   0.142 -1.0574 -1.0667 -2.3009
   53MOL   H29919123   6.672   0.897   0.158 -0.2289 -0.0761  1.1548
   53MOL   H30019124   6.556   0.913   7.753  2.0150  1.6561 -0.3775
   53MOL   H30119125   7.053   0.789   7.798  1.2902  0.3923 -2.0933
   53MOL   H30219126   6.998   0.913   7.687 -1.4415 -0.1170 -0.3594
   53MOL   H30319127   7.011   1.090   7.866  0.8270  0.3577 -1.6502
   53MOL   H30419128   7.082   0.971   0.090  0.2177  1.4557 -0.5328
   53MOL   H30519129   7.263   1.100   7.867  2.8455 -2.0421 -0.7144
   53MOL   H30619130   7.178   1.083   7.721  0.8584  0.6574 -0.0433
   53MOL   H30719131   7.264   0.943   7.775 -0.9359  0.8946 -2.1030
   53MOL   C30819132   6.616   0.705   7.809 -0.3346 -0.3588 -0.0730
   53MOL   C30919133   6.641   0.629   7.679 -0.5681 -0.4419  0.1989
   53MOL   C31019134   6.794   0.592   7.657 -0.1636 -0.2407  0.1922
   53MOL   O31119135   6.859   0.646   7.571 -0.4606 -0.1252  0.6643
   53MOL   O31219136   6.840   0.502   7.749 -0.2766  0.2496 -0.2556
   53MOL   C31319137   6.970   0.439   7.729 -0.2628 -0.1337  0.7557
   53MOL   C31419138   7.075   0.476   7.830 -0.2203  0.0405 -0.4057
   53MOL   C31519139   7.031   0.450   0.095  0.2547  0.2979  0.6541
   53MOL   H31619140   6.524   0.673   7.859  0.8906 -2.0905  1.1250
   53MOL   H31719141   6.683   0.669   0.007  2.2092  0.1683 -1.9418
   53MOL   H31819142   6.608   0.697   7.600 -0.7044  0.4988  1.0557
   53MOL   H31919143   6.959   0.330   7.725 -3.8870  0.2195 -1.7134
   53MOL   H32019144   7.003   0.469   7.629 -0.1262 -0.3928  0.7234
   53MOL   H32119145   7.164   0.415   7.815 -0.7799 -0.7415 -0.5629
   53MOL   H32219146   7.090   0.584   7.824 -1.3290  0.2393  0.2249
   53MOL   H32319147   6.946   0.513   0.122  1.3195  1.4288  1.4172
   53MOL   H32419148   6.994   0.348   0.105 -0.8010  0.6438  0.3483
   53MOL   H32519149   7.107   0.467   0.171  0.8863 -1.2590  0.3807
   53MOL   C32619150   6.561   0.500   7.676 -0.2063  0.0337  0.4879
   53MOL   C32719151   6.411   0.526   7.660  0.3234 -0.4314 -0.0964
   53MOL   C32819152   6.373   0.577   7.524  0.0202  0.3483  0.2506
   53MOL   O32919153   6.321   0.690   7.521  0.1941  0.7696  0.4466
   53MOL   O33019154   6.393   0.491   7.428 -0.1374 -0.5734  0.6043
   53MOL   C33119155   6.380   0.525   7.290  0.0676 -0.1513  0.4865
   53MOL   C33219156   6.231   0.527   7.246  0.7412 -0.0138 -0.0284
   53MOL   C33319157   6.207   0.635   7.142 -0.6873  0.5348  0.2285
   53MOL   H33419158   6.588   0.439   7.762 -1.6011 -2.0135 -0.4844
   53MOL   H33519159   6.595   0.440   7.592  1.7919  1.9536 -0.1200
   53MOL   H33619160   6.379   0.602   7.731  0.8489  0.7394 -1.1050
   53MOL   H33719161   6.426   0.624   7.281 -1.6047  0.7147  1.2575
   53MOL   H33819162   6.432   0.444   7.238  0.3711 -0.9850  2.0778
   53MOL   H33919163   6.214   0.431   7.197 -0.4131  0.7740 -1.2177
   53MOL   H34019164   6.162   0.542   7.328  0.8593  0.5514 -0.0336
   53MOL   H34119165   6.239   0.731   7.184  1.8576  0.0628 -0.5569
   53MOL   H34219166   6.269   0.603   7.058  0.4360  3.0394  0.0492
   53MOL   H34319167   6.101   0.632   7.119 -0.2242  0.3804 -2.0250
   53MOL   C34419168   6.328   0.402   7.691  0.0957  0.8124  0.5750
   53MOL   C34519169   6.180   0.411   7.717  0.4423  0.2678  0.6114
   53MOL   C34619170   6.120   0.272   7.746  0.0999  0.3446  0.2957
   53MOL   O34719171   6.172   0.204   7.833  0.1436  0.2432  0.2195
   53MOL   O34819172   5.998   0.258   7.686 -0.6624 -1.1667 -0.4671
   53MOL   C34919173   5.910   0.150   7.721  0.0561 -0.6195  0.1181
   53MOL   C35019174   5.828   0.192   7.845 -0.7488 -0.3109 -0.0044
   53MOL   C35119175   5.737   0.077   0.012 -0.3199  0.7954 -0.2585
   53MOL   H35219176   6.357   0.360   7.788 -0.5750 -1.1223 -0.0403
   53MOL   H35319177   6.339   0.322   7.618  0.7967  0.7424  0.7550
   53MOL   H35419178   6.127   0.468   7.640  0.8749 -1.6549 -1.1675
   53MOL   H35519179   5.839   0.116   7.646 -1.3547  2.0286  0.1941
   53MOL   H35619180   5.972   0.064   7.745  2.2333  0.7851 -0.3263
   53MOL   H35719181   5.900   0.234   0.034  1.8344 -1.6297 -1.8066
   53MOL   H35819182   5.776   0.285   7.820 -1.7991 -0.8718  0.0338
   53MOL   H35919183   5.789   7.864   0.036 -0.6669  1.3726  2.9463
   53MOL   H36019184   5.695   0.109   0.108  1.8462 -1.6017  1.5576
   53MOL   H36119185   5.663   0.055   7.815 -0.2731 -3.3257  0.7570
   53MOL   H36219186   6.166   0.462   7.812  2.6052  0.0975  1.0516
   54MOL     C119187   1.362   1.206   2.353  0.2856 -0.7836 -0.7459
   54MOL     C219188   1.446   1.341   2.357  0.0411  0.1890  0.7318
   54MOL     C319189   1.413   1.430   2.244 -0.0935  0.7408 -0.1889
   54MOL     O419190   1.495   1.463   2.160  0.8861 -1.3514  0.1459
   54MOL     O519191   1.278   1.464   2.235  0.0712 -0.1464 -0.3138
   54MOL     C619192   1.222   1.538   2.127 -0.0326 -0.1580  1.0596
   54MOL     C719193   1.095   1.622   2.158  0.8130  1.2945 -0.0658
   54MOL     C819194   1.034   1.685   2.036 -0.2849 -0.5608 -0.4640
   54MOL     H919195   1.365   1.152   2.448 -1.7306  0.1412 -0.1319
   54MOL    H1019196   1.265   1.221   2.304  0.3255  0.2770 -0.5008
   54MOL    H1119197   1.552   1.316   2.353 -0.1073 -0.5434  1.1237
   54MOL    H1219198   1.296   1.611   2.095 -0.7305 -0.2267 -0.7421
   54MOL    H1319199   1.207   1.472   2.042  1.5582  0.0725  0.5991
   54MOL    H1419200   1.026   1.549   2.202  0.1447 -0.2730 -3.4953
   54MOL    H1519201   1.120   1.698   2.231  0.0339  3.2668 -1.7780
   54MOL    H1619202   1.026   1.611   1.956  0.6627  0.3135 -1.3937
   54MOL    H1719203   0.938   1.737   2.043  1.4599  2.8104 -0.6619
   54MOL    H1819204   1.091   1.773   2.004 -0.4618 -0.4508 -0.4784
   54MOL    H1919205   1.416   1.151   2.275 -0.7545 -2.2256 -0.4881
   54MOL    C2019206   1.421   1.413   2.493 -0.4208 -0.0555  0.7921
   54MOL    C2119207   1.487   1.550   2.516  0.1950 -0.6922 -0.2481
   54MOL    C2219208   1.380   1.645   2.579  0.4160 -0.5652 -0.1377
   54MOL    O2319209   1.324   1.737   2.525  0.5779  0.2070 -0.3583
   54MOL    O2419210   1.360   1.608   2.707 -0.4893  0.4626  0.3798
   54MOL    C2519211   1.263   1.681   2.777  0.1406 -0.3058 -0.5766
   54MOL    C2619212   1.196   1.599   2.883 -0.0145  0.3230 -0.5477
   54MOL    C2719213   1.089   1.505   2.838 -0.0460 -0.4124 -0.2339
   54MOL    H2819214   1.456   1.343   2.569  0.1794 -1.0152 -0.3672
   54MOL    H2919215   1.313   1.426   2.502 -0.2882  0.8996  1.0015
   54MOL    H3019216   1.514   1.590   2.419  1.1815 -1.8211 -0.4508
   54MOL    H3119217   1.309   1.772   2.815  0.0242  0.1701 -1.5591
   54MOL    H3219218   1.189   1.728   2.712 -1.3433  0.0624  1.3073
   54MOL    H3319219   1.264   1.540   2.945  0.1213  2.5842  1.5324
   54MOL    H3419220   1.158   1.662   2.964  0.4367 -0.4337  0.2536
   54MOL    H3519221   1.009   1.492   2.911 -0.0569 -3.1603 -0.6778
   54MOL    H3619222   1.126   1.409   2.800  0.5487 -0.6329  0.8856
   54MOL    H3719223   1.038   1.554   2.755 -1.2369  0.3029  0.9086
   54MOL    C3819224   1.610   1.533   2.606 -0.9299  0.0663  0.7920
   54MOL    C3919225   1.744   1.513   2.525  0.4726  0.2126  0.4582
   54MOL    C4019226   1.783   1.656   2.474 -0.4398 -0.1106  0.1324
   54MOL    O4119227   1.852   1.728   2.550  0.0181 -0.6286  0.0573
   54MOL    O4219228   1.742   1.692   2.356  0.6224  0.8620 -0.2024
   54MOL    C4319229   1.792   1.814   2.292  0.1360  0.0473 -0.3997
   54MOL    C4419230   1.747   1.812   2.148  0.3061 -0.0790 -0.0133
   54MOL    C4519231   1.601   1.832   2.123 -0.2801 -0.4235  0.2715
   54MOL    H4619232   1.588   1.448   2.671  0.5287 -1.6708 -0.9130
   54MOL    H4719233   1.633   1.621   2.665  1.3928  0.2248 -0.3005
   54MOL    H4819234   1.728   1.448   2.439  1.2819  0.2717  0.2657
   54MOL    H4919235   1.754   1.898   2.349 -2.2801 -0.4765 -1.1555
   54MOL    H5019236   1.901   1.817   2.297  0.0497  2.4029  0.5999
   54MOL    H5119237   1.808   1.895   2.111  1.3340 -0.1558  1.4833
   54MOL    H5219238   1.782   1.723   2.096  2.5092  1.4228 -1.2080
   54MOL    H5319239   1.542   1.760   2.180 -0.7395 -0.9071 -0.8207
   54MOL    H5419240   1.575   1.816   2.019 -0.7107  1.2333  0.1006
   54MOL    H5519241   1.575   1.932   2.158 -0.6484 -0.2617 -0.4725
   54MOL    C5619242   1.855   1.450   2.615 -0.4113  0.2475  0.3197
   54MOL    C5719243   1.819   1.309   2.673  0.6431  0.3073 -0.5594
   54MOL    C5819244   1.761   1.214   2.564  0.3282 -0.3119  0.6078
   54MOL    O5919245   1.650   1.161   2.587  0.2865 -0.0837 -0.5307
   54MOL    O6019246   1.841   1.203   2.452  0.6738 -0.0299 -0.4467
   54MOL    C6119247   1.796   1.126   2.341 -0.1121 -0.5557 -0.3888
   54MOL    C6219248   1.880   1.172   2.218  0.1221 -0.3458  0.5638
   54MOL    C6319249   1.905   1.324   2.209  0.4027  0.3437 -0.2951
   54MOL    H6419250   1.879   1.522   2.693 -1.6202  0.9271  0.0822
   54MOL    H6519251   1.949   1.443   2.562 -0.3389  0.5464  0.4098
   54MOL    H6619252   1.735   1.331   2.740 -0.1266 -1.3528 -0.9570
   54MOL    H6719253   1.798   1.019   2.364  2.5489 -1.0025 -2.4504
   54MOL    H6819254   1.697   1.159   2.311  0.2768 -1.1602 -2.4405
   54MOL    H6919255   1.977   1.123   2.225 -0.3131 -1.1216  1.2493
   54MOL    H7019256   1.841   1.132   2.125 -1.2781 -0.0376  1.0049
   54MOL    H7119257   1.999   1.333   2.263  0.7220 -1.5745 -0.4776
   54MOL    H7219258   1.829   1.387   2.256 -1.8186  0.5811 -3.9875
   54MOL    H7319259   1.918   1.348   2.103 -1.5796  2.0178 -0.1885
   54MOL    C7419260   1.931   1.252   2.762  0.9191 -0.2547  0.0077
   54MOL    C7519261   2.060   1.195   2.692  0.0025  0.0785 -0.0453
   54MOL    C7619262   2.155   1.312   2.650 -0.4388 -0.5038 -0.8344
   54MOL    O7719263   2.199   1.323   2.536  0.2964 -0.2148  0.0142
   54MOL    O7819264   2.178   1.408   2.744 -0.4948  0.2651 -0.0376
   54MOL    C7919265   2.270   1.514   2.717 -0.4231  0.0012 -0.5087
   54MOL    C8019266   2.303   1.599   2.841  0.2404  0.8677 -0.2800
   54MOL    C8119267   2.403   1.711   2.800  0.5021  0.2150  0.0142
   54MOL    H8219268   1.893   1.170   2.824  1.1811 -0.9035 -0.6869
   54MOL    H8319269   1.965   1.322   2.839  1.1058  1.7790 -1.8895
   54MOL    H8419270   2.030   1.144   2.600  2.1240 -0.9095 -0.2234
   54MOL    H8519271   2.358   1.484   2.660 -0.1979  2.8060 -1.7215
   54MOL    H8619272   2.208   1.572   2.648 -0.9683  1.1368  0.9214
   54MOL    H8719273   2.214   1.649   2.881  0.0092 -0.4592  0.9423
   54MOL    H8819274   2.328   1.517   2.909 -0.3475 -0.0170 -1.1054
   54MOL    H8919275   2.507   1.677   2.794  0.2188 -0.6425 -0.0584
   54MOL    H9019276   2.426   1.777   2.883 -2.3614  0.1136  0.9189
   54MOL    H9119277   2.378   1.781   2.720 -1.7006  0.4708  0.8996
   54MOL    C9219278   2.146   1.097   2.779  0.7944  0.0701  0.8970
   54MOL    C9319279   2.096   0.950   2.769  0.2702 -0.0590  0.5091
   54MOL    C9419280   2.111   0.897   2.631  0.1054  0.5266  0.1577
   54MOL    O9519281   2.016   0.902   2.555 -0.4285 -0.2717 -0.2307
   54MOL    O9619282   2.229   0.836   2.593 -0.3069 -0.4082 -0.0515
   54MOL    C9719283   2.244   0.786   2.460 -0.2239 -0.9527 -0.3677
   54MOL    C9819284   2.194   0.636   2.458  0.1991  0.3313 -0.0773
   54MOL    C9919285   2.205   0.573   2.327  0.2951  0.0464  0.2817
   54MOL   H10019286   2.143   1.132   2.882  0.5331  1.2295  0.5037
   54MOL   H10119287   2.252   1.086   2.758  1.3347  2.1266  2.4010
   54MOL   H10219288   1.989   0.959   2.786  0.3328  2.2532 -0.1997
   54MOL   H10319289   2.185   0.845   2.390 -0.4843 -1.4212 -0.5473
   54MOL   H10419290   2.348   0.785   2.428 -0.6523  2.2389 -2.0486
   54MOL   H10519291   2.250   0.571   2.525 -1.2959 -2.5907 -1.5489
   54MOL   H10619292   2.096   0.628   2.504 -0.0005  1.3387 -0.3122
   54MOL   H10719293   2.121   0.595   2.262 -0.1744  0.0938  0.8930
   54MOL   H10819294   2.215   0.465   2.343 -1.1858 -0.0594  0.5934
   54MOL   H10919295   2.295   0.601   2.273 -0.1539  0.9161 -0.0317
   54MOL   C11019296   2.147   0.850   2.879 -0.5169 -0.1564  0.1673
   54MOL   C11119297   2.047   0.844   3.001 -0.3706 -0.1760  0.0738
   54MOL   C11219298   1.924   0.754   2.972 -0.9595  0.2722  0.3065
   54MOL   O11319299   1.908   0.646   3.024 -0.6546 -0.4287  0.4933
   54MOL   O11419300   1.837   0.803   2.882  0.3692 -0.3169  0.1132
   54MOL   C11519301   1.755   0.706   2.816 -0.1424 -0.4033 -0.2131
   54MOL   C11619302   1.642   0.782   2.738 -0.4124 -0.0636 -1.3436
   54MOL   C11719303   1.555   0.880   2.823 -1.1782 -0.3449 -1.0420
   54MOL   H11819304   2.241   0.899   2.907  0.1363  0.1670 -2.4806
   54MOL   H11919305   2.176   0.752   2.842  2.2681  0.7996 -0.3069
   54MOL   H12019306   1.998   0.937   3.027 -0.6902 -1.0759  2.8026
   54MOL   H12119307   1.815   0.654   2.741 -1.0023 -1.3990 -0.2239
   54MOL   H12219308   1.714   0.642   2.894  1.4559  0.5756  1.4635
   54MOL   H12319309   1.690   0.839   2.659  0.1136  1.3331 -0.0562
   54MOL   H12419310   1.572   0.717   2.686 -1.7011 -1.9687  2.5617
   54MOL   H12519311   1.480   0.933   2.765 -0.5259  1.8569  0.0483
   54MOL   H12619312   1.614   0.953   2.878 -1.3389 -0.4596 -0.7208
   54MOL   H12719313   1.507   0.820   2.899 -0.6073 -0.1907 -0.5538
   54MOL   C12819314   2.121   0.788   3.134  0.4636 -0.5326  0.0188
   54MOL   C12919315   2.227   0.896   3.182  0.2890 -0.3181  0.8094
   54MOL   C13019316   2.170   1.024   3.238 -0.0576  0.0435 -0.0845
   54MOL   O13119317   2.115   1.019   3.348  0.6407  0.7959 -0.0994
   54MOL   O13219318   2.205   1.127   3.174 -0.3960  0.0080 -0.4526
   54MOL   C13319319   2.159   1.256   3.215 -0.3041 -0.4866 -0.0791
   54MOL   C13419320   2.110   1.348   3.104  0.6544 -0.2926  0.0263
   54MOL   C13519321   2.098   1.495   3.148 -0.3182 -0.5171  0.6674
   54MOL   H13619322   2.168   0.691   3.123 -0.2314 -0.9977  1.0730
   54MOL   H13719323   2.043   0.769   3.208  0.4501  2.6808  0.9380
   54MOL   H13819324   2.291   0.935   3.103  0.0385  2.8149  2.1016
   54MOL   H13919325   2.085   1.251   3.295 -0.6310 -0.0200 -0.3493
   54MOL   H14019326   2.242   1.303   3.269 -1.0459  0.4755  0.2447
   54MOL   H14119327   2.192   1.357   3.032 -0.6056  0.1788 -1.3918
   54MOL   H14219328   2.020   1.319   3.050  0.9218 -0.3001 -0.4209
   54MOL   H14319329   2.009   1.503   3.212 -1.5612  1.2289 -1.2021
   54MOL   H14419330   2.076   1.562   3.065  1.1827 -1.0174 -0.1424
   54MOL   H14519331   2.194   1.519   3.194 -0.4722  3.0376 -0.6546
   54MOL   C14619332   2.315   0.827   3.290  0.3448  0.6386  0.3025
   54MOL   C14719333   2.431   0.914   3.358 -0.3854  0.0314 -0.3081
   54MOL   C14819334   2.499   0.826   3.467 -0.3736  0.3703  0.4108
   54MOL   O14919335   2.610   0.777   3.453  0.3215  0.1197  0.4908
   54MOL   O15019336   2.416   0.803   3.575  0.4961 -0.2408 -0.0605
   54MOL   C15119337   2.476   0.739   3.693  0.1958 -0.5149  0.5515
   54MOL   C15219338   2.387   0.739   3.821  0.2538 -0.5645 -0.3098
   54MOL   C15319339   2.272   0.637   3.803 -0.4693 -0.1125  0.4108
   54MOL   H15419340   2.363   0.743   3.240  0.5341  0.5019  0.7133
   54MOL   H15519341   2.248   0.792   3.368 -0.1709  1.7011  0.3493
   54MOL   H15619342   2.386   1.000   3.408  2.2856  1.2378  0.0773
   54MOL   H15719343   2.504   0.634   3.680  0.7088 -0.6055  2.2364
   54MOL   H15819344   2.573   0.788   3.707 -0.9273  2.1638 -0.6854
   54MOL   H15919345   2.464   0.711   3.893  1.3352  0.8457 -0.8940
   54MOL   H16019346   2.351   0.839   3.846  0.4972 -0.4186 -0.5445
   54MOL   H16119347   2.217   0.650   3.709  1.0593  1.0323 -0.3442
   54MOL   H16219348   2.199   0.659   3.880 -0.8330 -0.4755  0.1726
   54MOL   H16319349   2.306   0.534   3.809 -0.7871 -0.0878  2.9717
   54MOL   C16419350   2.538   0.970   3.259 -0.1476 -0.2925  0.1773
   54MOL   C16519351   2.631   1.078   3.314 -0.2332  0.2134 -0.1994
   54MOL   C16619352   2.770   1.092   3.238  0.0221 -0.3426 -0.1170
   54MOL   O16719353   2.810   1.196   3.197 -0.2091  0.3729 -0.1122
   54MOL   O16819354   2.843   0.981   3.223  0.0273  0.0918  0.0094
   54MOL   C16919355   2.977   0.988   3.179  0.7913  0.4198  0.8943
   54MOL   C17019356   2.976   0.904   3.051  0.4012  0.3129  0.5582
   54MOL   C17119357   2.882   0.948   2.938 -0.0770  0.6796 -0.3628
   54MOL   H17219358   2.481   1.009   3.174 -0.5980 -0.9516  0.1673
   54MOL   H17319359   2.590   0.884   3.217 -0.5400 -1.4593  2.0402
   54MOL   H17419360   2.659   1.048   3.415 -0.5676 -0.7917 -0.3940
   54MOL   H17519361   3.014   1.090   3.168 -2.5483  1.6527  0.5968
   54MOL   H17619362   3.033   0.951   3.265  2.1924  1.9808  0.6861
   54MOL   H17719363   3.075   0.898   3.006  1.9592 -1.7104  3.9839
   54MOL   H17819364   2.955   0.801   3.082 -0.2737  0.2919  0.0386
   54MOL   H17919365   2.896   1.053   2.913 -0.8897  1.1645  1.2140
   54MOL   H18019366   2.775   0.944   2.956  0.4319 -0.6032  2.5773
   54MOL   H18119367   2.910   0.892   2.848 -0.3473  2.0191 -1.2918
   54MOL   C18219368   2.552   1.213   3.329  0.5059  0.2173  0.0966
   54MOL   C18319369   2.549   1.287   3.467 -1.0772 -0.0850 -0.7617
   54MOL   C18419370   2.507   1.201   3.588  0.3469 -0.3211 -0.6020
   54MOL   O18519371   2.580   1.172   3.682  0.1525 -0.2082 -0.1167
   54MOL   O18619372   2.376   1.159   3.581 -0.8019 -0.1546 -0.0130
   54MOL   C18719373   2.307   1.106   3.691  0.1314 -0.2228 -0.3491
   54MOL   C18819374   2.287   1.194   3.820 -0.1129  0.5320  0.0171
   54MOL   C18919375   2.183   1.137   3.914  0.0829  0.2088  0.8609
   54MOL   H19019376   2.454   1.191   3.287  0.5545 -0.1968  0.1904
   54MOL   H19119377   2.592   1.289   3.262  1.3355  1.1050  1.5813
   54MOL   H19219378   2.485   1.373   3.445  2.0699  2.5800  0.0230
   54MOL   H19319379   2.209   1.073   3.658  0.7497 -2.3107 -0.1190
   54MOL   H19419380   2.377   1.028   3.718  1.9404  1.9477  1.4493
   54MOL   H19519381   2.379   1.207   3.878  1.5989 -0.3920 -2.4011
   54MOL   H19619382   2.252   1.292   3.789  0.7432  0.7408 -0.3055
   54MOL   H19719383   2.085   1.136   3.867  0.2627  1.9387  0.4340
   54MOL   H19819384   2.185   1.186   4.011 -1.3604  1.6602  0.1678
   54MOL   H19919385   2.194   1.030   3.936 -0.7131 -0.0674 -0.0438
   54MOL   C20019386   2.696   1.354   3.486  0.3119 -0.2035  0.3496
   54MOL   C20119387   2.721   1.505   3.446  0.1732  0.5359  0.0968
   54MOL   C20219388   2.622   1.593   3.524 -0.4128  0.2173 -0.3517
   54MOL   O20319389   2.528   1.644   3.465 -0.3288  0.2057 -0.3271
   54MOL   O20419390   2.644   1.597   3.659 -0.1743 -0.6332  0.1654
   54MOL   C20519391   2.566   1.678   3.741  0.0841 -0.8168 -0.8710
   54MOL   C20619392   2.609   1.632   3.884 -0.4130 -0.1728  0.1710
   54MOL   C20719393   2.533   1.505   3.928  0.3471  0.2447 -0.1904
   54MOL   H20819394   2.782   1.294   3.456  1.9829  1.2213  2.1886
   54MOL   H20919395   2.720   1.347   3.592  2.2318  2.4476  0.1237
   54MOL   H21019396   2.690   1.515   3.342 -0.9542 -1.2370  0.2410
   54MOL   H21119397   2.581   1.784   3.718 -1.3046 -0.4955 -0.3898
   54MOL   H21219398   2.459   1.659   3.732 -0.1124 -0.2876  0.2370
   54MOL   H21319399   2.717   1.620   3.887 -0.5994 -2.1425  0.0196
   54MOL   H21419400   2.578   1.701   3.962  0.3478 -1.8538  2.0082
   54MOL   H21519401   2.427   1.529   3.920  0.2739  0.5135  1.4541
   54MOL   H21619402   2.548   1.474   4.031  2.0395 -1.0296 -0.7834
   54MOL   H21719403   2.551   1.424   3.857  0.0587 -0.8692  0.9899
   54MOL   C21819404   2.867   1.554   3.458  0.1066 -0.4151 -0.2547
   54MOL   C21919405   2.961   1.513   3.335  0.8254 -0.0192 -0.7029
   54MOL   C22019406   2.947   1.605   3.212  1.4744 -0.0769 -0.3336
   54MOL   O22119407   2.886   1.706   3.222 -0.5364  0.2017 -0.0929
   54MOL   O22219408   3.018   1.567   3.106 -0.3127 -0.0170 -0.0913
   54MOL   C22319409   3.000   1.624   2.978  0.2572 -0.5337  1.2369
   54MOL   C22419410   2.891   1.553   2.901 -0.3088  0.2255 -0.0854
   54MOL   C22519411   2.938   1.411   2.865 -0.5876  0.9059  0.2292
   54MOL   H22619412   2.890   1.510   3.555  1.3650  0.9837  0.0939
   54MOL   H22719413   2.868   1.659   3.486 -1.7511 -0.0346 -1.5372
   54MOL   H22819414   2.935   1.418   3.288  0.8436  0.2257 -1.2151
   54MOL   H22919415   2.986   1.731   2.994  0.0208 -0.6875  2.0922
   54MOL   H23019416   3.092   1.620   2.920 -0.1273  0.9141  0.5201
   54MOL   H23119417   2.797   1.542   2.955  0.1732 -2.9391  0.1985
   54MOL   H23219418   2.868   1.620   2.818 -1.6912 -0.1484 -0.0170
   54MOL   H23319419   2.921   1.337   2.943  0.6414  0.8482  0.4548
   54MOL   H23419420   3.045   1.405   2.846 -0.7372 -3.1975  0.2817
   54MOL   H23519421   2.879   1.378   2.780  1.9852 -0.7989 -0.9485
   54MOL   C23619422   3.114   1.522   3.373  0.8405 -0.0606  0.2210
   54MOL   C23719423   3.166   1.433   3.491 -0.6299 -0.4080  0.2858
   54MOL   C23819424   3.146   1.284   3.461 -0.4241 -0.2050  0.0435
   54MOL   O23919425   3.138   1.236   3.353 -0.5911 -0.1643  0.3880
   54MOL   O24019426   3.120   1.209   3.573  0.1638  0.1318 -0.5987
   54MOL   C24119427   3.083   1.066   3.566  0.2377 -0.1202  0.9268
   54MOL   C24219428   2.965   1.034   3.650 -0.3868 -0.5698 -0.2068
   54MOL   C24319429   2.927   0.887   3.646 -0.5149  0.5900  0.1301
   54MOL   H24419430   3.122   1.630   3.386  1.3339 -0.3774  2.9825
   54MOL   H24519431   3.175   1.500   3.286  0.9705 -0.6935  0.4684
   54MOL   H24619432   3.107   1.453   3.580 -1.8138 -0.3572 -0.4819
   54MOL   H24719433   3.065   1.041   3.462 -0.1677 -2.8362  1.5999
   54MOL   H24819434   3.168   1.009   3.605  3.3487  1.6873 -2.8473
   54MOL   H24919435   2.992   1.058   3.753 -2.0027  0.8633 -0.1049
   54MOL   H25019436   2.883   1.104   3.635 -0.6047 -0.5251  1.0899
   54MOL   H25119437   3.008   0.825   3.685 -1.2730  0.3140  1.2960
   54MOL   H25219438   2.887   0.850   3.552 -1.8310  2.2064  0.0308
   54MOL   H25319439   2.847   0.876   3.720 -1.0782  0.2702 -0.5266
   54MOL   C25419440   3.310   1.473   3.515  0.2905  0.2201 -0.5176
   54MOL   C25519441   3.368   1.418   3.653 -0.0412 -0.3424 -0.8988
   54MOL   C25619442   3.498   1.341   3.632  0.5116  0.0608  0.2281
   54MOL   O25719443   3.492   1.216   3.641 -0.5166  0.0744  0.6179
   54MOL   O25819444   3.604   1.411   3.589 -0.2360  0.1808  0.0838
   54MOL   C25919445   3.730   1.355   3.585 -0.7200 -0.1439 -0.3666
   54MOL   C26019446   3.835   1.432   3.668 -0.0280  0.6421  0.0821
   54MOL   C26119447   3.847   1.573   3.630 -0.8028  0.8774  0.8194
   54MOL   H26219448   3.321   1.580   3.497  0.4723 -0.0793 -2.3395
   54MOL   H26319449   3.361   1.428   3.429  0.7179  0.8658 -0.6084
   54MOL   H26419450   3.296   1.352   3.701  0.3382  0.4520  0.8140
   54MOL   H26519451   3.728   1.258   3.633  0.4313 -0.3182 -0.6574
   54MOL   H26619452   3.761   1.350   3.480  0.2825 -0.9141 -0.0371
   54MOL   H26719453   3.801   1.431   3.772  0.5840 -0.1242  0.2846
   54MOL   H26819454   3.932   1.383   3.670 -1.0545 -1.5256 -1.0884
   54MOL   H26919455   3.772   1.635   3.680 -1.5423 -0.0472  0.8699
   54MOL   H27019456   3.835   1.582   3.522 -2.1575  0.4727  0.9303
   54MOL   H27119457   3.945   1.610   3.661  0.3389 -0.3064 -1.2990
   54MOL   C27219458   3.384   1.529   3.753  0.1796  0.4617  0.7965
   54MOL   C27319459   3.262   1.622   3.781 -0.4384 -0.6963  0.1225
   54MOL   C27419460   3.133   1.545   3.824  0.5211 -0.4686  0.1244
   54MOL   O27519461   3.023   1.572   3.772 -0.0177  0.7122 -0.0234
   54MOL   O27619462   3.147   1.459   3.925  0.2793  0.4918 -0.6965
   54MOL   C27719463   3.035   1.410   3.994 -0.1073 -0.2156  0.0113
   54MOL   C27819464   3.003   1.262   3.965  0.1654  0.3961 -0.0147
   54MOL   C27919465   3.113   1.176   4.021  0.2707 -0.3837 -0.1818
   54MOL   H28019466   3.465   1.588   3.710 -0.1101 -1.6359 -2.8433
   54MOL   H28119467   3.414   1.488   3.850 -0.8534  1.0831  1.3855
   54MOL   H28219468   3.254   1.679   3.689  0.7592 -1.1966 -0.3027
   54MOL   H28319469   3.061   1.421   4.100  3.0452  1.3550 -0.8650
   54MOL   H28419470   2.953   1.481   3.983  1.0983  0.9678 -1.3945
   54MOL   H28519471   2.904   1.224   3.993 -0.9073  1.9346 -1.5645
   54MOL   H28619472   3.001   1.255   3.856 -1.7992  0.9690 -0.0419
   54MOL   H28719473   3.211   1.211   3.988  0.7836 -0.6236  1.0755
   54MOL   H28819474   3.106   1.078   3.975 -0.4697 -0.3067 -0.2467
   54MOL   H28919475   3.105   1.166   4.129 -1.1184  0.5048 -0.1804
   54MOL   C29019476   3.300   1.734   3.889 -0.2198  1.4648  0.3654
   54MOL   C29119477   3.244   1.878   3.857  0.3219 -0.5285 -0.1575
   54MOL   C29219478   3.286   1.972   3.972  0.1942  0.4723  0.3066
   54MOL   O29319479   3.384   1.939   4.039  0.2173  0.2251 -0.4392
   54MOL   O29419480   3.203   2.080   4.000  0.1661  0.2389  0.2301
   54MOL   C29519481   3.229   2.173   4.112 -0.6708 -1.3793  0.1944
   54MOL   C29619482   3.322   2.294   4.071  0.4054 -0.1454  0.3094
   54MOL   C29719483   3.347   2.389   4.190 -0.3407  0.1549 -0.2591
   54MOL   H29819484   3.408   1.747   3.883  0.1704 -1.2152  0.9709
   54MOL   H29919485   3.294   1.717   3.997 -0.0068 -0.5154  0.0812
   54MOL   H30019486   3.137   1.889   3.879  1.1367  3.2522  2.4986
   54MOL   H30119487   3.136   2.224   4.138 -0.4059 -0.8761  0.1725
   54MOL   H30219488   3.271   2.118   4.195  0.7917 -0.6860 -0.0625
   54MOL   H30319489   3.421   2.266   4.034 -0.2627  0.4782 -2.0498
   54MOL   H30419490   3.276   2.355   3.993  0.6357  0.1674  0.4154
   54MOL   H30519491   3.254   2.438   4.219 -0.7008  0.3589 -1.6955
   54MOL   H30619492   3.422   2.465   4.168 -0.5227  0.8271  1.3974
   54MOL   H30719493   3.394   2.323   4.263  0.3996 -1.3347 -2.0429
   54MOL   C30819494   3.262   1.928   3.721 -0.4441  0.3754  0.0821
   54MOL   C30919495   3.129   1.912   3.635  0.0369 -0.8212  0.1965
   54MOL   C31019496   3.010   2.004   3.680  0.4666 -0.2670 -0.2891
   54MOL   O31119497   2.893   1.959   3.688  0.0803 -0.1410 -0.1882
   54MOL   O31219498   3.046   2.136   3.692 -0.2318 -0.2668  0.1408
   54MOL   C31319499   2.960   2.227   3.761  0.0830 -0.3766  0.2010
   54MOL   C31419500   3.031   2.357   3.766  0.2157  0.2705  0.5848
   54MOL   C31519501   3.059   2.414   3.624 -0.8593 -0.6499  0.4678
   54MOL   H31619502   3.352   1.882   3.679 -0.4723 -1.3873  1.8697
   54MOL   H31719503   3.284   2.035   3.718 -0.7852  0.4605  0.6082
   54MOL   H31819504   3.094   1.810   3.644 -0.5362 -0.7104 -0.7088
   54MOL   H31919505   2.865   2.232   3.708  0.2200 -0.5089 -0.0559
   54MOL   H32019506   2.956   2.185   3.862  0.1737 -2.1644 -0.5206
   54MOL   H32119507   2.969   2.429   3.820  1.2151  2.1445 -0.7140
   54MOL   H32219508   3.128   2.357   3.815  0.3014  1.1683  0.4228
   54MOL   H32319509   3.057   2.349   3.536  0.0457 -0.2438  0.1376
   54MOL   H32419510   2.995   2.493   3.585  0.2413  0.7326  1.4248
   54MOL   H32519511   3.157   2.462   3.626 -0.6247 -1.0348 -0.7730
   54MOL   C32619512   3.155   1.919   3.484 -0.3525 -0.2139  0.1088
   54MOL   C32719513   3.197   2.053   3.415 -1.1574  0.3841 -0.3925
   54MOL   C32819514   3.343   2.097   3.445 -0.1408 -0.2958 -0.4152
   54MOL   O32919515   3.369   2.217   3.476 -0.1200 -0.1764 -0.1975
   54MOL   O33019516   3.434   1.999   3.420  0.3939 -0.0901  0.1748
   54MOL   C33119517   3.573   2.025   3.439 -0.3513  0.4760  0.1820
   54MOL   C33219518   3.633   1.969   3.571 -0.1673 -0.3315 -0.0566
   54MOL   C33319519   3.777   1.999   3.597  0.2200  0.1097 -0.1685
   54MOL   H33419520   3.074   1.872   3.430  0.1856  0.1732 -1.0552
   54MOL   H33519521   3.235   1.853   3.452  0.4689  0.8698 -0.1401
   54MOL   H33619522   3.135   2.131   3.459  1.3633  1.7682  0.8430
   54MOL   H33719523   3.619   1.967   3.359 -1.4458 -0.0482 -0.0717
   54MOL   H33819524   3.592   2.132   3.428 -0.6841  0.3601 -1.6012
   54MOL   H33919525   3.576   2.016   3.652  1.1049  0.6904  0.2589
   54MOL   H34019526   3.619   1.860   3.571 -1.3089 -0.2475  2.7993
   54MOL   H34119527   3.846   1.986   3.514  0.6042 -1.8160  0.4325
   54MOL   H34219528   3.794   2.097   3.642 -1.4531 -1.1457  3.4115
   54MOL   H34319529   3.824   1.933   3.670  2.3709  1.3823 -0.3334
   54MOL   C34419530   3.173   2.063   3.261 -0.3762  0.4042  0.6406
   54MOL   C34519531   3.022   2.048   3.226  0.5675  0.6127 -0.4800
   54MOL   C34619532   2.995   2.104   3.089  0.5193  0.1383  0.3710
   54MOL   O34719533   3.048   2.202   3.042 -0.4668  0.5028 -0.4929
   54MOL   O34819534   2.901   2.029   3.024  0.0514  0.1351 -0.3948
   54MOL   C34919535   2.827   2.080   2.908 -0.0975  0.6046 -0.1041
   54MOL   C35019536   2.741   1.973   2.837  0.8364 -1.1887  0.2627
   54MOL   C35119537   2.664   2.038   2.723  0.6364  0.1650  0.4689
   54MOL   H35219538   3.224   1.983   3.208 -0.6133 -0.0085  1.0374
   54MOL   H35319539   3.216   2.157   3.226 -2.3292 -0.2619 -3.8957
   54MOL   H35419540   2.956   2.101   3.294  0.6296  2.6390 -1.9430
   54MOL   H35519541   2.754   2.157   2.931  1.6126  1.8963  1.0710
   54MOL   H35619542   2.902   2.127   2.845 -2.8318  2.7267 -1.8517
   54MOL   H35719543   2.800   1.890   2.797 -0.4883 -0.7454 -2.7665
   54MOL   H35819544   2.672   1.932   2.910  1.4517  2.3984  2.9750
   54MOL   H35919545   2.598   2.120   2.753 -0.6591 -0.3391 -0.9244
   54MOL   H36019546   2.736   2.075   2.650  3.9918 -0.6605  3.2062
   54MOL   H36119547   2.597   1.964   2.679 -0.4430 -0.4307  3.0185
   54MOL   H36219548   2.998   1.942   3.236  1.4100  0.4603 -0.0231
   55MOL     C119549   1.910   6.706   0.101 -0.0491  0.3189 -0.0877
   55MOL     C219550   1.911   6.554   0.077 -0.1722 -0.6853  0.2206
   55MOL     C319551   2.043   6.518   0.009 -0.2704  0.3543 -0.1688
   55MOL     O419552   2.153   6.522   0.054  0.8456  0.1449 -0.7875
   55MOL     O519553   2.022   6.456   7.779  1.0120  0.8465  0.2325
   55MOL     C619554   2.123   6.382   7.701 -0.0674  0.3064  0.3656
   55MOL     C719555   2.053   6.255   7.650  0.4505 -0.0366 -0.3708
   55MOL     C819556   1.955   6.288   7.533  0.0228 -0.0612 -0.2591
   55MOL     H919557   1.968   6.740   0.187 -2.8248  0.3268  1.8337
   55MOL    H1019558   1.940   6.766   0.015 -0.1600 -0.9584 -1.0200
   55MOL    H1119559   1.829   6.537   0.008 -1.3339  4.1642  0.2280
   55MOL    H1219560   2.159   6.448   7.622  1.3825 -2.1400 -1.0609
   55MOL    H1319561   2.207   6.354   7.765 -0.4226 -1.4105  0.1114
   55MOL    H1419562   2.132   6.190   7.613 -1.1204 -3.2994  1.7245
   55MOL    H1519563   2.005   6.200   7.731  2.0004 -0.1687  0.4867
   55MOL    H1619564   1.870   6.350   7.564 -0.8490 -0.6258 -1.4913
   55MOL    H1719565   2.014   6.335   7.454  1.2556  0.5401  1.0112
   55MOL    H1819566   1.908   6.198   7.493 -1.5903  0.5343  0.2544
   55MOL    H1919567   1.808   6.734   0.127 -0.5971 -0.3498 -1.4721
   55MOL    C2019568   1.877   6.473   0.194  0.3801  0.2409  0.1997
   55MOL    C2119569   1.723   6.466   0.225  0.7022  0.5026 -0.5082
   55MOL    C2219570   1.642   6.401   0.112  0.2953 -0.6021 -0.1200
   55MOL    O2319571   1.583   6.468   0.029  0.5352  0.3654 -0.0057
   55MOL    O2419572   1.658   6.274   0.099 -0.0020  0.5469  0.3201
   55MOL    C2519573   1.566   6.197   0.012 -0.2900 -0.2628 -0.1439
   55MOL    C2619574   1.606   6.058   7.877  0.7689  0.8673 -1.0091
   55MOL    C2719575   1.596   5.981   0.129  0.3871 -0.4243 -0.2014
   55MOL    H2819576   1.925   6.513   0.284  0.0973 -3.0219  1.8932
   55MOL    H2919577   1.907   6.370   0.173  0.2710 -0.0694  1.5151
   55MOL    H3019578   1.682   6.565   0.243  0.9284  0.7471 -1.3106
   55MOL    H3119579   1.465   6.208   0.050  0.9426  0.9592  2.9513
   55MOL    H3219580   1.578   6.249   7.797  0.7933  1.2922  0.7986
   55MOL    H3319581   1.528   6.013   7.816  0.0212  0.6934  0.0608
   55MOL    H3419582   1.707   6.055   7.834  0.9828 -2.4948 -0.4688
   55MOL    H3519583   1.601   5.873   0.114  1.2285 -0.2937 -0.8322
   55MOL    H3619584   1.500   6.007   0.174 -0.3270 -1.0354 -1.3587
   55MOL    H3719585   1.670   6.008   0.204 -1.2672  2.2150  0.5512
   55MOL    C3819586   1.702   6.395   0.358 -0.4013 -0.1033  0.3138
   55MOL    C3919587   1.732   6.473   0.482 -0.6967  0.1299 -0.6221
   55MOL    C4019588   1.688   6.620   0.487  0.2377 -0.3997 -0.4910
   55MOL    O4119589   1.766   6.717   0.485 -0.2841  1.0067  0.6674
   55MOL    O4219590   1.554   6.634   0.495  0.2592 -0.2581 -0.1793
   55MOL    C4319591   1.487   6.750   0.465  0.0552 -0.3544 -0.2847
   55MOL    C4419592   1.479   6.838   0.588 -0.3947 -0.3285 -0.2183
   55MOL    C4519593   1.397   6.968   0.571 -0.1663  0.4102 -0.1756
   55MOL    H4619594   1.755   6.300   0.356 -2.1610 -1.1268  0.5899
   55MOL    H4719595   1.594   6.383   0.370 -0.2339 -0.9361  1.0364
   55MOL    H4819596   1.840   6.483   0.490 -0.4886 -1.6423 -0.9502
   55MOL    H4919597   1.546   6.792   0.384  0.1645 -0.6638 -0.3663
   55MOL    H5019598   1.384   6.736   0.432  0.1218 -0.0394 -0.6270
   55MOL    H5119599   1.431   6.779   0.666 -0.3018  0.0580  0.1305
   55MOL    H5219600   1.580   6.857   0.622 -0.6743  1.2586 -0.2052
   55MOL    H5319601   1.450   7.032   0.500  1.5301 -1.4843 -0.6685
   55MOL    H5419602   1.378   7.011   0.669 -0.0305 -2.0454  0.9527
   55MOL    H5519603   1.297   6.950   0.530 -1.2134  1.0309  2.0010
   55MOL    C5619604   1.685   6.400   0.611  0.2893  0.7024  0.7307
   55MOL    C5719605   1.788   6.292   0.660  0.8135 -0.1550 -0.5995
   55MOL    C5819606   1.923   6.361   0.702  0.1339 -0.6346 -0.2537
   55MOL    O5919607   1.937   6.477   0.748  0.8303  0.4603  0.1852
   55MOL    O6019608   2.027   6.272   0.680  0.3288  0.2726 -0.2660
   55MOL    C6119609   2.165   6.310   0.697 -0.1202  0.1881  0.0798
   55MOL    C6219610   2.214   6.393   0.577 -0.1952  0.4575 -0.0591
   55MOL    C6319611   2.188   6.337   0.432 -0.0045 -0.2361 -0.3219
   55MOL    H6419612   1.591   6.347   0.596 -0.1696  2.0278 -1.3479
   55MOL    H6519613   1.663   6.462   0.698  0.3115 -0.7067  1.7447
   55MOL    H6619614   1.814   6.227   0.576 -3.3108 -2.1798 -0.4476
   55MOL    H6719615   2.157   6.359   0.794  0.1022 -1.0210  0.7303
   55MOL    H6819616   2.215   6.213   0.703  1.2982  0.9675  1.1561
   55MOL    H6919617   2.165   6.490   0.573  0.5152  0.7616 -1.8957
   55MOL    H7019618   2.321   6.410   0.589  0.1982 -0.4273 -2.0408
   55MOL    H7119619   2.224   6.235   0.426 -1.0557 -0.6808  0.7974
   55MOL    H7219620   2.236   6.389   0.349  2.3139  0.9845  1.7120
   55MOL    H7319621   2.080   6.334   0.421 -0.1621 -1.0351  1.2574
   55MOL    C7419622   1.751   6.195   0.777  0.4953  0.0833  0.2711
   55MOL    C7519623   1.640   6.091   0.748 -0.3432  0.1400  0.4715
   55MOL    C7619624   1.671   6.000   0.631 -0.3404  0.0864 -0.8606
   55MOL    O7719625   1.603   5.997   0.530  0.1287  0.2541  0.2486
   55MOL    O7819626   1.781   5.921   0.648 -0.0380  0.0753 -0.1325
   55MOL    C7919627   1.828   5.835   0.544 -0.2407  1.6754  0.1700
   55MOL    C8019628   1.887   5.912   0.416 -0.5468 -0.7255 -0.2386
   55MOL    C8119629   2.038   5.917   0.402 -0.2749  0.1063  0.3133
   55MOL    H8219630   1.719   6.249   0.866 -0.7624 -0.9428  0.4591
   55MOL    H8319631   1.840   6.137   0.800 -1.3796 -2.4176  1.5118
   55MOL    H8419632   1.555   6.155   0.726 -0.8728 -0.3959  0.9416
   55MOL    H8519633   1.904   5.771   0.589 -0.6772  0.8508 -0.2503
   55MOL    H8619634   1.746   5.772   0.510  1.3179  0.7597 -2.0212
   55MOL    H8719635   1.854   5.869   0.322  0.7283  0.8080 -1.4099
   55MOL    H8819636   1.845   6.012   0.401 -3.5843 -1.9608 -0.4357
   55MOL    H8919637   2.072   5.891   0.302 -2.0970 -0.2196 -0.2366
   55MOL    H9019638   2.089   5.853   0.475 -1.3170 -0.0078  0.9478
   55MOL    H9119639   2.071   6.019   0.424 -0.6470 -0.2166  2.5570
   55MOL    C9219640   1.609   6.015   0.874  0.0217 -0.3999  0.0668
   55MOL    C9319641   1.466   6.015   0.932  0.1271 -0.2549 -0.0421
   55MOL    C9419642   1.362   5.940   0.842 -0.6993 -0.6748 -0.5182
   55MOL    O9519643   1.316   5.999   0.743 -0.1955  0.1323  0.0065
   55MOL    O9619644   1.326   5.818   0.886 -0.2447  0.1656  0.5397
   55MOL    C9719645   1.241   5.728   0.817  0.1477 -0.4721  0.1597
   55MOL    C9819646   1.224   5.608   0.905  0.2345  0.1520 -0.0322
   55MOL    C9919647   1.330   5.492   0.918  0.0389 -0.2168 -0.1039
   55MOL   H10019648   1.672   6.052   0.955 -0.6822 -1.3897  1.0860
   55MOL   H10119649   1.653   5.915   0.873 -0.8860 -0.8002 -0.4544
   55MOL   H10219650   1.435   6.119   0.930  1.7285  0.2332 -0.9869
   55MOL   H10319651   1.147   5.778   0.793  0.7875  0.4873 -0.4046
   55MOL   H10419652   1.286   5.703   0.721  2.0561  0.9586  0.6440
   55MOL   H10519653   1.210   5.632   1.011 -0.5863 -1.7132  0.3019
   55MOL   H10619654   1.127   5.570   0.873 -0.6094  1.7878  0.5423
   55MOL   H10719655   1.356   5.437   0.828  1.1919 -1.6426  1.0610
   55MOL   H10819656   1.297   5.416   0.990 -0.6081  0.3805  0.2386
   55MOL   H10919657   1.430   5.523   0.947 -0.7398  1.3786  0.9741
   55MOL   C11019658   1.460   5.972   1.081 -0.0485  0.1674  0.2238
   55MOL   C11119659   1.558   6.043   1.187 -0.6671  0.2067 -0.3267
   55MOL   C11219660   1.542   6.198   1.188  0.1605  0.1386 -0.2459
   55MOL   O11319661   1.636   6.275   1.162  0.4345 -0.1979 -0.1309
   55MOL   O11419662   1.421   6.239   1.224 -0.1259  0.2693  0.8858
   55MOL   C11519663   1.402   6.382   1.255 -0.3350 -1.2962  0.7739
   55MOL   C11619664   1.452   6.422   1.394  0.3776  0.5771  0.0182
   55MOL   C11719665   1.427   6.574   1.409  0.8780 -0.2128 -1.2540
   55MOL   H11819666   1.488   5.866   1.085  2.3736  0.7119 -1.2416
   55MOL   H11919667   1.356   5.989   1.110 -0.1573  0.8493 -0.5580
   55MOL   H12019668   1.663   6.033   1.162 -0.6349 -2.8680  0.7310
   55MOL   H12119669   1.457   6.442   1.183 -0.8536  1.4011  2.5508
   55MOL   H12219670   1.299   6.412   1.237  1.1912  4.1328  0.1130
   55MOL   H12319671   1.412   6.362   1.476 -1.6654 -1.5655 -2.4332
   55MOL   H12419672   1.560   6.404   1.395  0.4592  0.4938 -3.3156
   55MOL   H12519673   1.495   6.601   1.490 -0.0065 -1.4539 -0.0538
   55MOL   H12619674   1.325   6.598   1.441  0.9319 -2.5521  0.8440
   55MOL   H12719675   1.462   6.637   1.328  0.2507  3.0523  0.8957
   55MOL   C12819676   1.545   5.981   1.333 -0.2133 -0.0648  0.4950
   55MOL   C12919677   1.678   5.920   1.396 -0.5204 -0.7474  0.6477
   55MOL   C13019678   1.770   6.032   1.451 -0.3442 -0.2733 -0.6954
   55MOL   O13119679   1.718   6.127   1.497 -0.3922  0.2046  0.5673
   55MOL   O13219680   1.899   5.997   1.455  0.0675 -0.2205  0.2452
   55MOL   C13319681   1.993   6.077   1.526 -0.0132 -0.2885 -0.7921
   55MOL   C13419682   2.121   6.006   1.526 -0.4395 -0.4497 -0.0590
   55MOL   C13519683   2.226   6.079   1.603 -0.4060  0.2941 -0.7665
   55MOL   H13619684   1.470   5.902   1.331  0.1774 -0.3973 -1.3404
   55MOL   H13719685   1.503   6.061   1.395  0.5840  0.6640  0.1001
   55MOL   H13819686   1.735   5.872   1.317  0.5951  0.0446  0.9504
   55MOL   H13919687   1.984   6.181   1.495 -0.6044 -0.3176 -0.7328
   55MOL   H14019688   1.955   6.066   1.628  0.8797  0.8060 -0.3290
   55MOL   H14119689   2.092   5.912   1.572 -2.7062  0.6290  0.7827
   55MOL   H14219690   2.169   5.984   1.431 -0.1812  0.4557 -0.1423
   55MOL   H14319691   2.237   6.183   1.571  0.8290  1.0027  1.8371
   55MOL   H14419692   2.321   6.027   1.592 -0.1505  0.1089  1.9409
   55MOL   H14519693   2.207   6.082   1.710 -2.5169 -0.0043 -1.1048
   55MOL   C14619694   1.664   5.805   1.490 -0.2217  0.0747 -0.2629
   55MOL   C14719695   1.596   5.675   1.426 -0.3317 -0.2573  0.8025
   55MOL   C14819696   1.686   5.612   1.318 -0.1453 -0.0516  0.0116
   55MOL   O14919697   1.658   5.621   1.199  0.5130 -0.0096 -0.4249
   55MOL   O15019698   1.800   5.565   1.371  0.1758  0.0210 -0.3424
   55MOL   C15119699   1.913   5.537   1.287 -0.3936 -0.3922  0.3493
   55MOL   C15219700   2.050   5.528   1.365 -0.0154 -0.9165 -0.6555
   55MOL   C15319701   2.109   5.664   1.401  1.0005  0.1326 -0.2169
   55MOL   H15419702   1.581   5.820   1.560 -0.1256  1.4220 -0.4312
   55MOL   H15519703   1.756   5.783   1.543  0.0786  1.3576 -0.2421
   55MOL   H15619704   1.512   5.718   1.372  1.0189  0.3578 -0.8396
   55MOL   H15719705   1.888   5.436   1.256 -2.3282  0.2336 -0.2151
   55MOL   H15819706   1.922   5.599   1.198 -1.2119 -1.5226 -0.5175
   55MOL   H15919707   2.043   5.473   1.459  0.9935 -2.0362 -1.2246
   55MOL   H16019708   2.118   5.472   1.302 -0.7476 -0.6114 -1.7265
   55MOL   H16119709   2.038   5.738   1.438  0.9633 -0.5906  1.2125
   55MOL   H16219710   2.145   5.708   1.308  0.3506 -0.3019 -0.6704
   55MOL   H16319711   2.189   5.657   1.475  1.0878 -0.9912 -0.4141
   55MOL   C16419712   1.547   5.572   1.530 -0.0836  0.2705  0.6887
   55MOL   C16519713   1.416   5.495   1.496  0.3616  0.0007 -0.2676
   55MOL   C16619714   1.407   5.444   1.357  0.7766 -0.1560 -0.3603
   55MOL   O16719715   1.342   5.507   1.273 -0.3639  0.0687 -0.5134
   55MOL   O16819716   1.496   5.347   1.330  0.3695  0.2941 -0.8869
   55MOL   C16919717   1.523   5.300   1.198  0.5237 -0.4159 -0.4688
   55MOL   C17019718   1.657   5.234   1.209  0.0951  0.0102  0.0241
   55MOL   C17119719   1.688   5.163   1.082  0.0897  0.9762  0.7657
   55MOL   H17219720   1.547   5.612   1.631 -0.6922  1.1162  0.3610
   55MOL   H17319721   1.626   5.497   1.532 -0.2148 -0.0984 -3.1819
   55MOL   H17419722   1.339   5.572   1.497  2.3746  2.0919  2.7637
   55MOL   H17519723   1.444   5.237   1.158 -1.8440  1.9160  0.3622
   55MOL   H17619724   1.506   5.382   1.127  1.0896  2.3190  2.4360
   55MOL   H17719725   1.736   5.299   1.246 -0.4310  0.7826 -0.2019
   55MOL   H17819726   1.656   5.147   1.275 -0.4494  0.9742  1.3005
   55MOL   H17919727   1.607   5.098   1.049  0.0574  1.6425 -0.4910
   55MOL   H18019728   1.772   5.093   1.086 -0.6238 -0.1484 -2.4709
   55MOL   H18119729   1.708   5.232   1.001  0.8727  0.8435  0.8370
   55MOL   C18219730   1.383   5.397   1.610  0.5354 -0.1897 -0.5857
   55MOL   C18319731   1.437   5.248   1.613  0.5930  0.7494  0.0191
   55MOL   C18419732   1.587   5.231   1.594 -0.4822 -0.3571 -0.6762
   55MOL   O18519733   1.638   5.151   1.513  0.4851  0.5416  0.6912
   55MOL   O18619734   1.661   5.318   1.659  0.2101  0.0339  0.1406
   55MOL   C18719735   1.800   5.326   1.637 -0.6854 -0.0972 -0.2015
   55MOL   C18819736   1.882   5.417   1.739 -0.0836 -0.1076  1.1977
   55MOL   C18919737   1.851   5.562   1.728 -0.7449 -0.5867 -0.2044
   55MOL   H19019738   1.277   5.379   1.590  0.7559 -2.3000  0.0016
   55MOL   H19119739   1.383   5.446   1.707  2.3461  2.1415 -1.7457
   55MOL   H19219740   1.386   5.191   1.534 -1.2343  0.1767  1.5896
   55MOL   H19319741   1.840   5.226   1.651 -0.4365  0.1997  1.3876
   55MOL   H19419742   1.835   5.357   1.539  0.6560  0.4189  0.4170
   55MOL   H19519743   1.866   5.377   1.839  0.6654 -0.9582  0.9841
   55MOL   H19619744   1.987   5.392   1.723 -0.0130  1.5985 -1.3158
   55MOL   H19719745   1.913   5.609   1.804 -0.9674 -0.0178 -0.3668
   55MOL   H19819746   1.753   5.582   1.772  0.5169  0.5071  2.1722
   55MOL   H19919747   1.850   5.593   1.623 -0.7637 -1.4838 -0.4755
   55MOL   C20019748   1.390   5.179   1.736  0.0501 -0.2396  0.3687
   55MOL   C20119749   1.243   5.139   1.755  0.1797  0.4794  0.5389
   55MOL   C20219750   1.211   5.032   1.655 -0.7147 -0.5365 -0.1036
   55MOL   O20319751   1.234   4.916   1.680 -0.1947 -0.0770 -0.3137
   55MOL   O20419752   1.171   5.082   1.537  0.2744 -0.7743 -0.0371
   55MOL   C20519753   1.162   5.000   1.414  0.1673 -0.2444  0.0574
   55MOL   C20619754   1.279   5.011   1.307  0.3195  0.4423 -0.3566
   55MOL   C20719755   1.407   4.925   1.343  0.0899  0.4683 -0.7147
   55MOL   H20819756   1.405   5.249   1.818 -0.2168  0.0226  0.1932
   55MOL   H20919757   1.447   5.086   1.740 -0.0996 -0.4240 -1.3464
   55MOL   H21019758   1.173   5.220   1.734 -0.5808  0.0846  1.5034
   55MOL   H21119759   1.140   4.894   1.431  0.3555 -0.1607  0.8317
   55MOL   H21219760   1.069   5.038   1.371  0.8507  0.2786 -0.9871
   55MOL   H21319761   1.238   4.981   1.210 -2.5925 -1.0265  1.2343
   55MOL   H21419762   1.300   5.116   1.291  1.7643  0.2798  0.4233
   55MOL   H21519763   1.382   4.823   1.372  1.1494  0.3407 -0.2142
   55MOL   H21619764   1.457   4.957   1.435  0.3001 -0.4944 -0.4901
   55MOL   H21719765   1.473   4.938   1.258  2.3554 -0.7368  0.7945
   55MOL   C21819766   1.226   5.098   1.904  0.7393  0.2621 -0.0145
   55MOL   C21919767   1.235   5.211   2.011  0.4337 -0.1025 -0.1236
   55MOL   C22019768   1.093   5.267   2.045  0.1751  0.1534 -0.1969
   55MOL   O22119769   1.077   5.389   2.043  0.4907  0.3367 -0.5352
   55MOL   O22219770   0.996   5.173   2.064 -0.1747 -0.0929 -0.3516
   55MOL   C22319771   0.860   5.210   2.111  0.1862  0.3725 -0.2955
   55MOL   C22419772   0.771   5.270   2.005 -0.0122 -0.1748  0.1679
   55MOL   C22519773   0.652   5.342   2.053  0.2365  0.7714 -0.0753
   55MOL   H22619774   1.312   5.036   1.927 -0.3909 -1.5844 -0.5745
   55MOL   H22719775   1.139   5.033   1.917 -0.8430  2.6468  1.7719
   55MOL   H22819776   1.295   5.293   1.973  0.5028 -1.2467 -2.5483
   55MOL   H22919777   0.818   5.124   2.163  0.9022 -0.9617 -1.8780
   55MOL   H23019778   0.868   5.284   2.190  0.6243 -1.0396  1.0174
   55MOL   H23119779   0.840   5.347   1.969  1.3987 -2.3188 -1.8361
   55MOL   H23219780   0.756   5.204   1.919 -0.4407  1.3315 -0.9473
   55MOL   H23319781   0.681   5.444   2.078  2.3792  0.0869  0.3207
   55MOL   H23419782   0.621   5.304   2.151  1.4242  1.6961  0.6753
   55MOL   H23519783   0.565   5.342   1.987 -1.1888 -0.3091  1.7466
   55MOL   C23619784   1.319   5.178   2.135 -0.3449 -0.1460  0.0352
   55MOL   C23719785   1.334   5.295   2.234 -0.4232  0.1802 -0.5538
   55MOL   C23819786   1.390   5.237   2.369  0.0344  0.5614 -0.5804
   55MOL   O23919787   1.400   5.119   2.397  0.2118 -0.1221  0.2636
   55MOL   O24019788   1.399   5.335   2.466  0.3676  0.4900  0.3020
   55MOL   C24119789   1.403   5.290   2.601  0.8659 -0.3734  0.0057
   55MOL   C24219790   1.264   5.337   2.669 -0.5405 -0.2391  0.2797
   55MOL   C24319791   1.259   5.302   2.812  0.0102  0.1540 -0.5831
   55MOL   H24419792   1.418   5.136   2.117 -0.2386 -0.7299  1.8588
   55MOL   H24519793   1.280   5.087   2.182 -0.1999 -1.9170 -3.0993
   55MOL   H24619794   1.234   5.327   2.266  1.3727  4.5683  1.0650
   55MOL   H24719795   1.438   5.188   2.619  0.3642 -0.5845 -0.2079
   55MOL   H24819796   1.480   5.345   2.655  0.4119  0.8439 -0.5631
   55MOL   H24919797   1.244   5.444   2.673  0.8172  0.0381  0.1834
   55MOL   H25019798   1.183   5.283   2.620 -1.8560  1.7995  0.1594
   55MOL   H25119799   1.165   5.333   2.858 -0.4468  0.2604 -1.5940
   55MOL   H25219800   1.336   5.342   2.878 -1.1439  0.8892  0.3377
   55MOL   H25319801   1.253   5.194   2.816 -1.6861  0.2208 -0.8221
   55MOL   C25419802   1.396   5.426   2.170  0.0995 -0.5034 -0.4712
   55MOL   C25519803   1.546   5.424   2.153 -0.5092 -1.1470 -0.2660
   55MOL   C25619804   1.591   5.355   2.035 -0.1499 -0.4008  0.2480
   55MOL   O25719805   1.558   5.397   1.926 -0.0394 -0.7441 -0.3389
   55MOL   O25819806   1.665   5.257   2.061  0.1305  0.0827  0.0653
   55MOL   C25919807   1.700   5.152   1.963  0.2944  0.1419  0.1643
   55MOL   C26019808   1.807   5.068   2.020 -0.0745 -0.6046  0.5201
   55MOL   C26119809   1.946   5.138   2.009  0.4142 -0.2128  0.0188
   55MOL   H26219810   1.399   5.504   2.247 -1.7503 -0.8827 -0.0131
   55MOL   H26319811   1.338   5.461   2.085  2.6364 -0.1975 -2.1623
   55MOL   H26419812   1.582   5.369   2.239  1.1386  3.0608  1.8585
   55MOL   H26519813   1.610   5.093   1.949  0.6469 -0.0417 -1.4714
   55MOL   H26619814   1.730   5.190   1.865 -0.0664  2.8126  1.0694
   55MOL   H26719815   1.802   5.063   2.129  1.6158  2.3400  0.7783
   55MOL   H26819816   1.822   4.970   1.975  2.7402 -0.1798  0.4434
   55MOL   H26919817   1.942   5.234   2.060  1.4855 -0.0289 -0.2192
   55MOL   H27019818   1.986   5.158   1.909  1.6412  2.5085  0.9859
   55MOL   H27119819   2.023   5.084   2.065  0.3060 -1.6376 -1.1710
   55MOL   C27219820   1.616   5.565   2.172 -0.6394 -0.1462  0.9990
   55MOL   C27319821   1.764   5.564   2.230 -0.7485 -0.1049  0.6955
   55MOL   C27419822   1.821   5.709   2.195 -0.0238  0.4555  0.1129
   55MOL   O27519823   1.749   5.798   2.154 -0.3356 -0.1859 -0.9264
   55MOL   O27619824   1.957   5.717   2.213  0.6474  0.4272  0.2624
   55MOL   C27719825   2.021   5.846   2.186  0.3645  0.4652 -0.4387
   55MOL   C27819826   2.053   5.918   2.320 -0.2069  0.0878  0.7265
   55MOL   C27919827   1.926   5.960   2.389  0.1725 -0.6009 -0.2221
   55MOL   H28019828   1.550   5.620   2.240 -2.9006 -2.1477  0.4914
   55MOL   H28119829   1.620   5.606   2.071  0.2232 -2.0613  0.2350
   55MOL   H28219830   1.831   5.494   2.179  0.1876  1.5722 -0.4092
   55MOL   H28319831   2.119   5.826   2.143  0.2252 -1.0924 -0.0523
   55MOL   H28419832   1.962   5.905   2.116  0.3985  0.3291 -0.5811
   55MOL   H28519833   2.130   5.868   2.379  0.8009  0.2766 -0.4193
   55MOL   H28619834   2.097   6.015   2.295  0.6644  0.0761  2.1290
   55MOL   H28719835   1.852   5.882   2.408 -0.8341  0.4656  0.3158
   55MOL   H28819836   1.871   6.044   2.346 -0.3948 -0.4907  0.6962
   55MOL   H28919837   1.951   5.991   2.491  0.0631 -1.0006 -0.0714
   55MOL   C29019838   1.768   5.549   2.385  0.4340 -0.3372  0.5814
   55MOL   C29119839   1.844   5.420   2.434  0.2351  0.2138  0.2320
   55MOL   C29219840   1.987   5.415   2.374 -0.2453 -0.2673 -0.4934
   55MOL   O29319841   2.028   5.319   2.307  0.4308 -0.0979  0.6152
   55MOL   O29419842   2.071   5.515   2.418 -0.0749  0.1904  0.8051
   55MOL   C29519843   2.208   5.515   2.369  0.2176 -0.0590  0.0741
   55MOL   C29619844   2.309   5.532   2.482  0.1670 -0.3206  0.5938
   55MOL   C29719845   2.293   5.661   2.573 -0.6859 -0.3200  0.3378
   55MOL   H29819846   1.667   5.543   2.423 -0.6703  0.5945 -2.1117
   55MOL   H29919847   1.817   5.637   2.427  0.0546  0.1443  0.0319
   55MOL   H30019848   1.782   5.346   2.385  1.0181  1.6737 -3.0766
   55MOL   H30119849   2.230   5.423   2.315  1.2729  0.1001  0.2253
   55MOL   H30219850   2.214   5.586   2.287 -0.5101  0.1954  0.2336
   55MOL   H30319851   2.297   5.445   2.546  0.8432 -1.6315 -1.0455
   55MOL   H30419852   2.409   5.516   2.442  0.7650  0.5307  1.6974
   55MOL   H30519853   2.190   5.696   2.584 -0.7489 -0.7957  1.3027
   55MOL   H30619854   2.359   5.734   2.526 -0.9897 -0.6160 -0.5726
   55MOL   H30719855   2.332   5.644   2.673 -0.4774 -1.0653  0.1350
   55MOL   C30819856   1.842   5.408   2.588  0.4493  0.0106  0.0256
   55MOL   C30919857   1.890   5.277   2.662 -0.6408  0.1302  0.4594
   55MOL   C31019858   1.818   5.150   2.616  0.7082  0.8985  0.2480
   55MOL   O31119859   1.833   5.097   2.502  0.1448  0.0294  0.6315
   55MOL   O31219860   1.737   5.097   2.712 -0.4180  0.3923  0.3155
   55MOL   C31319861   1.676   4.974   2.699  0.0483  0.2003  0.4199
   55MOL   C31419862   1.624   4.949   2.840 -0.4699 -0.0218  0.0978
   55MOL   C31519863   1.481   4.998   2.872 -0.5033 -0.0008 -0.3175
   55MOL   H31619864   1.742   5.410   2.631  1.7027 -4.0012  3.5053
   55MOL   H31719865   1.899   5.482   2.644 -0.3049 -0.1094  0.9673
   55MOL   H31819866   1.875   5.293   2.769  0.3526  2.0728  0.3388
   55MOL   H31919867   1.596   4.965   2.625 -0.7694 -3.6256  1.6566
   55MOL   H32019868   1.748   4.894   2.689 -0.3505 -0.2486  1.0944
   55MOL   H32119869   1.639   4.841   2.850 -1.3902 -0.3798 -2.2477
   55MOL   H32219870   1.698   4.980   2.914 -1.3718  2.5356 -0.0198
   55MOL   H32319871   1.480   5.106   2.853  1.5628  0.0043 -0.5423
   55MOL   H32419872   1.405   4.960   2.804 -1.9736  4.1031 -1.1046
   55MOL   H32519873   1.447   4.968   2.971 -1.3278 -0.5076 -0.7499
   55MOL   C32619874   2.048   5.263   2.647 -0.3978  0.6821  0.2366
   55MOL   C32719875   2.111   5.159   2.743  0.1909 -0.5043  0.1315
   55MOL   C32819876   2.104   5.199   2.894 -0.6597  0.1738  0.3880
   55MOL   O32919877   1.997   5.228   2.950  0.5384 -0.3314  0.2495
   55MOL   O33019878   2.222   5.200   2.956  0.5039 -0.3719 -0.6903
   55MOL   C33119879   2.232   5.228   3.094 -0.3446 -0.6765 -0.9411
   55MOL   C33219880   2.361   5.296   3.128 -0.3235 -0.2124 -0.9638
   55MOL   C33319881   2.389   5.290   3.278  0.3726  0.1335  0.2209
   55MOL   H33419882   2.107   5.355   2.659  0.2848  0.1726  0.8265
   55MOL   H33519883   2.075   5.238   2.544 -0.1002 -0.4207  0.5780
   55MOL   H33619884   2.218   5.169   2.725 -0.0573  0.9779 -0.5469
   55MOL   H33719885   2.162   5.298   3.138 -0.2583 -0.2870 -1.4296
   55MOL   H33819886   2.227   5.142   3.162 -0.9906  0.1005  0.0027
   55MOL   H33919887   2.445   5.243   3.083  1.3125  1.6711 -0.2163
   55MOL   H34019888   2.365   5.399   3.093  0.9568 -0.7148 -2.3401
   55MOL   H34119889   2.315   5.363   3.311  1.7767  1.9735 -0.6223
   55MOL   H34219890   2.379   5.194   3.329 -0.2530  0.3490  0.5167
   55MOL   H34319891   2.491   5.323   3.294  0.7374 -0.7169 -0.2904
   55MOL   C34419892   2.066   5.011   2.734  0.5126  0.5078 -0.2821
   55MOL   C34519893   2.076   4.941   2.597  0.0049 -0.0455 -0.6445
   55MOL   C34619894   2.196   4.854   2.566  0.2622 -0.2209 -0.0370
   55MOL   O34719895   2.183   4.734   2.594 -1.0136  0.1517 -0.5411
   55MOL   O34819896   2.305   4.913   2.534 -0.0434 -0.3195 -0.6270
   55MOL   C34919897   2.426   4.842   2.542 -1.0314  0.0355 -0.5120
   55MOL   C35019898   2.540   4.937   2.557 -0.1337  0.2571  0.4127
   55MOL   C35119899   2.556   5.006   2.689  0.0948 -0.4488 -0.5211
   55MOL   H35219900   1.965   5.004   2.774  1.0419 -1.4166  0.7774
   55MOL   H35319901   2.113   4.949   2.811 -2.1690 -2.6556 -1.0872
   55MOL   H35419902   2.063   5.016   2.519 -1.1541  1.5140  1.0158
   55MOL   H35519903   2.432   4.769   2.622  3.4208 -0.0857 -0.8241
   55MOL   H35619904   2.445   4.775   2.459  1.8145 -1.0989  0.9895
   55MOL   H35719905   2.632   4.893   2.518  0.8530  0.9218  1.9240
   55MOL   H35819906   2.509   5.012   2.484 -0.2289 -0.4035 -0.2274
   55MOL   H35919907   2.570   4.934   2.770 -1.9415  0.4061  0.6475
   55MOL   H36019908   2.647   5.065   2.686  0.4654 -0.8789  1.2109
   55MOL   H36119909   2.478   5.074   2.723 -0.3261 -1.3112  0.2766
   55MOL   H36219910   1.993   4.870   2.593  1.1552 -1.4277 -0.6537
   56MOL     C119911   2.396   6.939   1.864 -0.7175  0.1407  0.1519
   56MOL     C219912   2.258   6.867   1.872  0.9413  0.5984 -0.9642
   56MOL     C319913   2.160   6.936   1.964  0.0215  0.2641  0.9005
   56MOL     O419914   2.092   6.870   2.039  0.9377 -0.5809 -0.1432
   56MOL     O519915   2.154   7.068   1.933 -0.4241 -0.6814 -0.1850
   56MOL     C619916   2.067   7.157   2.014  0.1335 -0.3661  0.6214
   56MOL     C719917   2.104   7.295   1.990 -0.4908  0.8278 -0.6413
   56MOL     C819918   2.251   7.324   2.025  0.0018 -0.7368 -0.8792
   56MOL     H919919   2.394   7.025   1.798  1.4897 -0.8224 -1.2095
   56MOL    H1019920   2.439   6.968   1.960 -0.2893  2.2981 -0.6773
   56MOL    H1119921   2.270   6.766   1.913 -0.9235  0.6728 -0.1359
   56MOL    H1219922   1.964   7.146   1.979 -0.4420  1.4352  1.6663
   56MOL    H1319923   2.060   7.121   2.117  0.6636  2.2742  1.6279
   56MOL    H1419924   2.074   7.335   1.893  1.0409  0.3753 -1.3306
   56MOL    H1519925   2.044   7.351   2.061  1.2562  1.8674  0.0533
   56MOL    H1619926   2.311   7.273   1.949  0.4770  0.7796 -1.5326
   56MOL    H1719927   2.264   7.431   2.010  0.9242 -0.8632 -1.0368
   56MOL    H1819928   2.273   7.316   2.132  0.6579  2.5114 -0.7385
   56MOL    H1919929   2.459   6.867   1.812 -1.1162  0.6869 -1.0915
   56MOL    C2019930   2.190   6.853   1.736 -0.1338  1.4026 -0.9946
   56MOL    C2119931   2.263   6.761   1.635 -0.9464 -0.1539  0.0883
   56MOL    C2219932   2.290   6.621   1.688  0.4992 -0.2499  0.1530
   56MOL    O2319933   2.211   6.557   1.754 -0.7598  0.8595 -0.0733
   56MOL    O2419934   2.411   6.583   1.644  0.7309  0.0859 -0.2052
   56MOL    C2519935   2.472   6.463   1.700 -0.0802 -0.7832 -0.0552
   56MOL    C2619936   2.602   6.445   1.614 -0.4202  0.6336 -0.3767
   56MOL    C2719937   2.580   6.355   1.490 -0.5889  0.1104  0.8172
   56MOL    H2819938   2.180   6.950   1.689 -0.2594  1.2692 -1.2446
   56MOL    H2919939   2.089   6.811   1.740  0.6328 -0.3862  0.0614
   56MOL    H3019940   2.361   6.808   1.629 -2.1252  2.1947 -1.3744
   56MOL    H3119941   2.495   6.483   1.804 -0.5408  0.6762 -0.2297
   56MOL    H3219942   2.413   6.371   1.703  0.5075 -1.1824 -0.6673
   56MOL    H3319943   2.633   6.543   1.577 -0.4294 -0.3251 -3.0943
   56MOL    H3419944   2.685   6.406   1.672 -0.1067  2.5553  0.4925
   56MOL    H3519945   2.522   6.267   1.518 -1.0725  0.7498  1.8355
   56MOL    H3619946   2.674   6.332   1.439 -0.8954  0.4408  0.0876
   56MOL    H3719947   2.515   6.404   1.418 -1.0525  2.1654  2.5822
   56MOL    C3819948   2.204   6.766   1.488 -0.1497 -0.0564 -0.1318
   56MOL    C3919949   2.291   6.710   1.371  0.0567 -0.8053 -0.5505
   56MOL    C4019950   2.193   6.661   1.264  0.7227 -0.0657  0.2219
   56MOL    O4119951   2.163   6.731   1.172  0.2017  0.1651  0.1827
   56MOL    O4219952   2.146   6.538   1.290  0.2708  0.2138  0.0590
   56MOL    C4319953   2.037   6.493   1.204  0.4598 -0.4399 -0.6511
   56MOL    C4419954   1.910   6.483   1.292  0.6218 -0.1845  0.5086
   56MOL    C4519955   1.833   6.615   1.335  0.1254  0.3404  0.0413
   56MOL    H4619956   2.180   6.868   1.457  2.6635  0.9392  0.8194
   56MOL    H4719957   2.114   6.706   1.499 -1.0938  1.5902  1.4898
   56MOL    H4819958   2.345   6.619   1.399  1.3277 -0.2826 -1.2423
   56MOL    H4919959   2.014   6.562   1.123  2.6987 -0.0622 -0.9926
   56MOL    H5019960   2.070   6.402   1.153  0.5088 -0.8230  0.0519
   56MOL    H5119961   1.840   6.439   1.222  2.2400  1.0683 -1.9630
   56MOL    H5219962   1.923   6.425   1.384 -0.8678  1.1399  1.6004
   56MOL    H5319963   1.735   6.601   1.381 -1.0262  3.0218 -1.4494
   56MOL    H5419964   1.803   6.681   1.253 -0.2700 -0.2146 -0.2617
   56MOL    H5519965   1.894   6.677   1.400 -0.5977  0.3823  0.6890
   56MOL    C5619966   2.392   6.817   1.317  0.0377  1.0664  0.0576
   56MOL    C5719967   2.516   6.758   1.243  0.0314 -0.3654  0.4409
   56MOL    C5819968   2.496   6.669   1.119 -0.3277  0.1773 -0.7147
   56MOL    O5919969   2.460   6.725   1.016 -0.2452  0.1937 -0.0365
   56MOL    O6019970   2.527   6.542   1.140  0.4322 -0.2562  0.3302
   56MOL    C6119971   2.515   6.451   1.026 -1.0629 -0.5769  0.4714
   56MOL    C6219972   2.371   6.395   1.009  0.9621  0.2442 -0.7441
   56MOL    C6319973   2.328   6.299   1.123 -0.4315 -0.0066 -0.4546
   56MOL    H6419974   2.431   6.884   1.394  0.7962 -0.1469  0.7501
   56MOL    H6519975   2.348   6.887   1.247  0.5524  1.1777 -0.1595
   56MOL    H6619976   2.561   6.692   1.318 -0.4198 -0.8634  0.2769
   56MOL    H6719977   2.547   6.505   0.937 -0.2601 -2.1983 -0.2471
   56MOL    H6819978   2.582   6.365   1.030 -1.9315 -1.2668  0.4905
   56MOL    H6919979   2.298   6.476   1.010  0.0042 -0.5093  4.1990
   56MOL    H7019980   2.356   6.345   0.914  0.4779 -0.9924 -0.0332
   56MOL    H7119981   2.401   6.221   1.146 -0.7864 -0.1563  0.1988
   56MOL    H7219982   2.233   6.248   1.104 -0.6926  0.6947 -1.0495
   56MOL    H7319983   2.311   6.347   1.220 -0.2602  2.0827 -1.4431
   56MOL    C7419984   2.622   6.874   1.210 -0.0890  0.4196  0.4005
   56MOL    C7519985   2.768   6.839   1.163 -0.2082  0.3719 -0.3503
   56MOL    C7619986   2.851   6.959   1.127 -0.3504 -0.3046 -0.4699
   56MOL    O7719987   2.884   7.032   1.223  0.2998  0.3479 -0.2799
   56MOL    O7819988   2.897   6.965   0.996 -0.3248  0.5326 -0.7636
   56MOL    C7919989   2.990   7.056   0.943  0.1624  0.5274  0.1419
   56MOL    C8019990   2.927   7.192   0.898 -0.3803  0.0581  0.2475
   56MOL    C8119991   2.850   7.181   0.764 -0.0001 -0.2080 -0.2958
   56MOL    H8219992   2.617   6.928   1.305 -0.6826  0.5833  0.2726
   56MOL    H8319993   2.578   6.949   1.144  0.6568  0.4567 -0.0599
   56MOL    H8419994   2.750   6.811   1.059  1.1963 -1.5375 -0.1006
   56MOL    H8519995   3.062   7.083   1.021  1.2115  0.8393 -0.9230
   56MOL    H8619996   3.053   7.015   0.864  0.5145 -0.3952  0.8890
   56MOL    H8719997   2.862   7.226   0.979  0.4886  0.7870  0.6499
   56MOL    H8819998   2.998   7.273   0.880 -1.5942  0.3794 -3.6439
   56MOL    H8919999   2.812   7.275   0.724  2.4304  1.2661  0.7386
   56MOL    H9020000   2.778   7.099   0.766 -0.8416  0.4651 -2.3256
   56MOL    H9120001   2.911   7.145   0.681 -1.8548 -1.1718 -1.2637
   56MOL    C9220002   2.832   6.716   1.237 -0.4337 -0.6978 -0.0283
   56MOL    C9320003   2.982   6.683   1.202  0.5290 -0.7424 -0.2578
   56MOL    C9420004   3.052   6.601   1.308  0.5380  0.1982 -0.4968
   56MOL    O9520005   3.166   6.634   1.341 -0.2214  0.2969  0.4665
   56MOL    O9620006   2.995   6.496   1.352  0.3057 -0.1503  0.5401
   56MOL    C9720007   3.060   6.400   1.435  0.3149 -0.2725 -0.3476
   56MOL    C9820008   3.085   6.453   1.577  0.4828 -0.1031  0.1501
   56MOL    C9920009   2.964   6.492   1.667  0.5044  0.2702 -0.0767
   56MOL   H10020010   2.766   6.632   1.217 -0.6607 -0.5542  0.1106
   56MOL   H10120011   2.816   6.742   1.342  0.1323  0.3969 -0.2055
   56MOL   H10220012   3.040   6.775   1.211 -0.0961 -0.1338 -2.1615
   56MOL   H10320013   2.987   6.319   1.436 -0.5552  0.4963 -0.7821
   56MOL   H10420014   3.158   6.374   1.397  0.2037  1.4397 -1.8921
   56MOL   H10520015   3.152   6.385   1.629  1.1183 -0.4058 -1.0680
   56MOL   H10620016   3.145   6.543   1.579  0.9163 -0.3995  0.8559
   56MOL   H10720017   2.907   6.574   1.623  2.2342 -0.0449 -3.0033
   56MOL   H10820018   3.001   6.530   1.763 -0.8689  1.5334 -0.0267
   56MOL   H10920019   2.905   6.401   1.675  0.1850  0.6511  2.6485
   56MOL   C11020020   3.002   6.632   1.059 -0.7727 -0.1486  0.1301
   56MOL   C11120021   3.122   6.544   1.013 -0.0747  0.2768 -0.0207
   56MOL   C11220022   3.115   6.397   1.049  0.3021  0.5771 -0.4372
   56MOL   O11320023   3.025   6.329   1.011 -0.2692 -0.1562  0.1314
   56MOL   O11420024   3.229   6.348   1.113 -0.2406  0.3837 -0.0092
   56MOL   C11520025   3.224   6.211   1.162 -0.4263 -0.9656 -0.0568
   56MOL   C11620026   3.360   6.176   1.231 -0.0139  0.5855 -0.4278
   56MOL   C11720027   3.346   6.078   1.352  0.3727 -0.4989  0.2567
   56MOL   H11820028   3.012   6.728   1.010  0.9791 -0.4380 -0.0993
   56MOL   H11920029   2.904   6.591   1.032 -1.3675  0.6207  1.0827
   56MOL   H12020030   3.198   6.581   1.081 -0.4130 -0.5425  0.8256
   56MOL   H12120031   3.144   6.236   1.232  0.1908  1.6199 -0.2162
   56MOL   H12220032   3.201   6.130   1.093 -1.5195 -0.6673 -0.0542
   56MOL   H12320033   3.436   6.152   1.157 -1.7315 -2.6637 -1.2566
   56MOL   H12420034   3.395   6.272   1.268  1.6535  1.0979 -3.2290
   56MOL   H12520035   3.311   6.126   1.444  0.0995 -1.5604  0.7128
   56MOL   H12620036   3.449   6.057   1.382  0.4033  0.0636  0.5541
   56MOL   H12720037   3.298   5.983   1.334 -0.4992  0.1600 -0.8934
   56MOL   C12820038   3.160   6.558   0.860 -0.7512  0.5970  0.2658
   56MOL   C12920039   3.192   6.712   0.822  0.2117  0.8816 -0.4292
   56MOL   C13020040   3.292   6.762   0.917 -0.9827 -0.4875  0.0599
   56MOL   O13120041   3.264   6.862   0.982 -0.0794 -0.8246 -0.8305
   56MOL   O13220042   3.411   6.707   0.916  0.1502 -0.2060 -0.2607
   56MOL   C13320043   3.515   6.746   1.020 -0.5578 -0.4986  0.5404
   56MOL   C13420044   3.585   6.631   1.080  0.1857  0.3312  0.4400
   56MOL   C13520045   3.494   6.548   1.172  0.0002  0.9255 -0.5186
   56MOL   H13620046   3.063   6.534   0.814 -0.1169 -1.1764 -0.2074
   56MOL   H13720047   3.223   6.479   0.820 -1.0168  1.2307 -1.4689
   56MOL   H13820048   3.098   6.767   0.830 -0.3428 -0.0966 -0.1401
   56MOL   H13920049   3.583   6.808   0.962  1.6060 -1.3215  2.1587
   56MOL   H14020050   3.471   6.811   1.096  0.4508 -0.7201  1.3153
   56MOL   H14120051   3.634   6.575   1.000  0.7714  1.5106 -0.0322
   56MOL   H14220052   3.670   6.672   1.135  1.0615 -1.2635  0.3140
   56MOL   H14320053   3.444   6.608   1.248  0.1155 -0.2162  0.4801
   56MOL   H14420054   3.549   6.465   1.217  0.5575  0.5935 -1.7662
   56MOL   H14520055   3.418   6.494   1.116 -2.2058  0.3219  2.9082
   56MOL   C14620056   3.242   6.729   0.679  0.0210 -0.7018  0.6305
   56MOL   C14720057   3.145   6.702   0.565  0.0110  0.0929  0.1490
   56MOL   C14820058   3.022   6.789   0.577  0.5468  0.7895  0.5811
   56MOL   O14920059   3.020   6.908   0.550  0.5677  0.0902  0.1063
   56MOL   O15020060   2.915   6.720   0.620 -0.0056  0.1172 -0.3589
   56MOL   C15120061   2.809   6.793   0.677  0.7535 -0.6617 -0.1634
   56MOL   C15220062   2.712   6.693   0.736 -0.6099  0.1383 -0.5518
   56MOL   C15320063   2.652   6.600   0.636 -0.6123  0.3239 -0.2351
   56MOL   H15420064   3.329   6.665   0.662  0.7977  0.3196  0.7177
   56MOL   H15520065   3.284   6.829   0.666 -0.8670 -0.4303 -0.2928
   56MOL   H15620066   3.103   6.602   0.572 -0.8690  0.5431  1.4303
   56MOL   H15720067   2.837   6.867   0.752 -0.3603 -0.6430  0.2497
   56MOL   H15820068   2.756   6.843   0.596 -1.6258 -0.2717  1.5547
   56MOL   H15920069   2.760   6.628   0.809  0.5928  0.4200 -1.0831
   56MOL   H16020070   2.636   6.750   0.790 -0.2672 -0.4264  0.5406
   56MOL   H16120071   2.732   6.535   0.601 -0.9791 -0.0677 -0.3556
   56MOL   H16220072   2.604   6.645   0.549  1.7602  1.6920 -0.8803
   56MOL   H16320073   2.584   6.538   0.695  0.8146  0.1056  1.2008
   56MOL   C16420074   3.206   6.713   0.418 -0.1044  0.6118 -0.2776
   56MOL   C16520075   3.317   6.610   0.387  0.4395  0.1603  0.3186
   56MOL   C16620076   3.257   6.468   0.402  0.8354 -0.6042 -0.0084
   56MOL   O16720077   3.157   6.432   0.344 -0.1255 -0.0712  0.5738
   56MOL   O16820078   3.321   6.393   0.495  0.6939  0.0981 -0.3269
   56MOL   C16920079   3.302   6.252   0.501 -0.6120 -0.2725  0.2255
   56MOL   C17020080   3.249   6.234   0.645  0.5384  0.4172  0.4121
   56MOL   C17120081   3.348   6.257   0.760  0.3595  0.3370  0.1294
   56MOL   H17220082   3.256   6.808   0.400 -0.3957  0.9769  0.7547
   56MOL   H17320083   3.127   6.706   0.343 -0.5217  1.4940  0.0681
   56MOL   H17420084   3.402   6.618   0.455 -0.1277  0.2522  1.0195
   56MOL   H17520085   3.230   6.215   0.428  0.2228 -3.5756  1.0080
   56MOL   H17620086   3.403   6.212   0.490  0.7182  2.8293  0.4428
   56MOL   H17720087   3.160   6.293   0.669 -0.2102 -1.0527  1.3106
   56MOL   H17820088   3.212   6.132   0.655 -0.4274  0.6553 -0.5690
   56MOL   H17920089   3.305   6.232   0.857 -0.8503  1.5410 -0.0916
   56MOL   H18020090   3.385   6.359   0.757 -0.8347  0.7480 -1.6423
   56MOL   H18120091   3.435   6.192   0.745  0.3971  0.1517  1.1525
   56MOL   C18220092   3.381   6.618   0.245 -0.6806 -0.7190  0.7355
   56MOL   C18320093   3.428   6.760   0.196 -0.7469 -0.0992 -0.7616
   56MOL   C18420094   3.548   6.810   0.284  0.4319  1.0125  0.2290
   56MOL   O18520095   3.640   6.735   0.311 -0.6557 -0.3923  0.2279
   56MOL   O18620096   3.523   6.933   0.329  0.3733 -0.0627 -0.4488
   56MOL   C18720097   3.606   6.992   0.428  0.0731  0.0679  0.1772
   56MOL   C18820098   3.556   6.943   0.570  0.4229 -0.0086  0.4509
   56MOL   C18920099   3.621   7.017   0.686 -0.2961 -0.6483 -0.0018
   56MOL   H19020100   3.316   6.578   0.167 -0.0144 -1.6565  0.6445
   56MOL   H19120101   3.471   6.556   0.247 -1.1671 -1.4445  0.5932
   56MOL   H19220102   3.351   6.835   0.214  0.2928  0.1288  3.1743
   56MOL   H19320103   3.706   6.950   0.418 -0.3502 -1.1512  0.9612
   56MOL   H19420104   3.608   7.099   0.408  0.3378  0.5164  2.4644
   56MOL   H19520105   3.447   6.946   0.569  0.4360  1.0917 -1.8502
   56MOL   H19620106   3.573   6.836   0.580 -0.7153 -0.0195  2.4414
   56MOL   H19720107   3.729   7.000   0.683 -0.0077  1.2112 -0.3990
   56MOL   H19820108   3.584   6.974   0.780 -1.1923  0.1572  0.0136
   56MOL   H19920109   3.608   7.125   0.691 -1.4216 -0.8223  0.9763
   56MOL   C20020110   3.462   6.756   0.045 -0.1098  0.1954 -0.5469
   56MOL   C20120111   3.370   6.851   7.845  0.7561  0.7248  0.1409
   56MOL   C20220112   3.388   6.998   0.002  0.1702  0.1369 -0.5691
   56MOL   O20320113   3.298   7.061   0.061 -0.1111 -1.0207  0.2883
   56MOL   O20420114   3.505   7.050   7.848 -0.0726  0.1152  0.0026
   56MOL   C20520115   3.553   7.182   0.003  0.3718  0.2001  0.4892
   56MOL   C20620116   3.585   7.253   7.748 -1.0152 -0.3708 -0.3804
   56MOL   C20720117   3.727   7.223   7.692  0.1607  0.4185 -0.0990
   56MOL   H20820118   3.447   6.655   0.007 -0.0110 -0.1403  0.2892
   56MOL   H20920119   3.569   6.776   0.039  0.3213 -2.0019 -0.7020
   56MOL   H21020120   3.266   6.825   7.863  0.8639  0.6764  0.7100
   56MOL   H21120121   3.473   7.242   0.047  0.9578  1.2472  0.1409
   56MOL   H21220122   3.626   7.179   0.084  0.3994 -1.1094  0.4340
   56MOL   H21320123   3.506   7.236   7.675 -1.6692 -1.7123  0.6229
   56MOL   H21420124   3.585   7.362   7.758  0.4341 -0.3615 -0.3597
   56MOL   H21520125   3.758   7.313   7.640  0.5899  0.7111  0.6626
   56MOL   H21620126   3.717   7.146   7.616 -0.6002 -0.7262  1.1310
   56MOL   H21720127   3.794   7.195   7.774  1.1854  1.3246 -0.6250
   56MOL   C21820128   3.395   6.823   7.694  0.5139 -0.4531 -0.5156
   56MOL   C21920129   3.330   6.919   7.591 -0.8828 -0.6273 -0.2753
   56MOL   C22020130   3.385   6.893   7.449 -0.3588 -0.1666  0.3003
   56MOL   O22120131   3.493   6.832   7.427  0.1079 -0.3210  0.1533
   56MOL   O22220132   3.304   6.950   7.349 -0.0846 -0.6554  0.0702
   56MOL   C22320133   3.322   6.919   7.212  0.1670  0.1014 -0.1684
   56MOL   C22420134   3.236   6.804   7.162 -0.5112 -0.8553 -0.5968
   56MOL   C22520135   3.307   6.671   7.191  0.0486 -0.6573 -0.0196
   56MOL   H22620136   3.373   6.718   7.677 -0.5364 -0.2476 -0.5115
   56MOL   H22720137   3.502   6.831   7.675  0.0035  0.5525 -3.1847
   56MOL   H22820138   3.362   7.022   7.604 -0.1489 -0.6915 -1.5079
   56MOL   H22920139   3.293   7.007   7.154  2.2499  1.6893  1.0995
   56MOL   H23020140   3.427   6.892   7.199  0.2674 -0.6320  2.0562
   56MOL   H23120141   3.140   6.806   7.214 -0.4200  0.0215 -0.4595
   56MOL   H23220142   3.227   6.817   7.054 -0.5994 -0.2094 -0.5106
   56MOL   H23320143   3.239   6.586   7.198 -0.5204 -0.2873 -0.9617
   56MOL   H23420144   3.366   6.675   7.282 -0.5872  1.5569  0.3172
   56MOL   H23520145   3.370   6.650   7.104  0.1014 -1.9421  0.3207
   56MOL   C23620146   3.181   6.916   7.601 -0.1485 -0.7162 -0.3769
   56MOL   C23720147   3.117   7.039   7.665 -0.5751  0.3105 -0.2994
   56MOL   C23820148   3.156   7.187   7.624 -0.5022  0.1928  0.6619
   56MOL   O23920149   3.223   7.264   7.693 -0.4834  0.0080  0.3024
   56MOL   O24020150   3.104   7.217   7.506  0.2219  0.0336  0.1189
   56MOL   C24120151   3.168   7.318   7.417  0.2767  0.1913  0.4537
   56MOL   C24220152   3.118   7.458   7.433  0.5351 -0.5425  0.0299
   56MOL   C24320153   3.218   7.555   7.379  0.4153 -0.3091 -0.0361
   56MOL   H24420154   3.158   6.822   7.651 -0.4541 -0.7799 -0.6384
   56MOL   H24520155   3.142   6.908   7.499  1.7496 -0.2802 -1.1759
   56MOL   H24620156   3.144   7.026   7.770  1.4087  0.5572 -0.7594
   56MOL   H24720157   3.276   7.311   7.429  0.2841 -1.2709 -0.2625
   56MOL   H24820158   3.136   7.286   7.318  0.6870  0.3333  0.2745
   56MOL   H24920159   3.021   7.467   7.384 -0.1736  3.4418  2.0263
   56MOL   H25020160   3.114   7.467   7.542  0.6694  1.0663 -0.1016
   56MOL   H25120161   3.198   7.658   7.407 -0.4642 -0.8843  1.5171
   56MOL   H25220162   3.235   7.560   7.271  1.5951  0.4109  0.1745
   56MOL   H25320163   3.320   7.539   7.415  0.5261  1.2437  0.3473
   56MOL   C25420164   2.962   7.029   7.666 -0.0318  0.6124 -0.1010
   56MOL   C25520165   2.899   6.907   7.725  0.2418  0.2116  0.4496
   56MOL   C25620166   2.944   6.881   7.878  0.4767 -1.0216  0.7528
   56MOL   O25720167   2.980   6.775   0.040 -0.2991 -0.1354  0.2954
   56MOL   O25820168   2.948   6.993   0.062 -0.2808 -0.3959 -0.1037
   56MOL   C25920169   3.002   7.011   0.192  0.4567 -0.0288  0.8000
   56MOL   C26020170   2.904   7.054   0.304  0.0389 -0.3806  0.0867
   56MOL   C26120171   2.799   6.948   0.341  0.0981  0.4015  0.3619
   56MOL   H26220172   2.925   7.070   7.572 -0.1779 -0.8575 -0.6936
   56MOL   H26320173   2.929   7.108   7.733 -2.4390 -0.9655  0.6206
   56MOL   H26420174   2.935   6.831   7.655  1.3419  1.3126 -0.1864
   56MOL   H26520175   3.046   6.916   0.222 -1.9397 -0.7405  2.1936
   56MOL   H26620176   3.084   7.083   0.188 -0.3916  0.9634  1.1687
   56MOL   H26720177   2.963   7.079   0.392  0.9395  2.6040 -1.3071
   56MOL   H26820178   2.853   7.148   0.282  0.9854  0.5164  1.5752
   56MOL   H26920179   2.745   6.927   0.249 -0.0616 -0.2304  0.5948
   56MOL   H27020180   2.739   6.991   0.422 -0.1034 -1.0668  1.0076
   56MOL   H27120181   2.830   6.852   0.382  0.5120  0.2561 -0.2949
   56MOL   C27220182   2.746   6.921   7.701 -0.0619 -0.2000  0.2077
   56MOL   C27320183   2.686   6.796   7.642  0.4079  0.1212  0.3255
   56MOL   C27420184   2.689   6.672   7.726 -0.7640  1.1089 -0.6412
   56MOL   O27520185   2.746   6.570   7.685  0.6483 -0.0467  0.9149
   56MOL   O27620186   2.622   6.691   7.842  0.2159  0.0364  0.0362
   56MOL   C27720187   2.591   6.589   0.055  0.0358 -0.1768  0.3103
   56MOL   C27820188   2.706   6.571   0.163  0.0508 -0.3744 -0.5292
   56MOL   C27920189   2.679   6.457   0.268  0.9442  0.3104  0.3984
   56MOL   H28020190   2.733   6.999   7.626 -5.0435 -1.7117 -0.6264
   56MOL   H28120191   2.689   6.952   7.789  0.4705  1.3369  0.0366
   56MOL   H28220192   2.747   6.771   7.555  1.3475  0.7615  0.7832
   56MOL   H28320193   2.501   6.618   0.109  0.9328  1.7045  0.8179
   56MOL   H28420194   2.566   6.494   0.008  2.1292  0.0567 -1.3209
   56MOL   H28520195   2.802   6.548   0.116  0.0548 -2.1208  0.3303
   56MOL   H28620196   2.729   6.668   0.207  0.1532  0.2892 -1.9829
   56MOL   H28720197   2.752   6.459   0.348 -0.1015  0.4066  1.3674
   56MOL   H28820198   2.677   6.361   0.217 -1.8954 -0.8771  2.5896
   56MOL   H28920199   2.585   6.469   0.322  0.7197  0.4839 -0.0251
   56MOL   C29020200   2.538   6.812   7.596 -0.2137  0.5301  0.0746
   56MOL   C29120201   2.519   6.788   7.449  0.2204  0.2398  0.3838
   56MOL   C29220202   2.551   6.647   7.403  0.2936 -0.4167  0.8500
   56MOL   O29320203   2.616   6.632   7.299  0.1668  0.3597  0.2576
   56MOL   O29420204   2.497   6.549   7.482 -0.1072 -0.0344 -0.2481
   56MOL   C29520205   2.519   6.415   7.434  0.0389  0.7419  0.1646
   56MOL   C29620206   2.506   6.328   7.558 -0.5657 -0.3994  0.1933
   56MOL   C29720207   2.526   6.186   7.526 -0.2597  0.2363  0.0998
   56MOL   H29820208   2.514   6.917   7.616 -2.5309 -0.0672  0.5885
   56MOL   H29920209   2.462   6.753   7.647 -1.0537 -0.0611 -1.7971
   56MOL   H30020210   2.587   6.864   7.411 -0.3707  0.7944  0.4252
   56MOL   H30120211   2.439   6.410   7.361  0.3024  1.1213 -0.1568
   56MOL   H30220212   2.612   6.405   7.378  0.3148  1.5011  0.4750
   56MOL   H30320213   2.575   6.348   7.641 -1.8690 -0.4561  1.3165
   56MOL   H30420214   2.402   6.338   7.590 -0.1042 -1.8033  2.2253
   56MOL   H30520215   2.623   6.162   7.483  0.5959  2.0671  0.9547
   56MOL   H30620216   2.447   6.137   7.470  0.7518 -0.2459 -0.9281
   56MOL   H30720217   2.532   6.122   7.614 -2.6441 -1.6500 -1.0527
   56MOL   C30820218   2.373   6.822   7.397  0.6600 -0.2234  0.0948
   56MOL   C30920219   2.357   6.872   7.249 -0.3028  0.7060 -0.2163
   56MOL   C31020220   2.392   6.769   7.139 -1.0031 -0.6650  0.4061
   56MOL   O31120221   2.478   6.786   7.056  0.2515  0.1993 -0.0085
   56MOL   O31220222   2.323   6.653   7.160 -0.3681 -0.5081  0.2591
   56MOL   C31320223   2.348   6.540   7.074 -0.4821 -0.0348 -0.6842
   56MOL   C31420224   2.210   6.502   7.014 -0.1019  0.3613 -0.4035
   56MOL   C31520225   2.109   6.443   7.118 -1.2268  0.0284 -0.5435
   56MOL   H31620226   2.316   6.883   7.468 -0.0161 -2.0450  1.1554
   56MOL   H31720227   2.313   6.731   7.404 -2.3432  1.5419 -1.5559
   56MOL   H31820228   2.439   6.942   7.231  0.7136 -0.7681 -1.5106
   56MOL   H31920229   2.407   6.562   6.985 -2.3718  1.7517 -1.5319
   56MOL   H32020230   2.384   6.457   7.135  2.2204 -0.6915 -3.0669
   56MOL   H32120231   2.160   6.592   6.980 -2.6614  0.0335  2.3086
   56MOL   H32220232   2.227   6.435   6.929 -2.2821 -0.7994  0.0162
   56MOL   H32320233   2.123   6.502   7.209 -1.8062 -0.0441 -0.4084
   56MOL   H32420234   2.006   6.442   7.083 -2.0017 -0.7492  1.6814
   56MOL   H32520235   2.128   6.336   7.132 -0.3079  0.2992  0.4027
   56MOL   C32620236   2.225   6.947   7.225 -0.3922  0.7193  0.0228
   56MOL   C32720237   2.094   6.864   7.240 -1.0286  0.2563  0.4025
   56MOL   C32820238   2.053   6.832   7.385  0.3129  0.1334 -0.1657
   56MOL   O32920239   2.084   6.906   7.482 -0.0274  0.3477 -0.0028
   56MOL   O33020240   1.970   6.727   7.390 -0.4041  0.3016 -0.8875
   56MOL   C33120241   1.894   6.704   7.508  0.7039  0.4164 -0.0302
   56MOL   C33220242   1.777   6.624   7.480 -0.5521 -0.1503 -0.6453
   56MOL   C33320243   1.685   6.601   7.601  0.4692 -0.2354 -0.7088
   56MOL   H33420244   2.237   6.987   7.124  0.2947 -0.0566 -0.2021
   56MOL   H33520245   2.213   7.034   7.290 -1.7920  0.3851  0.2336
   56MOL   H33620246   2.104   6.765   7.197  0.3964 -0.0423  1.4132
   56MOL   H33720247   1.948   6.651   7.586  0.3383 -0.8317 -0.6136
   56MOL   H33820248   1.858   6.798   7.551  1.6489  0.2275  1.2144
   56MOL   H33920249   1.716   6.665   7.399  1.5946  1.3913 -1.5075
   56MOL   H34020250   1.817   6.529   7.444  1.9064  0.1994  1.0974
   56MOL   H34120251   1.654   6.699   7.637 -1.0622 -1.4151  1.2393
   56MOL   H34220252   1.601   6.534   7.585  1.7432 -1.3397 -2.9809
   56MOL   H34320253   1.744   6.562   7.683 -1.5025 -0.5153  0.6200
   56MOL   C34420254   1.979   6.943   7.175 -0.3494 -0.3079  0.1759
   56MOL   C34520255   1.853   6.866   7.131 -0.1346 -0.2656 -0.4731
   56MOL   C34620256   1.882   6.765   7.020  0.2172 -0.1610  0.1926
   56MOL   O34720257   1.871   6.645   7.034 -0.4665  0.1662 -0.1266
   56MOL   O34820258   1.914   6.824   6.907 -0.2092 -0.5070  0.5633
   56MOL   C34920259   1.960   6.752   6.793 -0.0136 -1.2740 -0.0008
   56MOL   C35020260   2.066   6.833   6.722 -0.3160  0.2527 -0.2943
   56MOL   C35120261   2.196   6.857   6.802  0.0609  0.0701 -0.3098
   56MOL   H35220262   2.020   6.992   7.087 -0.5328 -0.5308 -0.0343
   56MOL   H35320263   1.948   7.027   7.237 -1.7825 -0.0785 -0.8247
   56MOL   H35420264   1.768   6.927   7.101  1.4803  0.7403 -3.1807
   56MOL   H35520265   2.003   6.659   6.830 -1.1512 -2.1070 -0.7293
   56MOL   H35620266   1.873   6.745   6.728 -1.5400  2.1025  1.5681
   56MOL   H35720267   2.099   6.780   6.632 -0.6616 -0.7395  0.1533
   56MOL   H35820268   2.021   6.928   6.693  0.9101  0.3229 -2.0945
   56MOL   H35920269   2.250   6.764   6.820 -1.1491 -0.5593  0.1791
   56MOL   H36020270   2.258   6.928   6.748  1.7837 -0.9266  0.3068
   56MOL   H36120271   2.191   6.902   6.901 -1.1222 -1.4899  0.3783
   56MOL   H36220272   1.812   6.818   7.220  0.5040 -1.1070 -0.6397
   57MOL     C120273   3.606   7.422   2.034  0.8152  0.2732 -1.0054
   57MOL     C220274   3.559   7.286   1.981  0.5604 -0.4324 -0.5084
   57MOL     C320275   3.603   7.271   1.839  0.1010 -0.3717  0.0871
   57MOL     O420276   3.711   7.219   1.808  0.0646  0.3740 -0.1744
   57MOL     O520277   3.512   7.316   1.752 -0.7561 -0.3055 -0.1574
   57MOL     C620278   3.526   7.298   1.611  0.3121 -0.5571  0.4038
   57MOL     C720279   3.552   7.424   1.531  0.0461  0.0642 -0.0539
   57MOL     C820280   3.692   7.490   1.557 -0.1022 -0.0794 -0.5674
   57MOL     H920281   3.589   7.430   2.141  0.4632  0.1228 -1.0507
   57MOL    H1020282   3.714   7.432   2.020  0.7845  0.5607 -1.0397
   57MOL    H1120283   3.450   7.296   1.984  0.3220 -2.8118 -0.7777
   57MOL    H1220284   3.585   7.213   1.576 -0.5795 -0.6774 -0.8116
   57MOL    H1320285   3.429   7.255   1.586  1.0915 -2.2999  0.2625
   57MOL    H1420286   3.557   7.407   1.423  0.6662  0.8257 -0.1534
   57MOL    H1520287   3.473   7.500   1.533  0.8794  0.9818 -1.1654
   57MOL    H1620288   3.766   7.410   1.553 -2.0762 -1.9122 -1.1896
   57MOL    H1720289   3.708   7.578   1.494 -1.3005  0.9972  0.6174
   57MOL    H1820290   3.705   7.530   1.657  1.0927 -0.2563 -0.6353
   57MOL    H1920291   3.564   7.507   1.982  0.2745 -0.5174 -1.8714
   57MOL    C2020292   3.592   7.165   2.073  0.2804 -1.2010 -0.2041
   57MOL    C2120293   3.513   7.036   2.039  0.4756 -0.6286 -0.0595
   57MOL    C2220294   3.572   6.963   1.918 -0.2457  0.9719  0.3033
   57MOL    O2320295   3.508   6.950   1.814 -0.0423 -0.1878 -0.3581
   57MOL    O2420296   3.697   6.923   1.939 -0.1794  0.4546  0.1394
   57MOL    C2520297   3.763   6.860   1.831  0.5985  0.5506 -0.3933
   57MOL    C2620298   3.838   6.945   1.724  0.3782  0.2344 -0.1612
   57MOL    C2720299   3.925   6.869   1.630 -0.1565  1.0687  0.3456
   57MOL    H2820300   3.550   7.198   2.168  0.5382  0.7351 -0.7385
   57MOL    H2920301   3.695   7.132   2.081  0.9839  1.0975  0.4138
   57MOL    H3020302   3.407   7.054   2.018  0.3669  0.2951  1.2000
   57MOL    H3120303   3.836   6.798   1.883 -0.0009  2.3178  2.6950
   57MOL    H3220304   3.696   6.787   1.784 -0.7771  0.1738  2.0618
   57MOL    H3320305   3.782   7.012   1.660  0.5419  2.2999  1.7982
   57MOL    H3420306   3.900   7.017   1.777  0.3024  0.4403 -0.3523
   57MOL    H3520307   3.868   6.820   1.551  2.4196 -1.2946 -0.1192
   57MOL    H3620308   3.968   6.788   1.689  0.2189  1.4778  0.6405
   57MOL    H3720309   4.007   6.927   1.587 -0.6387 -0.1635 -2.3372
   57MOL    C3820310   3.511   6.945   2.168  0.6976  0.6938 -0.2148
   57MOL    C3920311   3.413   6.824   2.174  0.1957  0.0066  0.3859
   57MOL    C4020312   3.445   6.727   2.285 -0.2747  0.4614 -0.1397
   57MOL    O4120313   3.468   6.766   2.396  0.0503  0.2946 -0.2127
   57MOL    O4220314   3.449   6.601   2.241  0.0572  0.3561 -0.2532
   57MOL    C4320315   3.488   6.497   2.335  0.2224 -0.4283 -0.0357
   57MOL    C4420316   3.436   6.367   2.293 -0.0356 -0.3455  0.3965
   57MOL    C4520317   3.281   6.365   2.288 -0.3797  0.5774  0.3465
   57MOL    H4620318   3.473   7.003   2.252 -1.8162 -2.5866  1.0060
   57MOL    H4720319   3.613   6.911   2.189 -0.2884 -1.4546  1.2767
   57MOL    H4820320   3.435   6.769   2.083  1.2985 -0.2866  0.8245
   57MOL    H4920321   3.596   6.507   2.343  0.0205  2.4701 -0.3776
   57MOL    H5020322   3.450   6.526   2.433  0.6751  0.0467  0.0016
   57MOL    H5120323   3.477   6.336   2.197  3.5775 -0.6291  1.9767
   57MOL    H5220324   3.461   6.291   2.368  3.1142  0.1708 -0.0590
   57MOL    H5320325   3.246   6.390   2.388 -1.5606 -0.3790  0.1895
   57MOL    H5420326   3.244   6.266   2.263  1.6935 -0.1913  0.2650
   57MOL    H5520327   3.241   6.432   2.212  2.3906  3.0296  0.9646
   57MOL    C5620328   3.260   6.861   2.181 -0.8266  0.0601 -0.3947
   57MOL    C5720329   3.156   6.750   2.143  0.0713 -0.1158 -0.1232
   57MOL    C5820330   3.048   6.745   2.253 -0.3829 -0.1236  0.4180
   57MOL    O5920331   3.043   6.644   2.322  0.2491  0.1249  0.5750
   57MOL    O6020332   2.965   6.858   2.247  0.6400 -0.7962  0.1450
   57MOL    C6120333   2.889   6.874   2.361  0.7073  0.4908  0.0757
   57MOL    C6220334   2.897   7.025   2.427  0.4798  0.0370 -0.0835
   57MOL    C6320335   3.040   7.040   2.486  0.0969 -0.4781 -0.3599
   57MOL    H6420336   3.242   6.950   2.122  0.5787  1.7671  1.6650
   57MOL    H6520337   3.250   6.903   2.281  0.2523 -0.1843 -0.1716
   57MOL    H6620338   3.213   6.657   2.142  1.3541  0.6536  0.3684
   57MOL    H6720339   2.792   6.836   2.327  2.7439 -2.4890 -2.6520
   57MOL    H6820340   2.910   6.817   2.452  0.3497  1.1163  0.5615
   57MOL    H6920341   2.880   7.097   2.347  1.7717  0.2516 -0.1716
   57MOL    H7020342   2.826   7.037   2.509 -0.7437  1.9785 -1.3914
   57MOL    H7120343   3.083   6.970   2.558  0.2814 -1.3134 -1.2615
   57MOL    H7220344   3.033   7.140   2.528  0.0526 -0.9067  0.6783
   57MOL    H7320345   3.121   7.057   2.415  0.7513 -1.3319  0.1673
   57MOL    C7420346   3.096   6.780   2.002  0.2164  0.6755 -0.3082
   57MOL    C7520347   3.197   6.797   1.889  0.1512  0.5447  0.2255
   57MOL    C7620348   3.264   6.664   1.845  0.6884 -0.2941  0.1911
   57MOL    O7720349   3.221   6.553   1.882  0.2776  0.0590  0.0661
   57MOL    O7820350   3.379   6.681   1.776 -0.0398  0.1424  0.0130
   57MOL    C7920351   3.422   6.573   1.694  0.0516  0.8617  0.0986
   57MOL    C8020352   3.451   6.624   1.549 -0.1016 -0.0237 -0.0090
   57MOL    C8120353   3.572   6.706   1.524  0.1712  0.5412  0.0896
   57MOL    H8220354   3.038   6.872   2.014  1.0337  1.0779  0.6505
   57MOL    H8320355   3.025   6.701   1.977 -1.9315  2.3671  0.2037
   57MOL    H8420356   3.278   6.865   1.915  0.3134 -0.1760  1.6458
   57MOL    H8520357   3.503   6.527   1.752  1.5000  2.2918 -0.7778
   57MOL    H8620358   3.347   6.495   1.678  0.1081  1.0270 -0.9518
   57MOL    H8720359   3.457   6.534   1.489 -0.3521 -0.6986  0.9582
   57MOL    H8820360   3.363   6.673   1.507  0.1610  0.2527 -0.2393
   57MOL    H8920361   3.596   6.742   1.423  0.8638  1.1092  0.4511
   57MOL    H9020362   3.664   6.670   1.571 -0.6585  1.9538  2.9213
   57MOL    H9120363   3.553   6.798   1.579 -1.0456 -0.2211  0.9492
   57MOL    C9220364   3.122   6.847   1.763 -0.5967 -0.0565 -0.1811
   57MOL    C9320365   3.213   6.934   1.674 -0.0657 -0.0225  0.6426
   57MOL    C9420366   3.172   6.932   1.518 -0.2611  0.1843  0.2659
   57MOL    O9520367   3.066   6.887   1.479  0.3791 -0.4930  0.1023
   57MOL    O9620368   3.260   6.983   1.438  0.9929 -0.0383  0.0588
   57MOL    C9720369   3.233   7.002   1.307  0.8107  0.1919 -0.0648
   57MOL    C9820370   3.318   7.119   1.248 -0.1612 -0.2815 -0.7982
   57MOL    C9920371   3.275   7.251   1.302 -0.1045  0.0808  0.5001
   57MOL   H10020372   3.032   6.899   1.794 -1.0470  0.2512 -1.9169
   57MOL   H10120373   3.074   6.773   1.698 -1.0888  0.1697 -0.0760
   57MOL   H10220374   3.308   6.882   1.667  0.7689  1.3544  1.5535
   57MOL   H10320375   3.239   6.907   1.253  0.3243  0.2839 -0.2829
   57MOL   H10420376   3.129   7.034   1.302  0.7417  0.5986  3.0470
   57MOL   H10520377   3.412   7.091   1.295 -1.0905  0.1543  1.3964
   57MOL   H10620378   3.317   7.103   1.140  0.4262  1.7251 -1.1288
   57MOL   H10720379   3.346   7.322   1.260  1.8452 -2.1763 -0.1340
   57MOL   H10820380   3.297   7.263   1.408  1.1652  0.3890  0.2087
   57MOL   H10920381   3.173   7.269   1.269  0.1354  2.7558  1.1199
   57MOL   C11020382   3.237   7.079   1.728  0.3158  0.0354 -0.6166
   57MOL   C11120383   3.104   7.156   1.753  0.5686  0.5556 -0.2997
   57MOL   C11220384   3.060   7.147   1.899  0.2354  0.0108  0.4044
   57MOL   O11320385   3.139   7.160   1.986 -0.5257 -0.4154  0.0622
   57MOL   O11420386   2.926   7.166   1.916 -0.3892 -0.4457 -0.0067
   57MOL   C11520387   2.884   7.211   2.050  0.2356 -0.4422 -0.3480
   57MOL   C11620388   2.735   7.184   2.070  0.4077  0.2461  0.1130
   57MOL   C11720389   2.638   7.242   1.964 -0.1862  0.7365  0.2894
   57MOL   H11820390   3.301   7.135   1.659  2.5063  0.2831  1.5364
   57MOL   H11920391   3.291   7.083   1.823 -0.3304  1.0436 -0.2796
   57MOL   H12020392   3.030   7.096   1.701  0.8553  0.9808 -1.2235
   57MOL   H12120393   2.939   7.159   2.129  0.1783 -1.1991 -0.8040
   57MOL   H12220394   2.895   7.319   2.057 -0.9441 -0.2275 -1.6467
   57MOL   H12320395   2.710   7.080   2.054  1.1315  0.3525 -1.7530
   57MOL   H12420396   2.704   7.186   2.175  0.0792  1.7979  0.0012
   57MOL   H12520397   2.674   7.339   1.930  0.7677  0.0844 -0.5919
   57MOL   H12620398   2.537   7.246   2.005 -0.3594  2.3602 -0.2584
   57MOL   H12720399   2.629   7.179   1.876 -0.0486  0.4221  0.4988
   57MOL   C12820400   3.115   7.307   1.710  0.0092  0.4562  0.1112
   57MOL   C12920401   2.983   7.355   1.653 -0.3289 -0.7338 -0.4017
   57MOL   C13020402   2.968   7.511   1.677 -0.1805 -0.1786 -0.1919
   57MOL   O13120403   2.983   7.593   1.588  0.2000 -0.5328 -0.1271
   57MOL   O13220404   2.938   7.541   1.814 -0.2438 -0.1217 -0.5469
   57MOL   C13320405   2.894   7.678   1.831  0.2904  0.3975 -0.2558
   57MOL   C13420406   2.847   7.701   1.978 -0.3166 -1.0638 -0.6406
   57MOL   C13520407   2.957   7.705   2.086  0.1255 -0.5941  0.0880
   57MOL   H13620408   3.178   7.316   1.622 -2.0600  0.9836 -1.3305
   57MOL   H13720409   3.164   7.366   1.788 -0.9940 -0.3677  1.4043
   57MOL   H13820410   2.905   7.314   1.716 -1.2723  3.2429  1.1699
   57MOL   H13920411   2.982   7.737   1.805  0.7782 -1.0161 -1.9117
   57MOL   H14020412   2.802   7.690   1.774  0.4248  2.8644 -0.0107
   57MOL   H14120413   2.800   7.799   1.983  0.3478 -0.6296 -2.5170
   57MOL   H14220414   2.765   7.633   1.999  0.4955 -2.9889 -3.4257
   57MOL   H14320415   2.921   7.691   2.188 -1.0938  1.4209 -0.0444
   57MOL   H14420416   3.012   7.799   2.085 -2.7173  1.1560  1.1467
   57MOL   H14520417   3.040   7.634   2.077  0.9531  0.3846 -0.0149
   57MOL   C14620418   2.962   7.322   1.504  0.1909  0.2026  0.1931
   57MOL   C14720419   2.809   7.315   1.455 -0.2321  0.3098 -0.3471
   57MOL   C14820420   2.732   7.223   1.550  0.2103  0.3094  0.8493
   57MOL   O14920421   2.652   7.274   1.629 -0.0875  0.4076  0.1588
   57MOL   O15020422   2.751   7.090   1.536  0.1368  0.0864  0.3550
   57MOL   C15120423   2.686   6.995   1.613 -0.1136 -0.2641  0.2928
   57MOL   C15220424   2.783   6.879   1.635  0.1029 -0.0411  0.2220
   57MOL   C15320425   2.750   6.811   1.764  0.3973  1.0721  0.4552
   57MOL   H15420426   2.992   7.221   1.479  0.6564  0.9129 -2.2459
   57MOL   H15520427   3.034   7.383   1.450  1.1150  1.0006  2.2695
   57MOL   H15620428   2.811   7.258   1.362 -1.9677  0.3174 -0.3907
   57MOL   H15720429   2.667   7.040   1.711  2.4244  3.2484 -0.7102
   57MOL   H15820430   2.596   6.951   1.571 -0.9021 -1.5114  3.1971
   57MOL   H15920431   2.773   6.816   1.547 -0.5849  3.4494 -2.3246
   57MOL   H16020432   2.880   6.929   1.628 -0.8020  1.4644 -2.4722
   57MOL   H16120433   2.827   6.736   1.778 -0.3402  0.1917 -0.1573
   57MOL   H16220434   2.649   6.771   1.763  0.2068  1.4325  2.5058
   57MOL   H16320435   2.754   6.883   1.845 -1.9092  0.8673  0.7952
   57MOL   C16420436   2.731   7.453   1.435  0.5381 -0.1346  0.0807
   57MOL   C16520437   2.798   7.548   1.323 -0.2444 -0.1461  0.7320
   57MOL   C16620438   2.780   7.486   1.192 -1.1012  0.9121 -0.1232
   57MOL   O16720439   2.870   7.439   1.120 -0.2765  0.2530  0.1849
   57MOL   O16820440   2.649   7.484   1.155  0.0093 -0.6445 -0.1860
   57MOL   C16920441   2.600   7.404   1.049  0.1268 -0.0256 -0.2139
   57MOL   C17020442   2.612   7.494   0.922 -0.0074 -0.1413 -0.2056
   57MOL   C17120443   2.563   7.427   0.799 -0.3184 -0.1293  0.5685
   57MOL   H17220444   2.717   7.513   1.525 -1.5609 -1.1086  0.4257
   57MOL   H17320445   2.631   7.428   1.401 -0.6837  1.9311  2.0335
   57MOL   H17420446   2.906   7.546   1.338 -0.1542 -0.6898  0.0379
   57MOL   H17520447   2.660   7.314   1.034  2.0604  1.4939 -1.9045
   57MOL   H17620448   2.493   7.400   1.065  0.2183  1.5593  0.8940
   57MOL   H17720449   2.543   7.577   0.942  1.3828  1.2163 -0.9184
   57MOL   H17820450   2.710   7.539   0.908 -0.9338  1.6765 -1.1352
   57MOL   H17920451   2.602   7.325   0.800  1.6261  0.6034  2.0076
   57MOL   H18020452   2.598   7.477   0.709  0.3037  0.9126  1.3803
   57MOL   H18120453   2.454   7.415   0.796 -0.3525  0.3977 -0.4204
   57MOL   C18220454   2.754   7.698   1.321  0.6780  0.5226  0.6062
   57MOL   C18320455   2.870   7.792   1.358 -0.6728 -0.7560  0.4445
   57MOL   C18420456   2.990   7.775   1.262 -0.5160 -0.5123  0.1973
   57MOL   O18520457   3.100   7.746   1.309  0.3767  0.4265  0.1860
   57MOL   O18620458   2.953   7.792   1.134  0.7118  0.5455  0.2298
   57MOL   C18720459   3.049   7.764   1.037  0.1421  0.2715  0.2840
   57MOL   C18820460   2.991   7.793   0.900  0.7155  0.4010  0.4401
   57MOL   C18920461   3.104   7.771   0.795 -0.4540  0.6408  0.1447
   57MOL   H19020462   2.677   7.725   1.393  1.3174  1.2403  1.0237
   57MOL   H19120463   2.709   7.720   1.224  0.3434 -0.2095  0.5980
   57MOL   H19220464   2.900   7.771   1.461 -0.2143  2.2093  0.9404
   57MOL   H19320465   3.142   7.820   1.049 -1.1615  2.0498  2.6016
   57MOL   H19420466   3.092   7.664   1.037  0.3024  0.3073 -1.7466
   57MOL   H19520467   2.912   7.722   0.881  0.1104  1.2010 -0.0724
   57MOL   H19620468   2.959   0.016   0.911  1.0695  0.5142  0.4360
   57MOL   H19720469   3.064   7.816   0.704  1.0726  0.0067 -0.8654
   57MOL   H19820470   3.118   7.664   0.784 -1.7523  0.5016 -0.1947
   57MOL   H19920471   3.198   7.822   0.818 -0.3475  0.7648 -0.5358
   57MOL   C20020472   2.827   0.056   1.368  0.3927 -0.1762 -0.3668
   57MOL   C20120473   2.783   0.100   1.504  0.5197  0.9388  0.0153
   57MOL   C20220474   2.899   0.119   1.598 -0.4694  0.5118  0.3630
   57MOL   O20320475   2.884   0.117   1.720  0.3432  0.4523  0.0462
   57MOL   O20420476   3.019   0.145   1.537  0.1628  0.1565  0.2730
   57MOL   C20520477   3.140   0.179   1.613  0.2408 -0.4196 -0.5039
   57MOL   C20620478   3.241   0.242   1.519  0.0117 -0.3162  0.4339
   57MOL   C20720479   3.298   0.153   1.409  0.2864  0.0392  0.0161
   57MOL   H20820480   2.755   0.062   1.287  0.3264 -2.6692 -0.5073
   57MOL   H20920481   2.899   0.129   1.331 -0.8719  2.1904  1.5924
   57MOL   H21020482   2.736   0.009   1.541  1.0851 -0.7573 -3.2669
   57MOL   H21120483   3.116   0.253   1.690  2.3662 -0.4905  0.2654
   57MOL   H21220484   3.191   0.091   1.651  3.3305  1.1162 -0.8725
   57MOL   H21320485   3.209   0.338   1.480 -0.2298 -0.0724  1.2294
   57MOL   H21420486   3.325   0.269   1.583  1.8837 -0.9368 -1.7133
   57MOL   H21520487   3.219   0.128   1.339 -1.0776 -1.8994  2.1930
   57MOL   H21620488   3.355   0.065   1.440  1.4906  1.3515  1.6264
   57MOL   H21720489   3.361   0.219   1.348  2.3783 -0.4923  1.5266
   57MOL   C21820490   2.687   0.223   1.501  0.0946 -0.4712 -0.2979
   57MOL   C21920491   2.544   0.172   1.465  0.3907  0.4182  0.1273
   57MOL   C22020492   2.466   0.121   1.591  0.1486 -0.3540 -0.2158
   57MOL   O22120493   2.362   0.171   1.627  0.4564  0.2239  0.3182
   57MOL   O22220494   2.517   0.004   1.637  0.0411  0.1051 -0.2395
   57MOL   C22320495   2.477   7.820   1.758 -0.7425  0.1629 -0.5516
   57MOL   C22420496   2.502   7.669   1.738  0.5759 -0.3461 -0.4535
   57MOL   C22520497   2.458   7.603   1.869 -0.2948  0.4581  0.1179
   57MOL   H22620498   2.728   0.303   1.441 -0.5037 -0.0247 -0.1137
   57MOL   H22720499   2.681   0.262   1.603 -1.3820  0.1633 -0.6112
   57MOL   H22820500   2.554   0.085   1.400 -2.4051 -1.1442  1.7126
   57MOL   H22920501   2.538   7.862   1.838  0.8287 -0.3026 -1.4862
   57MOL   H23020502   2.375   7.853   1.775 -1.2968 -0.3211 -2.7009
   57MOL   H23120503   2.435   7.634   1.659 -0.3165 -1.8879  0.9638
   57MOL   H23220504   2.601   7.633   1.711  0.9836  0.1192  0.4140
   57MOL   H23320505   2.354   7.632   1.886 -0.5098  0.7010 -1.4775
   57MOL   H23420506   2.506   7.647   1.957  1.0728  0.8609 -0.8144
   57MOL   H23520507   2.461   7.495   1.873 -1.3151  0.2215 -3.3628
   57MOL   C23620508   2.467   0.291   1.399 -0.1442 -0.0389 -0.3380
   57MOL   C23720509   2.515   0.309   1.252  0.1790 -0.0728 -0.1780
   57MOL   C23820510   2.467   0.189   1.163 -0.7125 -0.5527 -0.2999
   57MOL   O23920511   2.379   0.112   1.199 -0.1780 -0.0124 -0.5426
   57MOL   O24020512   2.528   0.181   1.045 -0.2718  0.4150 -0.4958
   57MOL   C24120513   2.527   0.061   0.970 -0.2330  0.1840  0.4754
   57MOL   C24220514   2.644   0.074   0.877 -0.4363  0.2904  0.5967
   57MOL   C24320515   2.641   7.848   0.766  0.0667 -0.3393  0.0485
   57MOL   H24420516   2.476   0.380   1.460 -0.2905 -0.5844  0.4845
   57MOL   H24520517   2.363   0.258   1.392 -0.4979  1.2084 -1.0068
   57MOL   H24620518   2.623   0.298   1.253 -0.0685 -2.8395 -0.5850
   57MOL   H24720519   2.557   7.858   1.034 -1.1235  1.3080  2.3906
   57MOL   H24820520   2.432   0.040   0.920 -0.7526 -0.7506  1.8150
   57MOL   H24920521   2.641   0.174   0.834  0.2846 -0.4810 -1.2757
   57MOL   H25020522   2.736   0.078   0.936  0.3103  0.8218 -0.5912
   57MOL   H25120523   2.738   7.833   0.719  1.3460  1.9055  1.8816
   57MOL   H25220524   2.570   7.868   0.686  1.8796  2.8339 -0.8611
   57MOL   H25320525   2.624   7.752   0.814 -0.3150 -1.3888 -2.1041
   57MOL   C25420526   2.487   0.452   1.198  0.3029 -0.0377 -0.0501
   57MOL   C25520527   2.338   0.482   1.145 -0.0852 -0.4056 -0.7517
   57MOL   C25620528   2.302   0.632   1.179 -0.1034  0.1241  0.2233
   57MOL   O25720529   2.382   0.727   1.158  0.0811 -1.1391  0.3513
   57MOL   O25820530   2.179   0.642   1.213 -0.3830  0.0032  0.5351
   57MOL   C25920531   2.113   0.769   1.234  0.6234  0.2161 -0.9788
   57MOL   C26020532   1.988   0.752   1.307 -0.6870  0.8007  0.9156
   57MOL   C26120533   1.892   0.682   1.212 -0.0085 -0.6728  0.1243
   57MOL   H26220534   2.564   0.493   1.132 -0.9697  0.2907 -1.3574
   57MOL   H26320535   2.504   0.522   1.280  0.5608 -0.6348  0.4012
   57MOL   H26420536   2.268   0.432   1.212  0.3961  0.9250  0.7843
   57MOL   H26520537   2.181   0.836   1.287 -0.8948  0.3751  0.8164
   57MOL   H26620538   2.093   0.803   1.133  0.7883  0.5547 -0.8986
   57MOL   H26720539   2.003   0.701   1.402 -0.0566 -3.1914 -1.2285
   57MOL   H26820540   1.949   0.852   1.326  2.2128  1.9992  0.6644
   57MOL   H26920541   1.890   0.575   1.231  3.3456 -0.9420 -0.6292
   57MOL   H27020542   1.924   0.701   1.110 -0.7091  1.2082  0.2270
   57MOL   H27120543   1.790   0.721   1.218 -0.0117 -0.9232  1.9322
   57MOL   C27220544   2.313   0.459   0.990 -0.0355  0.2342 -0.0415
   57MOL   C27320545   2.353   0.563   0.876  0.3270  0.8959  0.0557
   57MOL   C27420546   2.503   0.556   0.848 -0.1023 -0.2018  0.2343
   57MOL   O27520547   2.555   0.456   0.790 -0.0856  0.2234 -0.3007
   57MOL   O27620548   2.568   0.664   0.884  0.1550  0.0339  0.1661
   57MOL   C27720549   2.707   0.664   0.867  0.8638 -0.1171  0.1247
   57MOL   C27820550   2.770   0.807   0.896  0.3961  0.6921 -0.1451
   57MOL   C27920551   2.745   0.835   1.043  0.1546 -0.0120 -0.1261
   57MOL   H28020552   2.206   0.441   0.987 -0.0586 -0.1322  2.1474
   57MOL   H28120553   2.352   0.362   0.958 -4.5778 -0.7453 -3.0348
   57MOL   H28220554   2.334   0.667   0.902 -4.1597  0.4817 -1.2134
   57MOL   H28320555   2.743   0.582   0.929  0.4901 -0.2479  0.1640
   57MOL   H28420556   2.720   0.653   0.759 -0.7137 -1.1296  0.0261
   57MOL   H28520557   2.876   0.809   0.873  0.2299 -0.4021 -1.0598
   57MOL   H28620558   2.719   0.885   0.839  1.0633  0.1644 -1.4702
   57MOL   H28720559   2.638   0.844   1.065  0.2877 -1.9126  1.5285
   57MOL   H28820560   2.800   0.920   1.081 -2.4980  1.2496  1.0445
   57MOL   H28920561   2.775   0.748   1.102 -0.3262 -1.3223 -1.7612
   57MOL   C29020562   2.266   0.541   0.749 -0.7047  0.3742 -0.1644
   57MOL   C29120563   2.123   0.611   0.760  0.2049 -0.6756 -0.1940
   57MOL   C29220564   2.108   0.760   0.799  0.3889 -0.1469 -0.5261
   57MOL   O29320565   2.017   0.795   0.875 -0.0171 -0.0915 -0.1684
   57MOL   O29420566   2.201   0.835   0.738 -0.2821  0.8348  0.0032
   57MOL   C29520567   2.202   0.975   0.749 -0.1505  0.1471  0.2900
   57MOL   C29620568   2.281   1.032   0.872 -0.0182  0.6821  1.0267
   57MOL   C29720569   2.428   1.025   0.837  0.8843  0.7303 -0.2038
   57MOL   H29820570   2.255   0.434   0.726  1.2848 -0.0028  0.5821
   57MOL   H29920571   2.321   0.580   0.664 -2.5615  1.3348 -0.9522
   57MOL   H30020572   2.065   0.567   0.841  0.1442 -2.6970 -1.3134
   57MOL   H30120573   2.246   1.011   0.657 -0.1534 -1.2160 -0.2619
   57MOL   H30220574   2.101   1.016   0.750 -0.3354 -0.2874  1.3421
   57MOL   H30320575   2.235   1.131   0.878  0.1435  1.2077 -4.1211
   57MOL   H30420576   2.267   0.977   0.965  0.0186  1.9252  1.7851
   57MOL   H30520577   2.466   1.049   0.738  0.9247 -0.2684 -0.4335
   57MOL   H30620578   2.457   0.921   0.853 -2.2330 -0.4261 -1.6656
   57MOL   H30720579   2.480   1.079   0.916  0.2094 -1.0934  1.5270
   57MOL   C30820580   2.038   0.582   0.633  0.2190  0.3367  0.3116
   57MOL   C30920581   1.974   0.438   0.626 -0.4566 -0.0745  0.2188
   57MOL   C31020582   1.922   0.383   0.760 -0.7366 -0.7880 -0.5653
   57MOL   O31120583   1.996   0.320   0.831  0.3736 -0.6046  0.1717
   57MOL   O31220584   1.808   0.438   0.808 -0.0085  0.3624  0.3335
   57MOL   C31320585   1.733   0.379   0.910 -0.2998 -0.1119 -0.8813
   57MOL   C31420586   1.635   0.275   0.863  1.2175  0.3815  0.0388
   57MOL   C31520587   1.517   0.261   0.970  0.1489  0.3420 -0.5283
   57MOL   H31620588   2.104   0.608   0.551  1.1463 -0.6793  0.7254
   57MOL   H31720589   1.954   0.652   0.638  1.1291  1.5172 -0.5722
   57MOL   H31820590   2.062   0.379   0.599 -1.1474 -0.7090 -0.6839
   57MOL   H31920591   1.788   0.341   0.996 -0.8287  0.9143 -0.0827
   57MOL   H32020592   1.666   0.458   0.943 -0.9715  0.5881 -3.7913
   57MOL   H32120593   1.588   0.286   0.765 -0.6418  1.2965  0.9935
   57MOL   H32220594   1.694   0.184   0.861  1.6662  0.6850 -0.9160
   57MOL   H32320595   1.468   0.358   0.976 -1.3525 -0.5319  1.8620
   57MOL   H32420596   1.433   0.196   0.948 -0.6863  0.3372  2.5330
   57MOL   H32520597   1.565   0.235   1.064  0.7215  1.2029 -0.5694
   57MOL   C32620598   1.868   0.435   0.506  0.6418 -0.0014 -0.2970
   57MOL   C32720599   1.898   0.323   0.397  0.0942 -0.1311 -0.0351
   57MOL   C32820600   1.889   0.183   0.451 -0.4447  1.0315  0.2516
   57MOL   O32920601   1.952   0.088   0.396 -0.5743  0.2167 -0.1425
   57MOL   O33020602   1.818   0.159   0.561  0.1101  0.5603  0.1421
   57MOL   C33120603   1.786   0.027   0.612 -0.3020 -0.0865 -0.2340
   57MOL   C33220604   1.640   0.007   0.599  0.3743 -0.1307 -0.1039
   57MOL   C33320605   1.592   7.843   0.466  0.4927 -0.3388 -0.5185
   57MOL   H33420606   1.879   0.529   0.453  2.3078 -0.6623 -1.1403
   57MOL   H33520607   1.765   0.422   0.540  0.9611 -0.0479  0.6703
   57MOL   H33620608   2.000   0.324   0.357  0.2966 -1.8526  0.3982
   57MOL   H33720609   1.842   7.828   0.563  0.6988  0.5410 -0.1251
   57MOL   H33820610   1.818   0.027   0.716  3.0545 -0.0795 -1.1917
   57MOL   H33920611   1.608   7.812   0.671  1.6143  0.9937  1.6633
   57MOL   H34020612   1.590   0.100   0.626 -0.9824 -0.5806 -0.9863
   57MOL   H34120613   1.604   0.040   0.391 -0.9693  2.2945  1.8673
   57MOL   H34220614   1.653   7.760   0.431  3.4438  2.1010 -1.4415
   57MOL   H34320615   1.486   7.818   0.468  0.1247  1.2493  0.7258
   57MOL   C34420616   1.818   0.337   0.264 -0.0154 -0.3650 -0.2151
   57MOL   C34520617   1.664   0.353   0.296  0.3664 -0.2874 -0.0286
   57MOL   C34620618   1.585   0.341   0.166 -0.2168  0.4919 -0.0801
   57MOL   O34720619   1.500   0.249   0.149  0.3467  0.6985  0.3427
   57MOL   O34820620   1.618   0.449   0.089  0.0886 -0.7902 -0.2731
   57MOL   C34920621   1.546   0.486   7.853  0.3588  0.3213  0.3929
   57MOL   C35020622   1.565   0.389   7.737  0.2316  0.0936 -0.3865
   57MOL   C35120623   1.717   0.390   7.687  0.0708  0.0818  0.4055
   57MOL   H35220624   1.836   0.248   0.204 -1.9164 -1.2699  0.5352
   57MOL   H35320625   1.863   0.420   0.208 -1.9470  2.2032  1.9232
   57MOL   H35420626   1.632   0.448   0.338 -0.6574 -1.4616  1.9179
   57MOL   H35520627   1.444   0.519   7.875  0.1109 -0.4439  0.3955
   57MOL   H35620628   1.593   0.576   7.814  1.3436 -0.4888 -0.3070
   57MOL   H35720629   1.533   0.286   7.755  1.0714 -0.4085 -1.7025
   57MOL   H35820630   1.509   0.426   7.652  0.5526  1.9077  0.1764
   57MOL   H35920631   1.739   0.328   7.601 -0.9693 -1.6853  1.4010
   57MOL   H36020632   1.752   0.489   7.656  1.6234 -0.0405  1.6713
   57MOL   H36120633   1.787   0.360   7.766 -1.0163 -0.8813  1.0262
   57MOL   H36220634   1.633   0.268   0.357  1.2011  1.1117  2.3906
   58MOL     C120635   1.028   1.910   1.623 -0.4211  0.3331 -0.2453
   58MOL     C220636   0.949   1.796   1.559 -0.2056  0.2126  0.3373
   58MOL     C320637   1.035   1.709   1.474  0.7194  0.7405  0.3574
   58MOL     O420638   1.152   1.729   1.450 -0.7470 -0.3907  0.2154
   58MOL     O520639   0.963   1.597   1.431  0.0685  0.7906 -0.2229
   58MOL     C620640   1.033   1.484   1.374 -0.0791 -0.9628 -0.2919
   58MOL     C720641   0.934   1.382   1.319 -0.8283 -0.2399  0.3142
   58MOL     C820642   0.829   1.448   1.217  0.4291 -0.6820  0.5833
   58MOL     H920643   1.061   1.870   1.719  3.0286  0.1967 -1.4336
   58MOL    H1020644   1.112   1.937   1.559 -0.1342 -2.1640 -0.9669
   58MOL    H1120645   0.880   1.849   1.493 -0.5059  0.0785  0.5425
   58MOL    H1220646   1.105   1.502   1.294  0.3654  0.2591  0.3809
   58MOL    H1320647   1.094   1.455   1.460 -1.1931  1.3085  1.2919
   58MOL    H1420648   0.993   1.296   1.286  1.9374  1.7477 -0.0360
   58MOL    H1520649   0.877   1.363   1.410 -0.0721  2.9611  1.5224
   58MOL    H1620650   0.874   1.469   1.120  0.8088  1.5971  1.2238
   58MOL    H1720651   0.747   1.377   1.203  0.5935 -1.1318  1.8379
   58MOL    H1820652   0.781   1.533   1.266  0.6232  0.0139 -0.4051
   58MOL    H1920653   0.974   2.001   1.649 -0.9294 -0.0021 -0.1127
   58MOL    C2020654   0.868   1.717   1.666 -0.3961 -0.4065  0.4481
   58MOL    C2120655   0.760   1.787   1.755  0.2777 -0.3052  0.5761
   58MOL    C2220656   0.680   1.886   1.666 -0.2244  0.0945 -0.2089
   58MOL    O2320657   0.689   2.006   1.664 -0.2264  0.1173 -0.2641
   58MOL    O2420658   0.612   1.822   1.579 -0.0875  0.0910 -0.1814
   58MOL    C2520659   0.563   1.881   1.461  0.3452 -0.0857  0.3996
   58MOL    C2620660   0.445   1.799   1.402  0.6155 -0.9654  0.1150
   58MOL    C2720661   0.500   1.667   1.355  0.1292 -0.1439  0.8741
   58MOL    H2820662   0.938   1.658   1.725  0.2541 -2.7304 -2.5363
   58MOL    H2920663   0.816   1.629   1.626 -0.5409 -0.4241  0.6687
   58MOL    H3020664   0.815   1.845   1.829  0.5445 -0.2882  0.3663
   58MOL    H3120665   0.533   1.982   1.488  0.0321  0.0128 -0.2955
   58MOL    H3220666   0.646   1.906   1.395  0.4893  0.5334  0.8118
   58MOL    H3320667   0.360   1.793   1.470 -0.8717  2.9748 -1.2319
   58MOL    H3420668   0.408   1.852   1.315  2.5930 -2.9838 -2.0253
   58MOL    H3520669   0.601   1.682   1.318  0.0319  0.0998  0.7053
   58MOL    H3620670   0.457   1.630   1.261  1.0211  0.7846  0.0960
   58MOL    H3720671   0.493   1.584   1.425  0.0164 -0.7889  0.1112
   58MOL    C3820672   0.671   1.689   1.838  0.9487 -0.6066  0.2490
   58MOL    C3920673   0.553   1.758   1.923 -0.5446  0.2020  0.1824
   58MOL    C4020674   0.426   1.786   1.844 -0.8273  0.4661  0.5187
   58MOL    O4120675   0.381   1.899   1.825  0.2154 -0.6068  0.0326
   58MOL    O4220676   0.362   1.670   1.814 -0.0183  0.7257  0.4165
   58MOL    C4320677   0.246   1.670   1.725  0.2741 -0.4700  0.2426
   58MOL    C4420678   0.124   1.619   1.798  0.0878 -0.0175  0.0208
   58MOL    C4520679   0.082   1.695   1.919  0.0290 -0.5206  0.2844
   58MOL    H4620680   0.730   1.620   1.898  1.7503  0.8572  1.1522
   58MOL    H4720681   0.633   1.611   1.771  0.3821 -0.5715  0.5218
   58MOL    H4820682   0.597   1.854   1.948  2.0878 -0.9662  0.1319
   58MOL    H4920683   0.226   1.770   1.687 -0.6714 -0.1115  1.6807
   58MOL    H5020684   0.262   1.604   1.639 -1.8754  1.5278 -1.7443
   58MOL    H5120685   0.039   1.618   1.730 -0.2394  0.1651  0.4212
   58MOL    H5220686   0.124   1.510   1.806  3.1612 -0.1494 -1.1346
   58MOL    H5320687   7.857   1.694   1.946  0.3391 -1.4639  1.4844
   58MOL    H5420688   0.090   1.803   1.903 -3.0029 -0.2243  0.4584
   58MOL    H5520689   0.130   1.668   2.013  0.2174 -1.6033 -0.1225
   58MOL    C5620690   0.540   1.683   2.054  0.1278  0.2762  0.6110
   58MOL    C5720691   0.424   1.721   2.148 -0.4709 -0.0505 -0.4196
   58MOL    C5820692   0.400   1.608   2.253 -0.3463 -0.0204 -0.9635
   58MOL    O5920693   0.450   1.605   2.371 -1.1261 -0.1353 -0.3575
   58MOL    O6020694   0.323   1.510   2.205 -0.1023 -0.1579  0.1703
   58MOL    C6120695   0.284   1.396   2.288  0.4941  1.1568 -0.7794
   58MOL    C6220696   0.147   1.346   2.257 -0.0007 -0.0309  0.4258
   58MOL    C6320697   0.134   1.273   2.122  0.4233  0.1326 -0.0191
   58MOL    H6420698   0.631   1.703   2.110 -0.5148 -2.1744  2.6003
   58MOL    H6520699   0.534   1.578   2.027 -1.8577 -0.7216  4.4681
   58MOL    H6620700   0.335   1.735   2.086 -1.8367  0.2888  1.5530
   58MOL    H6720701   0.362   1.320   2.277  0.5332  0.5020  3.4371
   58MOL    H6820702   0.275   1.429   2.391  0.7905  1.8067 -0.9601
   58MOL    H6920703   0.129   1.263   2.325 -1.8117 -0.2695 -0.3098
   58MOL    H7020704   0.071   1.420   2.282  0.1142  0.2645 -0.0956
   58MOL    H7120705   0.201   1.187   2.120  0.0016 -0.2472  1.5270
   58MOL    H7220706   0.176   1.340   2.047  0.3519  2.3691  1.8557
   58MOL    H7320707   0.037   1.232   2.095  0.8671 -3.0429  2.8240
   58MOL    C7420708   0.439   1.860   2.219  0.0851 -0.0243 -0.3622
   58MOL    C7520709   0.318   1.906   2.303  0.4353 -0.1060 -0.7656
   58MOL    C7620710   0.360   1.980   2.423  0.1642 -0.2616 -0.1899
   58MOL    O7720711   0.312   1.955   2.531 -0.5859 -0.2368 -0.3301
   58MOL    O7820712   0.432   2.081   2.390 -0.0484  0.0029 -0.1286
   58MOL    C7920713   0.461   2.181   2.488 -0.4158  0.7742  0.1796
   58MOL    C8020714   0.486   2.312   2.412 -0.7141 -0.2790  0.2953
   58MOL    C8120715   0.532   2.428   2.503 -0.3650 -0.3970  0.5907
   58MOL    H8220716   0.467   1.942   2.153  0.1495  0.3543  0.1345
   58MOL    H8320717   0.525   1.858   2.287  0.9519 -1.5924 -1.4763
   58MOL    H8420718   0.279   1.816   2.352 -1.1642  0.5977 -0.6980
   58MOL    H8520719   0.377   2.186   2.556  1.4775 -1.0942  2.7407
   58MOL    H8620720   0.551   2.159   2.545  0.8673  1.0023 -1.6881
   58MOL    H8720721   0.563   2.295   2.336  0.1900  0.8413  0.9387
   58MOL    H8820722   0.402   2.338   2.348 -0.8318 -2.4059 -0.4436
   58MOL    H8920723   0.635   2.420   2.537  0.4655  0.8468 -1.5279
   58MOL    H9020724   0.474   2.439   2.595  0.2139 -1.9674  1.1489
   58MOL    H9120725   0.516   2.515   2.439 -3.4402 -1.1392  0.2693
   58MOL    C9220726   0.216   1.987   2.208 -0.4285 -0.0005 -0.4773
   58MOL    C9320727   0.090   2.051   2.270 -1.1382 -0.2445 -0.0092
   58MOL    C9420728   0.016   2.133   2.165  0.7848 -0.6443 -0.8499
   58MOL    O9520729   7.804   2.090   2.098 -0.2294 -0.1492  0.1415
   58MOL    O9620730   0.071   2.256   2.147  0.3963  0.0382  0.3213
   58MOL    C9720731   7.871   2.355   2.081  0.1480 -0.1466 -0.3582
   58MOL    C9820732   0.012   2.347   1.933  0.1367  0.6011  0.3731
   58MOL    C9920733   7.826   2.456   1.841 -0.8807  0.7884  0.1775
   58MOL   H10020734   0.168   1.917   2.140 -1.8125 -0.0152  0.4733
   58MOL   H10120735   0.272   2.053   2.143 -0.3092 -0.3196 -0.7029
   58MOL   H10220736   0.117   2.118   2.351  0.6213 -1.3356  0.3475
   58MOL   H10320737   7.767   2.334   2.107  0.2935  0.8327  1.0699
   58MOL   H10420738   0.015   2.458   2.106  2.4631 -0.9516  0.8523
   58MOL   H10520739   0.120   2.354   1.916 -0.0049  1.1157 -0.3167
   58MOL   H10620740   7.862   2.249   1.894 -4.2137  1.0679  2.2920
   58MOL   H10720741   7.723   2.477   1.870 -1.2067 -0.5072  0.0077
   58MOL   H10820742   7.832   2.444   1.733  0.5254  1.8754  0.1185
   58MOL   H10920743   7.872   2.553   1.862  1.9922  0.0810 -2.4987
   58MOL   C11020744   7.870   1.952   2.339  0.2600 -0.0500  0.1920
   58MOL   C11120745   7.741   2.022   2.400  0.3501  0.3232 -0.0786
   58MOL   C11220746   7.642   1.919   2.465  0.6422 -0.4307  0.4076
   58MOL   O11320747   7.530   1.906   2.418  0.4117  0.5471  0.2701
   58MOL   O11420748   7.700   1.856   2.566  0.0393 -0.2326  0.0814
   58MOL   C11520749   7.623   1.775   2.651 -0.6235  0.2933 -0.7955
   58MOL   C11620750   7.618   1.822   2.800 -0.2543  0.8929  0.8477
   58MOL   C11720751   7.744   1.776   2.866  0.4458  0.3767  0.0554
   58MOL   H11820752   0.048   1.903   2.417  2.3886 -1.3568 -2.1123
   58MOL   H11920753   7.842   1.875   2.267 -0.1863  0.4805 -0.2067
   58MOL   H12020754   7.684   2.065   2.318  2.3528  0.0591 -1.6545
   58MOL   H12120755   7.526   1.762   2.604 -0.1293 -0.2311 -1.7042
   58MOL   H12220756   7.662   1.674   2.637  0.5061  1.0887 -3.7143
   58MOL   H12320757   7.610   1.931   2.808 -0.1715  0.8405  1.7664
   58MOL   H12420758   7.534   1.778   2.855  0.5905  1.3111  2.5141
   58MOL   H12520759   7.835   1.801   2.812  0.7229 -0.5310  0.0856
   58MOL   H12620760   7.737   1.668   2.881  1.9571  0.4192  1.2680
   58MOL   H12720761   7.763   1.809   2.968 -1.3089 -2.8997  1.5260
   58MOL   C12820762   7.777   2.138   2.502 -0.9882 -0.6430 -0.3262
   58MOL   C12920763   7.757   2.278   2.446  0.2297  0.0575  0.1662
   58MOL   C13020764   7.616   2.299   2.382  0.2504  0.4328 -0.0095
   58MOL   O13120765   7.610   2.374   2.285 -0.0480 -0.1191  0.4466
   58MOL   O13220766   7.514   2.257   2.449 -0.1285  0.6719 -0.2624
   58MOL   C13320767   7.383   2.279   2.404 -0.0922  0.3547 -0.7081
   58MOL   C13420768   7.291   2.297   2.525 -0.0181 -0.6655 -0.3842
   58MOL   C13520769   7.279   2.174   2.620  0.2663  0.7551  0.4116
   58MOL   H13620770   7.873   2.122   2.551 -1.6255  0.5124  1.3100
   58MOL   H13720771   7.711   2.128   2.588  1.7414 -0.8342  1.8270
   58MOL   H13820772   7.832   2.295   2.369 -0.5737  3.5626  0.0724
   58MOL   H13920773   7.382   2.369   2.343 -0.3177  0.7546 -0.1263
   58MOL   H14020774   7.356   2.203   2.331 -1.9302  1.2140 -0.9652
   58MOL   H14120775   7.334   2.379   2.582  1.0185 -1.5015  0.0426
   58MOL   H14220776   7.196   2.342   2.496  0.0033 -0.0381  0.4934
   58MOL   H14320777   7.237   2.096   2.556 -0.6034 -0.3124  2.2492
   58MOL   H14420778   7.208   2.181   2.703 -1.6935  0.3424 -1.1919
   58MOL   H14520779   7.378   2.153   2.661  1.7508  1.5643 -2.6029
   58MOL   C14620780   7.784   2.381   2.556 -0.6370 -0.0996  0.5436
   58MOL   C14720781   0.041   2.443   2.547  0.0486  0.3882 -0.0786
   58MOL   C14820782   0.063   2.537   2.425 -0.7079 -0.4120 -0.2214
   58MOL   O14920783   0.139   2.510   2.337  0.3774 -1.0612  0.4352
   58MOL   O15020784   7.870   2.650   2.428  0.7982 -0.2918  0.2271
   58MOL   C15120785   0.007   2.760   2.348  0.1008  0.0624 -0.2884
   58MOL   C15220786   7.821   2.737   2.207  0.6320  0.1518  0.1555
   58MOL   C15320787   7.835   2.865   2.123 -0.4659  0.2997 -0.1381
   58MOL   H15420788   7.763   2.343   2.656  0.5568 -1.8780  0.1363
   58MOL   H15520789   7.710   2.461   2.546 -0.1309  0.5428  1.8438
   58MOL   H15620790   0.121   2.369   2.541  0.7913  1.2424 -0.8108
   58MOL   H15720791   7.849   2.847   2.402 -1.9417 -1.2281  0.4021
   58MOL   H15820792   0.114   2.777   2.335  0.6130 -1.6741  1.3749
   58MOL   H15920793   7.865   2.650   2.159  3.1909  1.2283  0.4506
   58MOL   H16020794   7.719   2.709   2.234  0.2496 -0.5428 -1.9416
   58MOL   H16120795   0.048   2.872   2.067 -0.6064  0.7419 -0.3234
   58MOL   H16220796   7.838   2.957   2.182  0.6960  0.7576 -0.9049
   58MOL   H16320797   7.750   2.857   2.055 -1.0986 -1.5959  0.8446
   58MOL   C16420798   0.076   2.519   2.677 -0.3592 -0.5511  0.2481
   58MOL   C16520799   0.087   2.439   2.808  0.0134  0.1111 -0.3029
   58MOL   C16620800   0.177   2.312   2.786 -0.5763 -0.7541 -0.0999
   58MOL   O16720801   0.297   2.320   2.746 -0.4987 -0.2091  0.0149
   58MOL   O16820802   0.118   2.195   2.842 -0.8635 -0.2756  0.1703
   58MOL   C16920803   0.199   2.080   2.851  0.4386  0.7501  0.9665
   58MOL   C17020804   0.149   1.989   2.953  0.8550  0.4277  0.2392
   58MOL   C17120805   0.143   2.046   3.101  0.1793 -0.3560 -0.4454
   58MOL   H17220806   0.006   2.599   2.701  1.6752  1.2382  0.4803
   58MOL   H17320807   0.174   2.565   2.658 -0.8924 -0.0780 -1.4218
   58MOL   H17420808   7.867   2.403   2.830  0.3609  0.5687  2.1914
   58MOL   H17520809   0.179   2.027   2.758  2.3734  2.2921 -0.3613
   58MOL   H17620810   0.306   2.101   2.858  1.6299 -4.5439  0.5103
   58MOL   H17720811   0.048   1.966   2.921  2.1899 -0.8655 -3.3197
   58MOL   H17820812   0.200   1.893   2.941  0.0365 -0.1039  0.9277
   58MOL   H17920813   0.091   1.976   3.166 -1.1990  1.8255  0.8349
   58MOL   H18020814   0.085   2.138   3.106 -0.4952 -0.8588  1.4697
   58MOL   H18120815   0.246   2.062   3.135 -0.0181 -1.6034  0.7764
   58MOL   C18220816   0.129   2.522   2.931 -0.4901 -0.6397  0.0900
   58MOL   C18320817   0.027   2.599   3.008  0.4492  0.3670  0.2091
   58MOL   C18420818   7.788   2.512   3.055 -0.1439 -0.1014  0.3114
   58MOL   O18520819   7.788   2.470   3.173  0.2986  0.3170 -0.0301
   58MOL   O18620820   7.702   2.495   2.958  0.2250  0.8151 -0.8068
   58MOL   C18720821   7.578   2.434   2.978 -0.7411 -0.0038  0.1097
   58MOL   C18820822   7.558   2.336   2.868  0.2074  0.4680 -0.8685
   58MOL   C18920823   7.648   2.210   2.876 -0.2574 -0.2101 -0.0548
   58MOL   H19020824   0.199   2.599   2.899 -1.2888 -0.6131 -1.6578
   58MOL   H19120825   0.178   2.449   2.995 -0.9285  0.3084  1.5252
   58MOL   H19220826   7.872   2.673   2.935 -2.2212 -1.6750 -0.6506
   58MOL   H19320827   7.580   2.386   3.076 -0.5140 -0.3641 -0.0703
   58MOL   H19420828   7.508   2.518   2.981 -1.5418 -0.7181  3.2621
   58MOL   H19520829   7.454   2.305   2.875  0.2989  0.4366  0.4469
   58MOL   H19620830   7.574   2.389   2.774  1.3755 -0.5128 -1.2392
   58MOL   H19720831   7.755   2.227   2.869 -0.4281 -0.2753 -4.2380
   58MOL   H19820832   7.625   2.155   2.785  0.1828  0.5520 -0.6327
   58MOL   H19920833   7.638   2.154   2.969  0.4979 -1.0158 -0.4525
   58MOL   C20020834   0.095   2.675   3.131 -0.2506  0.0101  0.3023
   58MOL   C20120835   0.169   2.812   3.101  0.3144 -0.1995  0.1114
   58MOL   C20220836   0.072   2.917   3.039 -0.1792  0.0265  0.7353
   58MOL   O20320837   7.833   2.911   3.058  0.0711  0.1298 -0.3177
   58MOL   O20420838   0.134   3.016   2.972 -0.4375 -0.3518 -0.0481
   58MOL   C20520839   0.066   3.123   2.918  0.2806  0.3726  0.1301
   58MOL   C20620840   0.175   3.227   2.888  0.1820  0.7505 -0.1185
   58MOL   C20720841   0.283   3.182   2.799 -0.4837 -0.1639  0.1751
   58MOL   H20820842   0.164   2.605   3.178  2.0931  2.3432  0.4614
   58MOL   H20920843   0.025   2.702   3.211 -1.5909  0.1575 -0.9033
   58MOL   H21020844   0.244   2.804   3.022 -1.6491 -1.7759 -1.6364
   58MOL   H21120845   0.020   3.103   2.821  1.4366 -1.8885  0.0149
   58MOL   H21220846   7.879   3.179   2.983 -3.2140 -2.3622 -0.9725
   58MOL   H21320847   0.129   3.313   2.840  0.2051  0.8156 -0.0232
   58MOL   H21420848   0.228   3.261   2.976  3.0477 -0.2436 -1.4126
   58MOL   H21520849   0.363   3.256   2.808 -0.5269 -0.0380 -0.4269
   58MOL   H21620850   0.247   3.174   2.696 -0.0008 -0.8878  0.0622
   58MOL   H21720851   0.336   3.088   2.813  2.3166  0.6502 -3.9462
   58MOL   C21820852   0.246   2.868   3.225  0.9732 -0.3766 -0.1868
   58MOL   C21920853   0.359   2.981   3.188 -0.3361  0.1184  0.1888
   58MOL   C22020854   0.405   3.040   3.324 -0.3916  0.6412  0.4148
   58MOL   O22120855   0.425   2.967   3.421 -0.5181 -0.7756  0.0419
   58MOL   O22220856   0.421   3.181   3.319 -0.2362 -0.4102 -0.0194
   58MOL   C22320857   0.494   3.252   3.424  0.2132 -0.0777  0.2413
   58MOL   C22420858   0.648   3.268   3.389  0.0661  0.0110 -0.3787
   58MOL   C22520859   0.724   3.137   3.425 -0.3109 -0.3999  0.9994
   58MOL   H22620860   0.300   2.784   3.268  0.2045  0.2000  1.9729
   58MOL   H22720861   0.186   2.898   3.312 -0.4669 -0.1424 -1.2409
   58MOL   H22820862   0.313   3.073   3.150 -0.1238  0.4007  0.6079
   58MOL   H22920863   0.451   3.352   3.421 -1.1693 -0.6487  0.3496
   58MOL   H23020864   0.487   3.216   3.526 -0.9366  0.2802  0.3002
   58MOL   H23120865   0.658   3.283   3.282  0.3723 -0.4001 -0.4093
   58MOL   H23220866   0.689   3.358   3.436 -2.5339  1.2715 -0.4455
   58MOL   H23320867   0.829   3.161   3.411 -0.5652  0.1992  0.0717
   58MOL   H23420868   0.716   3.050   3.360 -0.1984  1.8813 -2.1899
   58MOL   H23520869   0.695   3.113   3.527 -0.8041  1.2103  1.2509
   58MOL   C23620870   0.477   2.929   3.094 -0.1542  0.1207 -0.1790
   58MOL   C23720871   0.546   2.801   3.140  0.8102  0.1084  0.0877
   58MOL   C23820872   0.495   2.672   3.067  0.0617  0.8046  0.6085
   58MOL   O23920873   0.448   2.669   2.956 -0.4924 -0.3842  0.0140
   58MOL   O24020874   0.518   2.560   3.134  0.5201 -0.3737 -0.7503
   58MOL   C24120875   0.482   2.437   3.076 -0.8557 -0.2316 -0.0211
   58MOL   C24220876   0.469   2.328   3.174  0.4466 -0.3894 -0.2814
   58MOL   C24320877   0.354   2.347   3.278  0.1143  0.4704  0.5030
   58MOL   H24420878   0.539   3.019   3.090 -2.2819  1.8021  2.9608
   58MOL   H24520879   0.435   2.919   2.993 -0.6074 -0.5443  0.0744
   58MOL   H24620880   0.525   2.785   3.246 -0.8602  1.5991  0.0039
   58MOL   H24720881   0.393   2.444   3.013 -0.0133  2.2140 -1.0219
   58MOL   H24820882   0.561   2.404   3.008 -1.5325 -1.5047 -0.1995
   58MOL   H24920883   0.444   2.237   3.119 -0.2516 -0.9720  0.9673
   58MOL   H25020884   0.561   2.309   3.229  0.5350  0.4777 -0.1200
   58MOL   H25120885   0.342   2.262   3.345  0.7416  0.1325  0.1973
   58MOL   H25220886   0.267   2.361   3.214 -0.1974 -1.0567  0.5659
   58MOL   H25320887   0.356   2.443   3.328 -0.1681  0.5577  0.3432
   58MOL   C25420888   0.700   2.819   3.145 -0.1960  0.1942 -0.6755
   58MOL   C25520889   0.771   2.712   3.235  0.1433  0.2410  0.5943
   58MOL   C25620890   0.928   2.728   3.228 -0.3177 -0.3348 -0.0044
   58MOL   O25720891   1.001   2.644   3.177  0.2800  0.3053  0.4305
   58MOL   O25820892   0.981   2.841   3.282 -0.2352 -0.8346 -0.1306
   58MOL   C25920893   1.116   2.885   3.267  0.3486  0.2103  0.3782
   58MOL   C26020894   1.125   3.031   3.218 -0.6777  0.4629 -0.1271
   58MOL   C26120895   1.030   3.053   3.097  0.8979  0.2630 -0.8153
   58MOL   H26220896   0.729   2.918   3.179  0.6987  0.8354 -3.1592
   58MOL   H26320897   0.744   2.807   3.046 -0.4691 -0.5954 -0.7050
   58MOL   H26420898   0.744   2.620   3.183 -2.0223  0.4976  1.2190
   58MOL   H26520899   1.180   2.866   3.354 -0.8661 -1.5570  0.9303
   58MOL   H26620900   1.169   2.824   3.193  0.6663 -0.4951  1.1721
   58MOL   H26720901   1.094   3.092   3.303  0.7895  0.8454  0.1449
   58MOL   H26820902   1.227   3.056   3.189 -0.5173 -0.8795 -0.7513
   58MOL   H26920903   1.062   3.147   3.052 -1.1637  0.6313 -1.5602
   58MOL   H27020904   0.930   3.079   3.132  0.2474 -1.2935 -1.4671
   58MOL   H27120905   1.033   2.970   3.027 -1.2591  0.3902 -1.0992
   58MOL   C27220906   0.729   2.720   3.381 -0.6933 -0.5119  0.2667
   58MOL   C27320907   0.633   2.614   3.428 -0.6693  0.0504 -0.1810
   58MOL   C27420908   0.704   2.478   3.447 -0.1423 -0.3954  0.2599
   58MOL   O27520909   0.826   2.470   3.451 -0.3471  0.0138  0.4737
   58MOL   O27620910   0.629   2.370   3.464  0.1856 -0.4122  0.2995
   58MOL   C27720911   0.691   2.249   3.509  0.3798  0.2845  0.2487
   58MOL   C27820912   0.674   2.194   3.656 -0.0938 -0.5866 -0.0534
   58MOL   C27920913   0.530   2.176   3.705 -0.6859 -0.5163  0.5596
   58MOL   H28020914   0.694   2.819   3.410 -0.7319 -1.1190  2.3540
   58MOL   H28120915   0.817   2.711   3.445  0.2487 -0.8104 -1.0435
   58MOL   H28220916   0.544   2.613   3.366 -1.6721  0.6468  1.2204
   58MOL   H28320917   0.662   2.166   3.444 -2.6484  1.0752  0.5382
   58MOL   H28420918   0.794   2.251   3.473  0.4628  3.0489  0.5944
   58MOL   H28520919   0.729   2.100   3.664  2.2867  1.0329  3.6558
   58MOL   H28620920   0.731   2.260   3.720  2.1750 -2.8944  0.4315
   58MOL   H28720921   0.471   2.268   3.698 -0.8762 -0.6185  0.7928
   58MOL   H28820922   0.527   2.142   3.809  0.9540  2.8703  1.7676
   58MOL   H28920923   0.475   2.098   3.652 -1.8767  0.8327 -0.2257
   58MOL   C29020924   0.570   2.660   3.571  0.0363 -0.6044  0.2895
   58MOL   C29120925   0.435   2.602   3.616 -0.0129  0.5137 -0.1565
   58MOL   C29220926   0.437   2.596   3.770 -0.3882  0.0501 -0.1864
   58MOL   O29320927   0.361   2.668   3.831  0.1169  0.3732  0.0863
   58MOL   O29420928   0.535   2.526   3.824 -0.3641 -0.0246 -0.2688
   58MOL   C29520929   0.559   2.535   3.963  0.3749 -0.0469  0.3066
   58MOL   C29620930   0.701   2.575   3.991 -0.6637  0.1097 -0.0036
   58MOL   C29720931   0.803   2.496   3.903  0.3316 -0.4239  0.1886
   58MOL   H29820932   0.556   2.768   3.578  2.4621 -0.0576 -2.2261
   58MOL   H29920933   0.641   2.648   3.652  1.0292  2.6006 -0.0305
   58MOL   H30020934   0.438   2.496   3.587 -1.6355 -0.1307  1.9293
   58MOL   H30120935   0.493   2.603   4.016  1.3908  0.3605  1.0769
   58MOL   H30220936   0.555   2.430   3.993 -3.8505  0.1694  0.7849
   58MOL   H30320937   0.706   2.681   3.964  2.9186 -0.2270 -1.0024
   58MOL   H30420938   0.716   2.565   4.099 -0.7425 -4.6047 -0.3337
   58MOL   H30520939   0.905   2.532   3.915  0.7290 -1.6080  0.4317
   58MOL   H30620940   0.788   2.502   3.795  0.6689 -2.1089  0.0286
   58MOL   H30720941   0.799   2.390   3.926  0.3904 -0.0495  1.9991
   58MOL   C30820942   0.311   2.656   3.543  0.4179 -0.2893  0.7055
   58MOL   C30920943   0.172   2.598   3.596 -0.7027 -0.5130 -0.1743
   58MOL   C31020944   0.055   2.697   3.589  0.5755  0.4261 -0.0253
   58MOL   O31120945   7.866   2.725   3.691  0.5868 -0.6511  0.2526
   58MOL   O31220946   0.035   2.753   3.464  0.7783 -0.0052 -0.4652
   58MOL   C31320947   7.813   2.846   3.436  0.1676  0.6737 -0.7141
   58MOL   C31420948   7.688   2.797   3.369  0.0277  0.6124  0.0540
   58MOL   C31520949   7.590   2.909   3.339 -0.5308  0.3926 -0.6313
   58MOL   H31620950   0.313   2.627   3.438  0.3417 -1.3658  0.9949
   58MOL   H31720951   0.317   2.765   3.543 -0.9894 -0.1860 -0.4670
   58MOL   H31820952   0.178   2.576   3.703  0.5105  0.6136  0.0094
   58MOL   H31920953   7.780   2.896   3.527  1.9399  0.5691 -0.0096
   58MOL   H32020954   7.857   2.918   3.368 -0.5036  1.6649 -0.1159
   58MOL   H32120955   7.710   2.746   3.275  0.5266 -0.1725  0.5902
   58MOL   H32220956   7.640   2.722   3.432  0.9687  0.0908  0.1650
   58MOL   H32320957   7.637   2.984   3.276  0.2541 -0.4403 -1.0483
   58MOL   H32420958   7.490   2.880   3.305 -0.5284 -0.6141  0.1817
   58MOL   H32520959   7.566   2.952   3.436 -1.5698 -0.2723 -0.5759
   58MOL   C32620960   0.141   2.466   3.522  0.0667 -0.1563  0.5878
   58MOL   C32720961   0.021   2.380   3.588  0.0841  0.7500 -0.0189
   58MOL   C32820962   7.855   2.283   3.483 -0.5619  0.3644 -0.1644
   58MOL   O32920963   0.045   2.191   3.443 -0.6239  0.2305 -0.0087
   58MOL   O33020964   7.732   2.303   3.436 -0.1807  0.4268 -0.4855
   58MOL   C33120965   7.679   2.226   3.327  0.4290  0.3344 -0.2012
   58MOL   C33220966   7.598   2.098   3.373 -0.7536 -0.4228 -0.1488
   58MOL   C33320967   7.532   2.034   3.247  0.5885 -0.0555  0.3222
   58MOL   H33420968   0.238   2.418   3.511  0.6546  1.0078  0.5581
   58MOL   H33520969   0.117   2.493   3.419 -0.3935  0.7127  0.9110
   58MOL   H33620970   7.816   2.445   3.610  0.1182 -0.5850  4.6150
   58MOL   H33720971   7.606   2.288   3.275 -0.7141 -0.0823  0.8821
   58MOL   H33820972   7.767   2.218   3.264  0.4582  2.5819 -0.4832
   58MOL   H33920973   7.670   2.028   3.416  0.2793  0.4144 -0.4773
   58MOL   H34020974   7.523   2.130   3.445 -0.7550 -2.2906  0.7171
   58MOL   H34120975   7.446   2.094   3.217  1.7686  2.2239  1.3172
   58MOL   H34220976   7.599   2.027   3.161 -0.6792  1.5857 -0.8310
   58MOL   H34320977   7.497   1.932   3.257 -0.3858  0.2646  0.1895
   58MOL   C34420978   0.063   2.312   3.725  0.3079 -0.4353 -0.3826
   58MOL   C34520979   7.833   2.236   3.800 -0.0330 -0.9818  0.2462
   58MOL   C34620980   7.692   2.298   3.794  0.3950 -0.2247 -0.2089
   58MOL   O34720981   7.598   2.243   3.734  0.3097  0.0588  0.2992
   58MOL   O34820982   7.685   2.415   3.865 -0.3461  0.1991 -0.4452
   58MOL   C34920983   7.563   2.487   3.872 -0.2588  0.3767  0.1702
   58MOL   C35020984   7.465   2.418   3.974  0.0957  0.3156  0.3395
   58MOL   C35120985   7.500   2.437   4.122  0.8024 -0.4601  0.2895
   58MOL   H35220986   0.111   2.397   3.774 -2.2581  0.2596  1.0005
   58MOL   H35320987   0.141   2.243   3.695  0.6416  0.4208 -1.5236
   58MOL   H35420988   7.871   2.208   3.898  0.6327 -3.4232 -0.6547
   58MOL   H35520989   7.595   2.586   3.906 -0.3962  0.4623  0.0475
   58MOL   H35620990   7.515   2.489   3.774 -0.2483 -0.6176  0.1370
   58MOL   H35720991   7.361   2.435   3.948  0.0542 -0.9075 -0.3396
   58MOL   H35820992   7.473   2.310   3.962 -0.4747  0.4847 -1.6823
   58MOL   H35920993   7.438   2.377   4.189 -0.1721  0.9556  0.6631
   58MOL   H36020994   7.597   2.394   4.148  0.8937  0.1549  0.9514
   58MOL   H36120995   7.487   2.541   4.149  1.2601 -0.7005  1.4576
   58MOL   H36220996   7.821   2.138   3.753  0.7700 -1.0600  0.1820
   59MOL     C120997   2.101   6.027   5.274 -0.8784  0.0144 -0.1721
   59MOL     C220998   2.192   5.920   5.335 -0.4256 -0.0959  0.1750
   59MOL     C320999   2.116   5.877   5.463 -0.3648  1.1144 -0.8557
   59MOL     O421000   2.017   5.808   5.472  0.2005  0.2635 -0.3686
   59MOL     O521001   2.177   5.933   5.576 -0.4150  0.4453 -0.1983
   59MOL     C621002   2.136   5.901   5.708  0.4331 -0.3945  0.0410
   59MOL     C721003   2.233   5.972   5.805  0.1533  0.0634  0.0003
   59MOL     C821004   2.208   6.120   5.800 -0.0732  0.2895  0.1308
   59MOL     H921005   2.072   6.111   5.338  0.4477  1.2306 -1.1485
   59MOL    H1021006   2.145   6.074   5.186  0.2622  1.0333  0.9186
   59MOL    H1121007   2.286   5.957   5.376  0.0872  0.5877 -1.5838
   59MOL    H1221008   2.043   5.956   5.724  0.7117  0.0228  0.2535
   59MOL    H1321009   2.122   5.798   5.740 -0.4626  0.0418  1.0814
   59MOL    H1421010   2.218   5.931   5.905 -1.6225  0.1103 -0.2397
   59MOL    H1521011   2.334   5.949   5.771  0.3821 -2.3100  2.1009
   59MOL    H1621012   2.204   6.165   5.701 -0.2413 -1.1469 -0.5194
   59MOL    H1721013   2.111   6.145   5.844  1.4361  2.4626  2.3457
   59MOL    H1821014   2.291   6.165   5.855  0.6140 -0.0928 -0.5742
   59MOL    H1921015   2.011   5.979   5.235 -0.6190 -0.9543  0.4195
   59MOL    C2021016   2.207   5.798   5.251 -0.6465 -0.8424 -0.5370
   59MOL    C2121017   2.345   5.732   5.276 -0.5190  0.2719 -1.0615
   59MOL    C2221018   2.373   5.670   5.414  0.2769  0.2253 -0.3835
   59MOL    O2321019   2.434   5.738   5.497  0.1172 -0.4091  0.4088
   59MOL    O2421020   2.324   5.543   5.426 -0.1087  0.1601  0.2324
   59MOL    C2521021   2.333   5.473   5.548 -0.3163 -0.1687 -0.1067
   59MOL    C2621022   2.198   5.487   5.612 -0.2477 -0.7012  0.4042
   59MOL    C2721023   2.182   5.373   5.715 -0.2421 -1.1936 -0.1114
   59MOL    H2821024   2.204   5.823   5.145  0.2187 -1.3070 -0.6840
   59MOL    H2921025   2.129   5.726   5.273 -0.4782 -0.9312 -0.2291
   59MOL    H3021026   2.408   5.820   5.261 -1.3770  1.2595  0.9374
   59MOL    H3121027   2.353   5.367   5.530 -0.5243 -0.2918  0.3811
   59MOL    H3221028   2.399   5.509   5.627 -1.0387 -0.5367  0.6686
   59MOL    H3321029   2.186   5.587   5.655  0.8843  0.6888 -2.3717
   59MOL    H3421030   2.115   5.483   5.542 -1.0455  1.0485  1.2103
   59MOL    H3521031   2.076   5.387   5.737 -0.2197 -0.4785 -0.4643
   59MOL    H3621032   2.247   5.385   5.802 -2.0613  0.5775  1.0413
   59MOL    H3721033   2.183   5.274   5.669  0.5034 -1.8144  1.2082
   59MOL    C3821034   2.378   5.643   5.157 -0.4693  0.4777  1.1420
   59MOL    C3921035   2.508   5.555   5.179  0.3007 -0.0503 -0.2438
   59MOL    C4021036   2.527   5.455   5.065  1.1461 -0.1275 -0.5117
   59MOL    O4121037   2.545   5.334   5.090 -0.4171 -0.7592 -0.3061
   59MOL    O4221038   2.532   5.512   4.945 -0.0026 -0.1060 -0.6124
   59MOL    C4321039   2.519   5.426   4.833 -0.5063  0.4470  0.4530
   59MOL    C4421040   2.368   5.424   4.800  0.3430 -0.5307  0.4700
   59MOL    C4521041   2.296   5.557   4.751 -0.3727 -0.8860 -0.5227
   59MOL    H4621042   2.390   5.686   5.058  1.8821  2.7838  2.3847
   59MOL    H4721043   2.290   5.578   5.148 -0.2958  0.1369  1.8711
   59MOL    H4821044   2.495   5.490   5.265  1.1233 -1.2984 -1.0475
   59MOL    H4921045   2.573   5.456   4.743 -0.1010  2.0057  1.1980
   59MOL    H5021046   2.551   5.324   4.857 -1.1488 -0.3625 -2.0100
   59MOL    H5121047   2.347   5.346   4.726 -1.3977 -1.7370  2.1867
   59MOL    H5221048   2.317   5.387   4.889  0.1766  1.9504  1.4323
   59MOL    H5321049   2.197   5.541   4.708 -1.5833  1.3740  1.3107
   59MOL    H5421050   2.348   5.584   4.659 -0.9692 -1.9604 -1.1897
   59MOL    H5521051   2.305   5.639   4.823 -0.3393  0.3966 -1.9523
   59MOL    C5621052   2.641   5.634   5.204 -0.3934 -1.0376 -0.3465
   59MOL    C5721053   2.742   5.547   5.283  0.4220  0.6462  0.3951
   59MOL    C5821054   2.841   5.483   5.181  0.2125 -0.2161  0.5015
   59MOL    O5921055   2.911   5.553   5.100 -0.0531  0.2755 -0.0297
   59MOL    O6021056   2.860   5.352   5.200  0.1269 -0.1577 -0.8895
   59MOL    C6121057   2.961   5.271   5.134 -0.4943  0.1512 -0.0513
   59MOL    C6221058   2.905   5.137   5.101 -0.3977  0.6000  0.1545
   59MOL    C6321059   2.903   5.052   5.227 -0.5328 -0.0444 -0.8115
   59MOL    H6421060   2.610   5.720   5.264  0.8313  0.9853 -2.5411
   59MOL    H6521061   2.680   5.674   5.110  0.4435 -1.3921 -0.1533
   59MOL    H6621062   2.691   5.471   5.342  0.7007 -1.2287 -1.7088
   59MOL    H6721063   2.996   5.316   5.041 -1.5721  0.9551 -0.0850
   59MOL    H6821064   3.049   5.259   5.197 -1.0885 -0.8353  0.5913
   59MOL    H6921065   2.804   5.141   5.061 -0.7237 -0.9939  0.7648
   59MOL    H7021066   2.963   5.084   5.025  0.6221 -0.7316  1.8020
   59MOL    H7121067   3.002   5.041   5.272  0.2263  1.4135 -2.0705
   59MOL    H7221068   2.875   4.952   5.195  0.6427 -0.7553  0.3252
   59MOL    H7321069   2.839   5.091   5.307 -0.1400  0.4199 -0.7195
   59MOL    C7421070   2.818   5.643   5.382  0.1559 -0.3137 -0.4257
   59MOL    C7521071   2.765   5.665   5.532 -0.2161  0.1763 -0.5753
   59MOL    C7621072   2.762   5.532   5.602  0.4267  0.3714  0.2245
   59MOL    O7721073   2.657   5.480   5.641 -0.3441 -0.3596  0.1444
   59MOL    O7821074   2.884   5.468   5.610 -0.0810  0.2286 -0.6298
   59MOL    C7921075   2.900   5.342   5.655 -0.3347  0.4778 -0.2846
   59MOL    C8021076   2.986   5.271   5.544  0.0643  0.4601  0.4309
   59MOL    C8121077   3.001   5.124   5.565  0.1268  0.2096  0.0320
   59MOL    H8221078   2.812   5.742   5.335  2.0372 -1.6115 -3.5547
   59MOL    H8321079   2.925   5.623   5.384  0.3208  0.4203 -1.2196
   59MOL    H8421080   2.658   5.683   5.527 -0.1194  1.0670  0.3453
   59MOL    H8521081   2.965   5.342   5.743 -0.1733  1.3689 -0.3962
   59MOL    H8621082   2.810   5.284   5.676 -0.4727  0.5820 -0.5838
   59MOL    H8721083   2.946   5.294   5.445 -0.0761 -1.6732 -0.0453
   59MOL    H8821084   3.081   5.321   5.527 -1.4885  2.5016 -2.6452
   59MOL    H8921085   2.904   5.075   5.578 -0.8906  2.4190  1.2137
   59MOL    H9021086   3.062   5.109   5.654 -0.1748 -1.3874 -0.0224
   59MOL    H9121087   3.039   5.075   5.476 -0.7252  1.2969 -0.9599
   59MOL    C9221088   2.832   5.772   5.607  0.4486  0.0705  1.0432
   59MOL    C9321089   2.805   5.922   5.558 -0.3302 -0.0206  0.4274
   59MOL    C9421090   2.671   5.978   5.603 -0.0144 -0.6229  0.2340
   59MOL    O9521091   2.629   5.972   5.722  0.2343  0.2582 -0.1592
   59MOL    O9621092   2.611   6.041   5.504 -0.1600  0.0766  0.0037
   59MOL    C9721093   2.497   6.117   5.528 -0.5166  0.1873 -0.1879
   59MOL    C9821094   2.484   6.215   5.414 -0.2119 -0.1819 -0.0089
   59MOL    C9921095   2.359   6.302   5.431 -0.1056 -0.3031 -0.4572
   59MOL   H10021096   2.938   5.755   5.622  1.2406  2.5770 -1.3353
   59MOL   H10121097   2.795   5.764   5.710 -2.6906 -0.5702 -0.0785
   59MOL   H10221098   2.808   5.924   5.449  1.0630 -0.4045  0.4557
   59MOL   H10321099   2.401   6.067   5.532 -1.6157  2.2097 -0.5073
   59MOL   H10421100   2.509   6.177   5.618  2.2640  1.2989 -1.2288
   59MOL   H10521101   2.568   6.284   5.417  0.1545 -0.5465 -1.6848
   59MOL   H10621102   2.491   6.169   5.315  2.1758  1.2101 -0.5282
   59MOL   H10721103   2.281   6.229   5.454 -0.0403 -0.8547 -1.9539
   59MOL   H10821104   2.318   6.357   5.347  1.0895  0.0403 -0.8190
   59MOL   H10921105   2.379   6.375   5.510 -0.4747  1.1552 -1.6876
   59MOL   C11021106   2.908   6.014   5.617 -0.9140  0.9257 -1.4218
   59MOL   C11121107   2.997   6.091   5.514 -0.0167 -0.4990 -0.4581
   59MOL   C11221108   2.923   6.148   5.395 -0.1679  0.0047 -0.0941
   59MOL   O11321109   2.861   6.252   5.405  0.0746 -0.4079 -0.5769
   59MOL   O11421110   2.931   6.079   5.280  0.0511 -0.4874  0.5240
   59MOL   C11521111   2.875   6.135   5.163 -0.1959 -0.1259  0.0643
   59MOL   C11621112   2.740   6.069   5.141 -0.3494 -0.5957 -0.9691
   59MOL   C11721113   2.751   5.936   5.068  0.4592  0.2916 -0.3700
   59MOL   H11821114   2.983   5.964   5.679 -1.2773 -0.7962 -2.3435
   59MOL   H11921115   2.866   6.091   5.682  2.7846  1.6078  0.3014
   59MOL   H12021116   3.072   6.024   5.474  1.6597  0.9320  0.1963
   59MOL   H12121117   2.863   6.243   5.156 -1.8345 -0.3009  0.0983
   59MOL   H12221118   2.946   6.114   5.083  0.4774  0.3050  0.5416
   59MOL   H12321119   2.692   6.057   5.238  0.5273 -0.1166 -0.4582
   59MOL   H12421120   2.685   6.135   5.074 -0.4788 -0.0119 -0.2995
   59MOL   H12521121   2.807   5.940   4.975  0.7826  2.7150 -0.1106
   59MOL   H12621122   2.647   5.905   5.057 -0.2348  2.5347 -0.3515
   59MOL   H12721123   2.804   5.865   5.131  0.9025  0.1814 -0.8686
   59MOL   C12821124   3.077   6.200   5.588  0.8144 -0.0952  0.0897
   59MOL   C12921125   3.184   6.265   5.502 -0.8115 -0.0989  0.0321
   59MOL   C13021126   3.227   6.389   5.580 -0.4032 -0.8380 -0.5086
   59MOL   O13121127   3.208   6.501   5.534  0.2777 -0.6821 -0.0894
   59MOL   O13221128   3.297   6.371   5.692  0.7142  0.7007 -0.0015
   59MOL   C13321129   3.396   6.467   5.730 -0.0860 -0.0945  0.8485
   59MOL   C13421130   3.530   6.417   5.687  0.4863  0.4566 -0.3871
   59MOL   C13521131   3.576   6.494   5.567 -1.2856 -0.0756  0.4598
   59MOL   H13621132   3.117   6.158   5.680  0.3237 -0.5411  0.1037
   59MOL   H13721133   3.007   6.273   5.629  1.1736  1.2159 -1.5943
   59MOL   H13821134   3.135   6.305   5.413  0.1328  0.3356 -0.2932
   59MOL   H13921135   3.371   6.566   5.691 -0.7661  1.2365  4.4146
   59MOL   H14021136   3.397   6.500   5.834 -0.7038 -0.2787  0.9181
   59MOL   H14121137   3.596   6.428   5.773 -0.4523 -0.1067  0.4144
   59MOL   H14221138   3.532   6.308   5.683  0.1068  0.4415 -0.1951
   59MOL   H14321139   3.502   6.496   5.487  0.9355 -0.0304 -1.6747
   59MOL   H14421140   3.668   6.463   5.518 -1.2597 -1.0128  1.0870
   59MOL   H14521141   3.599   6.593   5.606  1.9306 -0.7907  0.4949
   59MOL   C14621142   3.303   6.171   5.473 -0.3860 -0.9786 -0.7276
   59MOL   C14721143   3.317   6.119   5.325 -0.4731 -0.0513  0.1794
   59MOL   C14821144   3.320   6.226   5.223  0.2944  0.6642  0.6634
   59MOL   O14921145   3.258   6.217   5.116 -0.4078 -0.1190  0.2413
   59MOL   O15021146   3.408   6.322   5.260 -0.1905 -0.0260  0.3776
   59MOL   C15121147   3.425   6.429   5.170 -0.7323  1.0272 -0.7594
   59MOL   C15221148   3.567   6.412   5.100  0.4190  0.0592  0.2862
   59MOL   C15321149   3.678   6.411   5.211 -0.3447 -1.1157  0.2527
   59MOL   H15421150   3.295   6.085   5.540 -0.7972 -1.7601 -1.7652
   59MOL   H15521151   3.399   6.219   5.491 -0.1713 -0.9737 -1.8708
   59MOL   H15621152   3.227   6.063   5.300 -1.2286  2.0683 -1.9446
   59MOL   H15721153   3.354   6.435   5.088  0.3762 -1.0556 -1.9341
   59MOL   H15821154   3.436   6.517   5.233  0.3553 -0.6711  1.4879
   59MOL   H15921155   3.560   6.327   5.033  0.9297 -0.3979  0.8068
   59MOL   H16021156   3.581   6.495   5.032  2.0693  0.7703  1.4514
   59MOL   H16121157   3.772   6.374   5.170 -1.3619 -0.8606 -2.4040
   59MOL   H16221158   3.658   6.356   5.303 -0.1661 -0.6777  0.5511
   59MOL   H16321159   3.691   6.515   5.240  1.4781 -1.0850 -0.5762
   59MOL   C16421160   3.444   6.029   5.304 -0.1383  0.3094  0.0696
   59MOL   C16521161   3.440   5.890   5.371  0.0972  0.2458 -0.1847
   59MOL   C16621162   3.308   5.814   5.350  0.3352 -0.0795  0.5794
   59MOL   O16721163   3.213   5.809   5.423  0.0628  0.7650 -0.3322
   59MOL   O16821164   3.300   5.769   5.226 -0.3112  0.3189 -0.9419
   59MOL   C16921165   3.202   5.684   5.179 -0.0442  0.0574  0.5079
   59MOL   C17021166   3.229   5.538   5.203  0.2791 -0.6753 -0.4595
   59MOL   C17121167   3.245   5.500   5.351  0.3410  0.4806  0.0257
   59MOL   H17221168   3.533   6.084   5.334  0.5417  0.2247 -1.7075
   59MOL   H17321169   3.447   6.015   5.196  2.5981 -0.7719  0.2491
   59MOL   H17421170   3.438   5.917   5.476 -0.3030  1.5676 -0.5215
   59MOL   H17521171   3.111   5.706   5.235  0.4760  1.4804  0.7996
   59MOL   H17621172   3.192   5.708   5.073 -0.6453 -0.6547  0.3964
   59MOL   H17721173   3.162   5.466   5.155  0.0133 -1.3003  0.8232
   59MOL   H17821174   3.319   5.517   5.145  0.1306  0.1948 -1.0029
   59MOL   H17921175   3.337   5.526   5.402 -1.4580 -0.6526  4.0225
   59MOL   H18021176   3.243   5.391   5.349 -3.4863  0.4612 -3.3221
   59MOL   H18121177   3.157   5.538   5.402 -0.3922  2.2682 -2.4734
   59MOL   C18221178   3.570   5.812   5.348 -0.4707 -0.2200 -0.8585
   59MOL   C18321179   3.671   5.818   5.468 -0.3244 -0.4908  0.0685
   59MOL   C18421180   3.624   5.725   5.585  0.5762  0.1676 -0.2355
   59MOL   O18521181   3.518   5.662   5.575  0.1270 -0.3508  0.8754
   59MOL   O18621182   3.709   5.695   5.682 -0.2597 -0.3810 -0.0456
   59MOL   C18721183   3.677   5.598   5.782 -0.6005 -0.4869  0.2966
   59MOL   C18821184   3.802   5.515   5.813 -0.4800  0.3277 -0.2741
   59MOL   C18921185   3.842   5.409   5.705 -0.0497  0.2043  0.1997
   59MOL   H19021186   3.620   5.837   5.254  0.0728 -1.1985 -0.8351
   59MOL   H19121187   3.549   5.707   5.329 -0.0456 -0.6807  1.1686
   59MOL   H19221188   3.669   5.920   5.506 -1.4550 -0.7144  0.6425
   59MOL   H19321189   3.635   5.645   5.870  0.1985 -0.6679  0.7788
   59MOL   H19421190   3.604   5.527   5.741 -1.3504 -0.0739  0.8928
   59MOL   H19521191   3.880   5.583   5.847 -1.9463  1.2483  1.3684
   59MOL   H19621192   3.780   5.464   5.907 -0.2287 -2.5991 -1.7516
   59MOL   H19721193   3.754   5.351   5.677 -0.6676  1.3333 -0.2402
   59MOL   H19821194   3.916   5.334   5.734 -0.3611  1.1797  3.7653
   59MOL   H19921195   3.873   5.451   5.609  0.6500  0.5537  0.5704
   59MOL   C20021196   3.810   5.769   5.410 -0.0283 -0.2225 -0.0879
   59MOL   C20121197   3.932   5.810   5.500  0.0238  0.2414 -0.0198
   59MOL   C20221198   4.029   5.687   5.523  0.4395 -0.0003 -0.3935
   59MOL   O20321199   4.014   5.580   5.464 -0.5040  0.3862  0.1481
   59MOL   O20421200   4.117   5.717   5.614  0.0287 -0.3428 -0.2963
   59MOL   C20521201   4.191   5.618   5.682  0.0067 -0.1490  0.3883
   59MOL   C20621202   4.329   5.606   5.614 -0.8466 -0.1448  0.4312
   59MOL   C20721203   4.406   5.742   5.601  0.0860 -0.4770 -0.0129
   59MOL   H20821204   3.824   5.781   5.302 -2.2787 -3.3189 -0.7820
   59MOL   H20921205   3.801   5.660   5.407  3.4114 -0.5579 -0.9046
   59MOL   H21021206   3.901   5.829   5.602  0.5415 -0.6425  0.3015
   59MOL   H21121207   4.196   5.653   5.786  0.9147  0.8310  0.0251
   59MOL   H21221208   4.143   5.520   5.681  0.9164 -0.6165  1.1776
   59MOL   H21321209   4.390   5.537   5.672  0.2095 -0.0165 -0.5083
   59MOL   H21421210   4.305   5.564   5.516  1.3125  1.3399 -0.7746
   59MOL   H21521211   4.467   5.760   5.690 -0.9732 -0.4014  0.7182
   59MOL   H21621212   4.343   5.831   5.594  2.4719  1.2146 -0.5345
   59MOL   H21721213   4.476   5.738   5.518  1.3940 -0.5034  1.0668
   59MOL   C21821214   4.001   5.930   5.439  0.6885 -0.2764 -0.1539
   59MOL   C21921215   3.909   6.054   5.416  0.5099  0.4240 -0.6614
   59MOL   C22021216   3.868   6.112   5.554  0.8157 -0.5568 -0.9759
   59MOL   O22121217   3.752   6.141   5.577 -0.4834 -0.1924 -0.4599
   59MOL   O22221218   3.965   6.139   5.630 -0.3471  0.3677 -0.7595
   59MOL   C22321219   3.949   6.205   5.758  0.3754 -0.2153 -0.2229
   59MOL   C22421220   4.030   6.342   5.746 -0.1115  0.2472 -0.1436
   59MOL   C22521221   4.034   6.430   5.870 -0.4009 -0.0195 -0.0870
   59MOL   H22621222   4.030   5.899   5.339  0.7006 -3.1048  0.6855
   59MOL   H22721223   4.088   5.968   5.492  2.2598 -0.9520 -2.1988
   59MOL   H22821224   3.812   6.031   5.374  0.1291  1.4875 -0.3874
   59MOL   H22921225   3.845   6.230   5.778  0.4897  1.5457 -1.7005
   59MOL   H23021226   3.988   6.146   5.842 -1.8049  0.3906  1.2692
   59MOL   H23121227   4.128   6.303   5.718 -0.8924 -2.1364  0.3260
   59MOL   H23221228   3.990   6.398   5.662 -1.8888 -1.5837 -0.5485
   59MOL   H23321229   4.116   6.501   5.878  0.9718 -1.6368  0.6254
   59MOL   H23421230   4.037   6.364   5.956  0.5587 -0.1495 -0.2152
   59MOL   H23521231   3.939   6.483   5.875 -0.8197 -0.5438 -1.8914
   59MOL   C23621232   3.965   6.167   5.336 -0.0943 -0.6308 -0.0355
   59MOL   C23721233   3.992   6.127   5.187  0.0689 -0.4377  0.1091
   59MOL   C23821234   3.878   6.068   5.109  0.2650  0.1255  0.0998
   59MOL   O23921235   3.764   6.115   5.102 -0.0856  0.1627  0.3714
   59MOL   O24021236   3.905   5.951   5.061 -0.1263  0.0514  0.1521
   59MOL   C24121237   3.799   5.884   4.991 -0.4648 -0.1273 -0.3448
   59MOL   C24221238   3.852   5.766   4.915  0.6045 -0.2000  0.1901
   59MOL   C24321239   3.935   5.796   4.796 -0.9667 -0.2658  0.2071
   59MOL   H24421240   4.066   6.189   5.370  0.0449  0.9332 -1.4082
   59MOL   H24521241   3.904   6.257   5.334  0.0210 -0.5458  0.2889
   59MOL   H24621242   4.065   6.046   5.198  0.2518 -0.0530  1.8080
   59MOL   H24721243   3.722   5.848   5.059 -0.3582 -0.3385 -0.3368
   59MOL   H24821244   3.741   5.947   4.923 -1.5453  1.0523  1.6175
   59MOL   H24921245   3.899   5.688   4.975 -1.2126 -1.3380  0.1907
   59MOL   H25021246   3.764   5.711   4.880  0.0692 -0.8064  2.3992
   59MOL   H25121247   4.028   5.837   4.836 -0.3310 -1.2107 -0.2769
   59MOL   H25221248   3.912   5.882   4.733  1.8267  0.9800  0.8198
   59MOL   H25321249   3.971   5.707   4.744  1.6807 -0.0766  1.6319
   59MOL   C25421250   4.042   6.249   5.098 -0.0143  0.5844 -0.5379
   59MOL   C25521251   4.175   6.303   5.145  0.0094  0.1452  0.2029
   59MOL   C25621252   4.287   6.212   5.097  0.3473  0.1183  0.7743
   59MOL   O25721253   4.305   6.098   5.144  0.1633  0.4084  0.6008
   59MOL   O25821254   4.348   6.266   4.987 -0.1872 -0.1633 -0.5242
   59MOL   C25921255   4.452   6.189   4.932  0.0481  0.6756  0.6791
   59MOL   C26021256   4.558   6.280   4.869 -0.5808  0.0887 -0.5022
   59MOL   C26121257   4.499   6.365   4.752 -0.2030 -0.1903 -0.4074
   59MOL   H26221258   3.974   6.335   5.097  0.1429  0.7305  0.9262
   59MOL   H26321259   4.066   6.218   4.996  0.7847  0.8027 -0.4177
   59MOL   H26421260   4.189   6.306   5.253  2.0147  0.6825 -0.0377
   59MOL   H26521261   4.504   6.125   5.003 -0.5004  0.3869  0.8231
   59MOL   H26621262   4.404   6.110   4.874  0.6464  1.1513 -0.5015
   59MOL   H26721263   4.607   6.347   4.940 -0.2147  1.3758 -1.9529
   59MOL   H26821264   4.634   6.210   4.835 -0.6707  0.1761 -0.8826
   59MOL   H26921265   4.414   6.421   4.792  0.7293 -0.5969  2.2414
   59MOL   H27021266   4.464   6.301   4.670  0.0987  0.1666 -0.8111
   59MOL   H27121267   4.577   6.428   4.710  1.5617 -0.7282  1.9217
   59MOL   C27221268   4.198   6.454   5.097  0.3276  0.0184 -0.6141
   59MOL   C27321269   4.100   6.557   5.164 -0.0906  0.1723 -0.2251
   59MOL   C27421270   4.094   6.538   5.317  0.3135  0.0137  0.4854
   59MOL   O27521271   3.989   6.512   5.375  0.4828  0.0601  0.1768
   59MOL   O27621272   4.215   6.553   5.373 -0.4276 -0.5359 -0.9715
   59MOL   C27721273   4.231   6.557   5.516  0.0391 -0.9223 -0.0311
   59MOL   C27821274   4.298   6.693   5.573  0.7384  0.2316  0.0559
   59MOL   C27921275   4.324   6.695   5.720 -0.2473 -0.1227 -0.3989
   59MOL   H28021276   4.173   6.455   4.991  2.0069 -3.2159 -1.0987
   59MOL   H28121277   4.299   6.490   5.117 -0.2427  0.8217  0.9759
   59MOL   H28221278   4.002   6.541   5.120 -1.2760  4.2006  0.7995
   59MOL   H28321279   4.137   6.542   5.568  0.0884  0.3038  0.4467
   59MOL   H28421280   4.284   6.465   5.540 -0.3630 -1.2660 -0.4637
   59MOL   H28521281   4.390   6.713   5.518  0.0583 -0.7811 -1.5061
   59MOL   H28621282   4.232   6.778   5.556  0.1538 -0.3837 -0.8429
   59MOL   H28721283   4.226   6.681   5.766 -1.4845  2.6152 -2.0635
   59MOL   H28821284   4.367   6.783   5.768 -0.5578  0.2483 -0.7982
   59MOL   H28921285   4.396   6.619   5.750  0.8009  0.7194 -0.7530
   59MOL   C29021286   4.150   6.702   5.117  0.3232  0.2890 -0.2368
   59MOL   C29121287   4.058   6.822   5.155 -0.0440 -0.1703 -0.6530
   59MOL   C29221288   4.110   6.905   5.276 -0.0181  0.5875  0.2885
   59MOL   O29321289   4.049   6.914   5.383 -0.0396  0.0018 -0.0270
   59MOL   O29421290   4.223   6.968   5.254 -0.0812 -0.6047 -0.3253
   59MOL   C29521291   4.271   7.047   5.356  0.4837  0.7679  0.2152
   59MOL   C29621292   4.375   7.142   5.289 -0.1189  0.1376 -0.3996
   59MOL   C29721293   4.440   7.241   5.386  0.3011 -0.6076  0.2406
   59MOL   H29821294   4.185   6.716   5.015  1.4641  1.9959  0.3794
   59MOL   H29921295   4.240   6.716   5.177 -2.4435  1.9051  3.7613
   59MOL   H30021296   3.965   6.781   5.197  2.1850 -0.0334  4.8072
   59MOL   H30121297   4.196   7.106   5.407 -0.7415  0.7249 -1.4881
   59MOL   H30221298   4.337   7.001   5.430 -3.6385 -1.6979  2.5343
   59MOL   H30321299   4.451   7.085   5.236 -0.0773  0.1208 -0.3230
   59MOL   H30421300   4.315   7.195   5.216 -0.7091 -0.6012 -0.4501
   59MOL   H30521301   4.373   7.312   5.435 -1.0771 -1.3566 -0.5284
   59MOL   H30621302   4.514   7.311   5.347  1.3410 -1.6724  0.3047
   59MOL   H30721303   4.494   7.186   5.462  2.3658  1.1912  0.1115
   59MOL   C30821304   4.023   6.918   5.034 -0.0031 -0.7463  0.0500
   59MOL   C30921305   3.873   6.906   4.983  0.1614  0.3279 -0.4375
   59MOL   C31021306   3.845   6.765   4.927 -0.0612  0.3564  0.2693
   59MOL   O31121307   3.743   6.700   4.958 -0.1842 -0.1895 -0.3956
   59MOL   O31221308   3.947   6.724   4.856  0.1026 -0.8689 -0.3402
   59MOL   C31321309   3.945   6.589   4.804  0.1826 -0.2326  0.2155
   59MOL   C31421310   4.076   6.561   4.733  0.3604 -0.0613 -0.0901
   59MOL   C31521311   4.100   6.650   4.615 -0.0341 -0.1822 -0.1024
   59MOL   H31621312   4.088   6.916   4.947  0.1397  0.7475  0.1241
   59MOL   H31721313   4.045   7.021   5.059 -0.0299 -0.8392  0.4657
   59MOL   H31821314   3.861   6.977   4.902 -1.0227 -0.2853 -0.8102
   59MOL   H31921315   3.928   6.512   4.879 -0.3759  0.6911  1.0442
   59MOL   H32021316   3.863   6.591   4.732 -0.1433  1.1186  0.6065
   59MOL   H32121317   4.158   6.582   4.802 -0.5822  1.7218  0.5386
   59MOL   H32221318   4.102   6.460   4.701  3.7095  1.1447 -1.4391
   59MOL   H32321319   4.193   6.620   4.567 -0.2119 -3.1671  1.3094
   59MOL   H32421320   4.022   6.643   4.539  0.4569 -2.2104 -0.4527
   59MOL   H32521321   4.115   6.755   4.642  1.5106 -0.2659 -0.5836
   59MOL   C32621322   3.770   6.950   5.088  0.0408  1.1516 -0.1353
   59MOL   C32721323   3.768   7.101   5.129 -0.3610  0.2775 -0.2463
   59MOL   C32821324   3.727   7.194   5.009 -0.2433 -0.0986 -0.0995
   59MOL   O32921325   3.794   7.299   4.983  0.3994 -0.0211 -0.3178
   59MOL   O33021326   3.615   7.160   4.954  0.0277 -0.0441  0.1947
   59MOL   C33121327   3.544   7.241   4.868 -0.5573 -0.0416  0.3235
   59MOL   C33221328   3.465   7.345   4.946 -0.0873  0.3596 -0.2299
   59MOL   C33321329   3.330   7.284   4.992  0.6922 -0.1137 -0.9168
   59MOL   H33421330   3.782   6.894   5.181 -0.4061  2.9266  1.0160
   59MOL   H33521331   3.667   6.922   5.064  0.3301  0.8381 -1.0488
   59MOL   H33621332   3.868   7.135   5.157  0.0134 -2.2615  1.6750
   59MOL   H33721333   3.619   7.293   4.809  1.4487 -1.7930  1.2679
   59MOL   H33821334   3.488   7.185   4.794  0.3879 -0.6256  0.0379
   59MOL   H33921335   3.518   7.376   5.036 -0.7309 -0.4982  0.4686
   59MOL   H34021336   3.453   7.436   4.888  0.3394  1.8018  1.9036
   59MOL   H34121337   3.332   7.220   5.081 -2.2313 -1.6884 -1.9062
   59MOL   H34221338   3.262   7.367   5.011  0.2086 -0.6387 -0.3175
   59MOL   H34321339   3.289   7.222   4.912 -0.5325  0.6604 -0.9060
   59MOL   C34421340   3.684   7.128   5.254  0.3964 -0.3052 -0.7114
   59MOL   C34521341   3.672   7.277   5.286 -0.1258  0.6969  0.1391
   59MOL   C34621342   3.774   7.326   5.385  0.7548 -0.1916 -0.1879
   59MOL   O34721343   3.736   7.366   5.494  0.2496 -0.0403  0.2206
   59MOL   O34821344   3.896   7.332   5.332 -0.0480 -0.3873 -0.1613
   59MOL   C34921345   3.997   7.387   5.412  0.0517  0.1616  0.3061
   59MOL   C35021346   4.097   7.459   5.321 -0.6334  0.1044 -0.2138
   59MOL   C35121347   4.189   7.546   5.404  0.3531  0.3094  0.1587
   59MOL   H35221348   3.736   7.069   5.329 -0.1057  1.0170  0.7171
   59MOL   H35321349   3.588   7.077   5.247  1.6927 -2.8317 -0.3828
   59MOL   H35421350   3.574   7.290   5.331 -1.1022 -2.3777 -0.9539
   59MOL   H35521351   3.964   7.455   5.490  1.4616  1.6127 -0.3371
   59MOL   H35621352   4.045   7.303   5.462  1.1718  0.8159  0.3328
   59MOL   H35721353   4.166   7.397   5.264 -0.2570  0.0433  0.2995
   59MOL   H35821354   4.041   7.526   5.256 -1.0094  0.2756  0.2852
   59MOL   H35921355   4.231   7.485   5.484  2.1404 -0.1216 -1.0764
   59MOL   H36021356   4.266   7.600   5.350  0.0591  0.3002 -0.2745
   59MOL   H36121357   4.142   7.630   5.455  0.3973  0.4006  0.0484
   59MOL   H36221358   3.674   7.349   5.204 -1.5559  0.3348 -0.2261
   60MOL     C121359   4.537   1.407   4.702 -0.2122  0.0556 -0.3627
   60MOL     C221360   4.521   1.487   4.833  0.5601 -0.2035 -0.0951
   60MOL     C321361   4.374   1.507   4.860  0.2717  0.0312 -0.3283
   60MOL     O421362   4.319   1.618   4.847  0.0477  0.3852 -0.0200
   60MOL     O521363   4.307   1.398   4.898 -0.3544  0.0004 -0.2789
   60MOL     C621364   4.166   1.407   4.926 -0.2293 -0.8055  0.3317
   60MOL     C721365   4.106   1.267   4.912 -0.1249  0.6119 -0.2859
   60MOL     C821366   4.118   1.213   4.764  0.3664 -0.6965 -0.3565
   60MOL     H921367   4.638   1.391   4.664  0.0545  2.0560 -0.5442
   60MOL    H1021368   4.488   1.310   4.707  1.3055 -0.7847 -1.3838
   60MOL    H1121369   4.561   1.587   4.818 -1.0920  0.3288 -1.0602
   60MOL    H1221370   4.139   1.448   5.024 -2.7376 -0.8064 -0.3174
   60MOL    H1321371   4.108   1.475   4.863  0.2472 -0.8632 -0.1717
   60MOL    H1421372   4.162   1.209   4.984 -0.3042  0.1414 -0.5254
   60MOL    H1521373   4.008   1.264   4.960  0.3283 -0.2746  0.6127
   60MOL    H1621374   4.214   1.163   4.751  1.0286  0.4353  0.0413
   60MOL    H1721375   4.047   1.138   4.731  2.7788 -2.5575 -1.4650
   60MOL    H1821376   4.119   1.298   4.695 -0.3102 -1.3855 -1.2271
   60MOL    H1921377   4.492   1.468   4.623 -1.6180  1.0389  1.1680
   60MOL    C2021378   4.597   1.431   4.958  0.6890  0.4222  0.2617
   60MOL    C2121379   4.755   1.436   4.950  0.4914 -0.0386  0.1537
   60MOL    C2221380   4.809   1.575   4.912  0.7757 -0.0299  0.2784
   60MOL    O2321381   4.862   1.591   4.802  0.3330 -0.6530 -0.1399
   60MOL    O2421382   4.788   1.668   5.006 -0.2144  0.2258 -0.4259
   60MOL    C2521383   4.826   1.803   4.994 -0.6063 -0.5056 -0.0016
   60MOL    C2621384   4.718   1.887   4.922 -0.2680  0.1075  0.2376
   60MOL    C2721385   4.583   1.874   4.988 -0.1949 -0.2210 -0.1948
   60MOL    H2821386   4.570   1.326   4.967  1.4451  0.2286  0.2841
   60MOL    H2921387   4.563   1.473   5.053 -1.2815  0.2042 -0.3262
   60MOL    H3021388   4.767   1.375   4.860  0.0801  1.9236 -1.2770
   60MOL    H3121389   4.836   1.846   5.093 -0.2895 -0.8409  0.1117
   60MOL    H3221390   4.922   1.820   4.946  0.0801 -1.2838  1.0839
   60MOL    H3321391   4.751   1.991   4.925 -1.3358  0.4809 -0.7065
   60MOL    H3421392   4.706   1.858   4.817  1.5167  0.7914 -0.1806
   60MOL    H3521393   4.595   1.893   5.095  0.0240 -0.7285 -0.1249
   60MOL    H3621394   4.550   1.773   4.964  0.0570 -1.0458  2.7441
   60MOL    H3721395   4.510   1.945   4.949  0.0948 -0.0356 -0.4073
   60MOL    C3821396   4.829   1.364   5.070  0.3819  0.0194  0.5008
   60MOL    C3921397   4.973   1.325   5.040 -0.0787 -0.5602 -0.0073
   60MOL    C4021398   5.076   1.424   5.106  0.1224 -0.5685 -0.5839
   60MOL    O4121399   5.134   1.393   5.212 -0.1752  0.8418 -0.2165
   60MOL    O4221400   5.101   1.538   5.031  0.3344  0.2200 -0.3039
   60MOL    C4321401   5.215   1.617   5.064 -0.2655 -0.0220  0.6361
   60MOL    C4421402   5.223   1.723   4.950  0.9732  0.2715  0.3130
   60MOL    C4521403   5.331   1.830   4.976  0.5053 -0.7131 -0.1490
   60MOL    H4621404   4.781   1.267   5.077 -3.2007  1.6970  0.2583
   60MOL    H4721405   4.827   1.412   5.168 -3.0725 -0.8557  0.9187
   60MOL    H4821406   4.977   1.339   4.932  1.0928 -2.6747 -0.2644
   60MOL    H4921407   5.203   1.655   5.165  2.8539  1.0994  0.6401
   60MOL    H5021408   5.306   1.558   5.063 -0.6538 -0.6723 -2.4884
   60MOL    H5121409   5.253   1.665   4.864  5.2123 -2.1244  3.2120
   60MOL    H5221410   5.125   1.762   4.921  0.9895 -1.0948 -1.6584
   60MOL    H5321411   5.425   1.773   4.982  0.0699 -1.4061  0.2101
   60MOL    H5421412   5.321   1.879   5.072  0.4443  1.5103 -1.2737
   60MOL    H5521413   5.348   1.909   4.904 -0.7651  1.8056  2.2512
   60MOL    C5621414   5.013   1.178   5.064 -0.6231 -0.1011 -0.5797
   60MOL    C5721415   4.941   1.078   4.979  0.3903 -0.7962  0.2465
   60MOL    C5821416   4.995   1.070   4.835  0.0746  0.4717  0.2345
   60MOL    O5921417   5.030   0.968   4.779  0.2318 -0.1241  0.9304
   60MOL    O6021418   4.981   1.191   4.781 -0.2722 -0.0240 -0.5143
   60MOL    C6121419   5.029   1.203   4.648  0.0876 -0.3439 -0.0849
   60MOL    C6221420   5.064   1.345   4.620  0.1500 -0.6855  0.1420
   60MOL    C6321421   5.154   1.414   4.718  0.5501  0.8212 -0.4023
   60MOL    H6421422   4.992   1.163   5.170  0.9194  0.7940 -0.1310
   60MOL    H6521423   5.120   1.175   5.045 -0.6907  0.6308 -1.0706
   60MOL    H6621424   4.839   1.116   4.972  0.3204 -1.0474 -0.1069
   60MOL    H6721425   5.105   1.129   4.623 -1.2631 -2.1834  1.1517
   60MOL    H6821426   4.943   1.166   4.594 -0.6658 -0.3767  1.1060
   60MOL    H6921427   5.111   1.361   4.523  0.6663 -2.0082  0.1619
   60MOL    H7021428   4.970   1.400   4.621  0.9715  0.7723 -0.9623
   60MOL    H7121429   5.170   1.363   4.813 -1.2761 -0.5056 -0.7822
   60MOL    H7221430   5.131   1.518   4.741 -0.4736  0.6116 -0.4697
   60MOL    H7321431   5.257   1.403   4.682 -0.4159  0.6972 -3.2403
   60MOL    C7421432   4.919   0.945   5.040  0.1199  0.1264  0.2590
   60MOL    C7521433   4.804   0.870   4.988 -0.4866  0.1908  0.4328
   60MOL    C7621434   4.820   0.730   5.046 -0.3629 -0.4362 -1.1884
   60MOL    O7721435   4.748   0.698   5.141 -0.2051 -0.1316  0.7762
   60MOL    O7821436   4.915   0.661   4.996 -0.1597  0.2020  0.6559
   60MOL    C7921437   4.963   0.546   5.058 -0.2683 -0.0840  0.0853
   60MOL    C8021438   5.106   0.510   5.013 -0.0380 -0.1429 -0.1873
   60MOL    C8121439   5.104   0.505   4.858  0.2253  0.2235  0.3499
   60MOL    H8221440   4.885   0.967   5.141  2.7760  3.3587  0.5472
   60MOL    H8321441   5.011   0.889   5.053  0.3118  0.4886  0.4714
   60MOL    H8421442   4.817   0.862   4.881 -0.5749 -0.4823  0.4704
   60MOL    H8521443   4.970   0.555   5.167  1.0985 -0.5970  0.0406
   60MOL    H8621444   4.893   0.464   5.042 -0.3958 -0.0038  0.2303
   60MOL    H8721445   5.168   0.592   5.048 -2.3514  1.1633  0.9554
   60MOL    H8821446   5.141   0.414   5.051 -0.4362 -0.6795 -1.1451
   60MOL    H8921447   5.203   0.474   4.824 -0.7449 -1.6867 -0.8190
   60MOL    H9021448   5.095   0.601   4.809 -2.2252 -0.3526 -0.3866
   60MOL    H9121449   5.029   0.432   4.826 -0.1868  0.5871  0.4831
   60MOL    C9221450   4.663   0.935   5.010 -0.4457 -1.0453 -0.1429
   60MOL    C9321451   4.557   0.928   4.898 -0.2853  0.3633 -0.9661
   60MOL    C9421452   4.583   1.019   4.778 -0.4813 -0.1562  0.7898
   60MOL    O9521453   4.675   1.100   4.782 -0.0108  0.3605 -0.2831
   60MOL    O9621454   4.498   0.995   4.671  0.1763 -0.2419  0.0902
   60MOL    C9721455   4.518   1.055   4.549  0.8334 -0.2030 -0.1683
   60MOL    C9821456   4.382   1.080   4.483  0.5102  0.0798  0.0986
   60MOL    C9921457   4.280   0.966   4.501 -0.3206  0.1375  0.4769
   60MOL   H10021458   4.677   1.040   5.039 -0.1691 -0.6347 -1.7311
   60MOL   H10121459   4.622   0.916   5.109  1.8807  1.4228  1.3863
   60MOL   H10221460   4.462   0.965   4.937 -0.2613  0.8619 -1.3851
   60MOL   H10321461   4.573   1.149   4.557  1.1926 -0.3525 -0.8674
   60MOL   H10421462   4.589   0.999   4.489 -1.4258 -1.0732 -2.0615
   60MOL   H10521463   4.340   1.177   4.510  0.1622  0.5017 -1.9220
   60MOL   H10621464   4.402   1.098   4.377  0.6908 -0.9121 -0.0413
   60MOL   H10721465   4.183   0.990   4.458 -0.8486  0.0805  1.6386
   60MOL   H10821466   4.258   0.939   4.604 -1.7480 -0.7941 -0.0717
   60MOL   H10921467   4.316   0.875   4.453 -1.9134  0.0241 -0.5252
   60MOL   C11021468   4.535   0.777   4.857 -0.5480  0.0452  1.1853
   60MOL   C11121469   4.452   0.691   4.947 -0.2781  0.4370  0.7762
   60MOL   C11221470   4.302   0.735   4.957 -0.4162 -1.0510  0.0404
   60MOL   O11321471   4.251   0.821   4.882  0.0032  0.1624 -0.3156
   60MOL   O11421472   4.235   0.667   5.054  0.0358 -0.0070  0.2455
   60MOL   C11521473   4.099   0.687   5.068  0.8546 -0.4889 -0.1568
   60MOL   C11621474   4.025   0.557   5.109 -0.0540 -0.0116  0.4005
   60MOL   C11721475   3.933   0.578   5.236 -0.3690 -0.7891  0.2763
   60MOL   H11821476   4.631   0.727   4.850 -0.6717 -0.4130  2.6815
   60MOL   H11921477   4.496   0.773   4.755  1.9487 -0.9511  0.2305
   60MOL   H12021478   4.486   0.691   5.051  0.1648  0.8690  0.6317
   60MOL   H12121479   4.083   0.765   5.143 -1.1746 -0.7235 -0.3055
   60MOL   H12221480   4.052   0.726   4.978 -1.3561 -2.0536  0.2714
   60MOL   H12321481   3.969   0.509   5.029 -2.2160  2.8975  0.0914
   60MOL   H12421482   4.090   0.473   5.133 -1.6885 -1.0854  1.1900
   60MOL   H12521483   3.856   0.650   5.210  0.4423 -0.5437 -1.5633
   60MOL   H12621484   3.993   0.617   5.318  0.4602 -1.0057 -0.2205
   60MOL   H12721485   3.874   0.494   5.272 -2.2989  0.1726 -0.5745
   60MOL   C12821486   4.460   0.545   4.900  0.6698  0.8427  0.3793
   60MOL   C12921487   4.395   0.510   4.766 -0.1017  0.4255  0.2391
   60MOL   C13021488   4.482   0.553   4.639  0.6167 -0.5645 -0.6575
   60MOL   O13121489   4.425   0.625   4.558  0.0314  0.4239 -0.8002
   60MOL   O13221490   4.610   0.518   4.629 -0.5527 -0.6999 -0.0391
   60MOL   C13321491   4.677   0.562   4.508 -0.0971  0.1565  0.0073
   60MOL   C13421492   4.733   0.706   4.523  0.2803 -0.0278  0.2502
   60MOL   C13521493   4.841   0.729   4.624  0.3912 -0.3299 -0.6054
   60MOL   H13621494   4.415   0.478   4.973 -0.8915  1.8921  0.3866
   60MOL   H13721495   4.561   0.504   4.910 -0.0608 -0.9938  0.3873
   60MOL   H13821496   4.299   0.559   4.780  0.2860  0.4792  2.9402
   60MOL   H13921497   4.767   0.505   4.487  0.3712  0.9923 -0.2712
   60MOL   H14021498   4.616   0.553   4.418  2.2191  0.2507 -1.6341
   60MOL   H14121499   4.771   0.739   4.426 -1.9676  0.2906 -0.5301
   60MOL   H14221500   4.644   0.766   4.540  0.9306  1.1782 -0.5010
   60MOL   H14321501   4.799   0.691   4.717  1.3304  0.1479  0.0274
   60MOL   H14421502   4.862   0.835   4.636  0.0212 -0.0927 -1.9646
   60MOL   H14521503   4.932   0.679   4.589 -0.9762 -0.9547 -3.4150
   60MOL   C14621504   4.357   0.356   4.761 -0.6897 -0.4110 -0.2294
   60MOL   C14721505   4.240   0.303   4.849 -0.0883  0.3259  0.2982
   60MOL   C14821506   4.105   0.304   4.770  0.1664  0.3623 -0.8106
   60MOL   O14921507   4.004   0.365   4.811 -0.1427  0.4697 -0.1405
   60MOL   O15021508   4.103   0.213   4.667 -0.0034  0.6996 -0.3241
   60MOL   C15121509   3.994   0.202   4.577 -0.1564 -0.6546 -0.4336
   60MOL   C15221510   3.955   0.056   4.537  0.4334 -1.6195  0.0493
   60MOL   C15321511   3.805   0.047   4.503  0.0541 -0.2067  0.2699
   60MOL   H15421512   4.443   0.289   4.768 -1.8472 -1.9704 -0.6772
   60MOL   H15521513   4.340   0.337   4.655 -0.0557 -3.0188  0.0950
   60MOL   H15621514   4.219   0.369   4.934 -2.4548  1.1071 -0.8471
   60MOL   H15721515   3.901   0.232   4.626  0.9172  0.0438  1.1800
   60MOL   H15821516   4.014   0.262   4.489  0.9262  0.4305  0.5473
   60MOL   H15921517   4.018   0.024   4.454 -0.2600  0.0778 -1.1640
   60MOL   H16021518   3.964   7.860   4.614  0.9154  0.1534  1.7751
   60MOL   H16121519   3.757   0.043   4.601  1.9920 -4.5566  1.2023
   60MOL   H16221520   3.787   7.830   4.456  0.7969 -0.0633 -0.3118
   60MOL   H16321521   3.773   0.124   4.434  0.2649 -1.4272 -1.2188
   60MOL   C16421522   4.274   0.168   4.913 -0.1519  0.0805  0.5732
   60MOL   C16521523   4.377   0.163   5.028  0.1450 -0.3360 -0.3074
   60MOL   C16621524   4.349   0.246   5.153  0.3410 -0.2352  0.3877
   60MOL   O16721525   4.430   0.328   5.199 -0.0102  0.3450 -0.3390
   60MOL   O16821526   4.233   0.209   5.215 -0.3466  0.1545  0.0431
   60MOL   C16921527   4.190   0.263   5.340  0.3238 -0.3097 -0.3728
   60MOL   C17021528   4.044   0.218   5.368 -0.6842 -0.1510 -1.0988
   60MOL   C17121529   4.027   0.069   5.384 -0.4632  0.5946 -0.1139
   60MOL   H17221530   4.296   0.091   4.838 -0.3318 -0.2679  0.8754
   60MOL   H17321531   4.177   0.128   4.942 -1.1743  1.9959 -0.0913
   60MOL   H17421532   4.471   0.198   4.984  0.3643 -0.1960  0.2744
   60MOL   H17521533   4.262   0.238   5.418  1.8124  2.1031 -0.9084
   60MOL   H17621534   4.193   0.372   5.338  1.4172 -0.2584  2.4021
   60MOL   H17721535   4.034   0.263   5.467  2.8711  0.2831 -0.8428
   60MOL   H17821536   3.969   0.268   5.307 -0.7872  0.9290 -0.1244
   60MOL   H17921537   4.044   0.011   5.293  0.5110 -1.3198  1.2428
   60MOL   H18021538   3.922   0.054   5.408  0.0430  1.4072  2.6952
   60MOL   H18121539   4.080   0.020   5.465  1.0639 -0.1390 -1.5134
   60MOL   C18221540   4.409   0.017   5.066  0.0412 -0.0663  0.9363
   60MOL   C18321541   4.523   7.875   5.166  0.5456  0.0870  0.6958
   60MOL   C18421542   4.533   7.729   5.207 -0.1387  0.0105  1.0787
   60MOL   O18521543   4.504   7.637   5.126  0.5667  0.0323  0.4188
   60MOL   O18621544   4.577   7.715   5.329 -0.0691 -0.4307  0.2192
   60MOL   C18721545   4.601   7.594   5.394  0.0878  0.0839  0.1110
   60MOL   C18821546   4.552   7.605   5.545 -0.0083  0.1441  0.3658
   60MOL   C18921547   4.595   7.487   5.632  0.2019  0.0207 -0.4279
   60MOL   H19021548   4.434   7.836   4.979  1.8584 -0.4019  1.6522
   60MOL   H19121549   4.317   7.849   5.098  0.3258  0.0172  1.9015
   60MOL   H19221550   4.486   0.037   5.260 -2.8552 -3.2335  1.0021
   60MOL   H19321551   4.551   7.515   5.338 -0.9040 -0.0792  1.2118
   60MOL   H19421552   4.705   7.562   5.393  0.8478  2.4992 -1.2282
   60MOL   H19521553   4.598   7.685   5.603  0.0340  1.2789 -1.2285
   60MOL   H19621554   4.445   7.619   5.561 -0.2239  1.4452 -1.9782
   60MOL   H19721555   4.701   7.464   5.623  0.7965  2.0281  1.1672
   60MOL   H19821556   4.527   7.404   5.614  2.1623 -1.9229  0.9364
   60MOL   H19921557   4.581   7.509   5.738 -0.6857  0.2324 -0.5820
   60MOL   C20021558   4.662   0.051   5.120 -0.4077 -0.4810 -0.2200
   60MOL   C20121559   4.729   7.880   4.993  0.9810  0.3552  0.1442
   60MOL   C20221560   4.695   0.084   4.874 -0.0881 -0.5541  0.6354
   60MOL   O20321561   4.613   0.045   4.792 -0.5525 -0.9922  0.1945
   60MOL   O20421562   4.752   0.202   4.882  0.7378 -0.5375 -0.6966
   60MOL   C20521563   4.733   0.284   4.768 -0.2336  0.5372 -0.0304
   60MOL   C20621564   4.858   0.276   4.682  0.3399 -1.0162 -0.5721
   60MOL   C20721565   4.832   0.181   4.565  0.8553  0.3091  0.0765
   60MOL   H20821566   4.733   0.041   5.202 -0.4301  0.5404 -0.0608
   60MOL   H20921567   4.647   0.159   5.122 -0.1438 -0.4489  0.1311
   60MOL   H21021568   4.684   7.783   4.973  0.0370  0.6200  0.9110
   60MOL   H21121569   4.649   0.274   4.700 -0.1429  1.9602 -0.3715
   60MOL   H21221570   4.720   0.387   4.801  1.6055 -0.3698  3.7953
   60MOL   H21321571   4.877   0.368   4.626 -2.7752 -0.0584 -0.1286
   60MOL   H21421572   4.948   0.259   4.741  0.6161 -0.0191 -0.6963
   60MOL   H21521573   4.926   0.177   4.510  1.4346  0.7088  1.0183
   60MOL   H21621574   4.758   0.226   4.500 -0.2493 -0.9741  0.4148
   60MOL   H21721575   4.803   0.084   4.607 -0.5960  1.5866  2.0860
   60MOL   C21821576   4.880   7.865   5.012 -0.2458 -0.2970 -0.2378
   60MOL   C21921577   4.930   7.758   5.119  0.4897  0.3140 -0.9412
   60MOL   C22021578   4.902   7.616   5.080 -0.6615 -0.2701 -0.7764
   60MOL   O22121579   4.847   7.535   5.149 -0.4531 -0.5157 -0.1326
   60MOL   O22221580   4.957   7.588   4.959 -0.3076 -0.1011 -0.2280
   60MOL   C22321581   4.983   7.452   4.913 -0.6352  0.0327  0.1209
   60MOL   C22421582   5.132   7.406   4.925 -0.1853  0.6431  0.3714
   60MOL   C22521583   5.220   7.500   4.833 -0.4600 -0.5958 -1.0200
   60MOL   H22621584   4.922   0.085   5.028  1.0719 -0.4449 -2.5249
   60MOL   H22721585   4.924   7.836   4.916  0.8440  1.3665 -0.2684
   60MOL   H22821586   4.872   7.777   5.210 -0.3246  2.2746 -1.8425
   60MOL   H22921587   4.928   7.381   4.975  0.4529  0.7389  1.9311
   60MOL   H23021588   4.955   7.437   4.809  0.5010  1.3955 -0.3925
   60MOL   H23121589   5.170   7.426   5.025 -1.3714  1.4259  0.6746
   60MOL   H23221590   5.144   7.299   4.909  0.2126  0.9251 -1.2671
   60MOL   H23321591   5.170   7.525   4.740 -1.0609  0.6431 -0.3876
   60MOL   H23421592   5.319   7.459   4.815  0.1756  0.6900 -0.5170
   60MOL   H23521593   5.238   7.600   4.872  0.4490 -1.1488  0.0206
   60MOL   C23621594   5.076   7.778   5.159 -0.0896 -0.1871 -0.4090
   60MOL   C23721595   5.113   7.706   5.288  0.0907  0.1165 -0.0708
   60MOL   C23821596   5.204   7.583   5.279 -0.5560  0.1991 -0.1746
   60MOL   O23921597   5.177   7.476   5.337  0.1678  0.4742  0.2332
   60MOL   O24021598   5.312   7.601   5.204 -0.2373 -0.2394 -0.7002
   60MOL   C24121599   5.406   7.499   5.195 -0.6963  0.8172 -0.5048
   60MOL   C24221600   5.545   7.557   5.229 -0.3896  0.0303 -0.3432
   60MOL   C24321601   5.546   7.617   5.368  0.2459 -0.2969 -0.4836
   60MOL   H24421602   5.089   0.003   5.183 -2.7548 -0.2698  1.7202
   60MOL   H24521603   5.147   7.770   5.077 -0.3133  1.1978 -0.7514
   60MOL   H24621604   5.016   7.667   5.319 -0.7552 -0.0903 -2.8281
   60MOL   H24721605   5.378   7.412   5.254  2.6031  0.9676  1.3637
   60MOL   H24821606   5.402   7.462   5.093  3.5011 -1.6945  0.1434
   60MOL   H24921607   5.626   7.485   5.219 -1.7918 -1.7987  1.2647
   60MOL   H25021608   5.569   7.633   5.154 -0.6056  0.6747  0.2376
   60MOL   H25121609   5.519   7.547   5.447 -0.3681  1.1362  0.5842
   60MOL   H25221610   5.480   7.702   5.378  0.1141 -0.5164  0.5944
   60MOL   H25321611   5.649   7.651   5.377  1.0363 -2.6134 -0.3126
   60MOL   C25421612   5.151   7.798   5.401  0.3029 -0.4890  0.4043
   60MOL   C25521613   5.037   7.876   5.467 -0.1994  0.0832 -0.7700
   60MOL   C25621614   4.957   7.786   5.564  0.5238  0.7031 -0.3517
   60MOL   O25721615   4.843   7.814   5.597  0.2102 -0.0744 -0.2738
   60MOL   O25821616   5.021   7.667   5.602  0.2024  0.3188 -0.2388
   60MOL   C25921617   4.950   7.577   5.672 -0.0779  0.0314 -0.7482
   60MOL   C26021618   5.038   7.502   5.774  0.1450 -0.8178 -0.0067
   60MOL   C26121619   4.959   7.409   5.854 -0.1324 -0.0846  0.2320
   60MOL   H26221620   5.228   7.863   5.360 -0.9623  1.3065  0.8229
   60MOL   H26321621   5.213   7.741   5.470  2.1836  1.6776  0.5575
   60MOL   H26421622   4.973   0.027   5.385 -0.4422  1.2631 -0.1475
   60MOL   H26521623   4.863   7.615   5.726 -0.3599  1.0734 -1.9046
   60MOL   H26621624   4.910   7.502   5.603 -0.9367  1.0516 -1.3748
   60MOL   H26721625   5.096   7.431   5.715  1.3088  1.4854 -1.7292
   60MOL   H26821626   5.094   7.570   5.839 -0.0762 -1.9628  1.3985
   60MOL   H26921627   5.025   7.330   5.892 -0.7844  0.0098  1.5783
   60MOL   H27021628   4.872   7.368   5.804  0.3676  0.9770 -1.5434
   60MOL   H27121629   4.916   7.447   5.947 -1.1981  0.7272 -0.5955
   60MOL   C27221630   5.092   0.115   5.546 -0.6012 -0.3726 -0.3966
   60MOL   C27321631   5.125   0.241   5.461 -0.0945 -0.3272 -0.5301
   60MOL   C27421632   5.013   0.272   5.360 -0.2269 -0.9231 -0.3217
   60MOL   O27521633   5.040   0.269   5.237  0.4635  0.2165 -0.5907
   60MOL   O27621634   4.887   0.291   5.418 -0.4831  0.8609  0.4621
   60MOL   C27721635   4.778   0.326   5.333  0.1950 -0.0058  0.5735
   60MOL   C27821636   4.697   0.443   5.401 -1.0477  0.3239 -0.4673
   60MOL   C27921637   4.604   0.390   5.513 -0.4133 -0.1864  0.1422
   60MOL   H28021638   5.181   0.086   5.601  0.2695  1.9571 -0.5204
   60MOL   H28121639   5.020   0.141   5.624 -0.4887 -0.4523 -0.2666
   60MOL   H28221640   5.216   0.224   5.404 -1.0415  0.0400 -2.1904
   60MOL   H28321641   4.825   0.361   5.241 -3.5510  1.9672 -0.6640
   60MOL   H28421642   4.729   0.231   5.312  1.6994 -0.5512 -0.5946
   60MOL   H28521643   4.771   0.509   5.446  2.0481 -2.4200 -1.3179
   60MOL   H28621644   4.648   0.503   5.324 -1.1414 -0.0609 -0.7123
   60MOL   H28721645   4.638   0.294   5.552  0.3825  0.6637  1.5906
   60MOL   H28821646   4.502   0.372   5.479 -0.5970  0.3105  0.4207
   60MOL   H28921647   4.592   0.466   5.590  0.0223  0.2971 -0.2710
   60MOL   C29021648   5.147   0.357   5.554 -0.0931  0.0541 -0.1955
   60MOL   C29121649   5.225   0.480   5.493 -0.1428  0.2433  0.5741
   60MOL   C29221650   5.132   0.592   5.436 -0.4515 -0.3742 -0.2512
   60MOL   O29321651   5.013   0.584   5.455 -0.2582 -0.5532  0.0734
   60MOL   O29421652   5.187   0.687   5.369 -0.1609 -0.2145 -0.3557
   60MOL   C29521653   5.114   0.798   5.320 -0.0848  0.7557 -0.4038
   60MOL   C29621654   5.202   0.918   5.299 -0.4673 -0.6820 -0.2790
   60MOL   C29721655   5.318   0.884   5.212 -0.7182  0.0754  0.1989
   60MOL   H29821656   5.205   0.334   5.643 -0.2782  0.8397  0.1329
   60MOL   H29921657   5.052   0.384   5.600 -0.0691 -0.8924  0.4104
   60MOL   H30021658   5.300   0.444   5.423 -0.0214  0.2477  0.7014
   60MOL   H30121659   5.072   0.782   5.220  1.0308  4.1153 -1.4951
   60MOL   H30221660   5.028   0.818   5.385 -0.7356 -1.9638 -0.3799
   60MOL   H30321661   5.135   0.996   5.263 -1.1387 -1.4497 -0.7175
   60MOL   H30421662   5.243   0.958   5.392 -0.8964  2.4909 -1.4002
   60MOL   H30521663   5.385   0.815   5.265  0.6298  1.0869 -0.1459
   60MOL   H30621664   5.385   0.969   5.219 -0.4285 -0.0332 -1.1369
   60MOL   H30721665   5.295   0.841   5.115  0.3727 -0.1309  0.0157
   60MOL   C30821666   5.312   0.545   5.607  0.5169 -0.2147 -0.1949
   60MOL   C30921667   5.446   0.476   5.629 -0.1369 -0.3530  0.1075
   60MOL   C31021668   5.529   0.474   5.504 -0.1930  0.1725  0.0046
   60MOL   O31121669   5.541   0.375   5.430 -0.0940 -0.2070  0.1089
   60MOL   O31221670   5.594   0.594   5.476  0.0731 -0.2712  0.5436
   60MOL   C31321671   5.636   0.607   5.339  0.1387 -0.5486 -0.5027
   60MOL   C31421672   5.785   0.581   5.317 -0.3971 -0.1541 -0.6757
   60MOL   C31521673   5.894   0.676   5.365 -0.4813  0.7582 -0.0580
   60MOL   H31621674   5.243   0.565   5.689 -0.8342  4.1232 -2.2210
   60MOL   H31721675   5.334   0.644   5.568 -1.2133 -0.2120 -1.2704
   60MOL   H31821676   5.414   0.376   5.659  0.6588  0.1177  2.6260
   60MOL   H31921677   5.575   0.543   5.274  0.5781 -1.4629 -0.0270
   60MOL   H32021678   5.614   0.707   5.302  0.9446  0.3366  1.4027
   60MOL   H32121679   5.817   0.483   5.354 -0.3088  0.9384  2.2820
   60MOL   H32221680   5.787   0.572   5.208  0.8558 -0.9529 -0.5965
   60MOL   H32321681   5.986   0.620   5.357 -1.4723 -0.9776  0.3919
   60MOL   H32421682   5.912   0.777   5.329 -1.2697  1.5316  1.6086
   60MOL   H32521683   5.896   0.697   5.472  3.8042  0.7901 -0.0555
   60MOL   C32621684   5.536   0.518   5.742 -0.2954  0.4605 -0.0177
   60MOL   C32721685   5.645   0.429   5.808  0.1797 -0.5464  0.1254
   60MOL   C32821686   5.589   0.307   5.873  0.2887 -0.5669 -0.5052
   60MOL   O32921687   5.507   0.325   5.961  0.0250  0.0772  0.0756
   60MOL   O33021688   5.634   0.195   5.826 -0.0030 -0.3936 -0.2806
   60MOL   C33121689   5.580   0.070   5.865  0.4051 -0.0696 -0.8586
   60MOL   C33221690   5.446   0.045   5.785 -0.7583  0.2295 -0.3128
   60MOL   C33321691   5.479   0.011   5.634  0.6469  0.4310 -0.2891
   60MOL   H33421692   5.468   0.537   5.825  1.4373  0.1745  1.5056
   60MOL   H33521693   5.579   0.617   5.724 -2.3004  1.2233 -0.7589
   60MOL   H33621694   5.663   0.485   5.900  1.8424  0.4455 -0.7698
   60MOL   H33721695   5.659   7.876   5.853 -1.1224 -1.8702  0.0451
   60MOL   H33821696   5.566   0.071   5.973 -0.8584  0.2030 -1.0177
   60MOL   H33921697   5.399   7.840   5.835 -1.4006  1.4205  1.1483
   60MOL   H34021698   5.386   0.133   5.806  1.6178  1.9813 -0.6686
   60MOL   H34121699   5.504   0.101   5.577  1.6100  0.5095  0.2426
   60MOL   H34221700   5.557   7.817   5.620  0.7479  0.1929  1.5208
   60MOL   H34321701   5.388   7.850   5.591 -0.2060 -0.3393  2.1881
   60MOL   C34421702   5.787   0.412   5.749  0.0137 -0.1512  0.2644
   60MOL   C34521703   5.876   0.531   5.721 -0.6606 -0.1962 -0.4902
   60MOL   C34621704   5.921   0.626   5.835 -0.6368  0.1576  1.1501
   60MOL   O34721705   5.933   0.577   5.949 -0.3883  0.0593 -0.3984
   60MOL   O34821706   5.946   0.747   5.797  0.0022  0.4045  0.0926
   60MOL   C34921707   6.012   0.841   5.878 -0.4023  0.0014 -0.0877
   60MOL   C35021708   6.016   0.979   5.806  0.4117  0.8217  0.3771
   60MOL   C35121709   6.089   0.985   5.674  0.0336 -0.1396  0.0614
   60MOL   H35221710   5.769   0.364   5.652 -0.0850 -1.4522  0.9119
   60MOL   H35321711   5.835   0.337   5.812  2.0382  1.2216  0.4112
   60MOL   H35421712   5.817   0.592   5.652 -2.0123  1.0914  1.7300
   60MOL   H35521713   5.976   0.841   5.981 -2.3128  0.7570 -0.7317
   60MOL   H35621714   6.113   0.801   5.884  0.6044  2.4229 -0.5567
   60MOL   H35721715   5.917   1.023   5.798 -0.1206 -0.3649  0.2802
   60MOL   H35821716   6.063   1.051   5.873  0.8620  1.7547 -0.9231
   60MOL   H35921717   6.186   0.935   5.684 -0.7608 -1.6974  0.1062
   60MOL   H36021718   6.023   0.929   5.609  1.7925  1.2481 -3.0345
   60MOL   H36121719   6.091   1.089   5.642 -1.4736 -0.3179 -0.6439
   60MOL   H36221720   5.962   0.499   5.663 -1.3304 -2.9728  0.0169
   61MOL     C121721   5.762   4.867   7.624  0.2661  0.5152  0.4026
   61MOL     C221722   5.641   4.764   7.629 -0.8809 -0.9710 -0.2661
   61MOL     C321723   5.504   4.836   7.631 -0.5855 -0.2454  0.0786
   61MOL     O421724   5.494   4.956   7.664 -0.0190 -0.1118  0.2520
   61MOL     O521725   5.393   4.754   7.621 -0.2934  0.0841  0.4577
   61MOL     C621726   5.262   4.805   7.648 -0.3645  0.1783  0.2852
   61MOL     C721727   5.160   4.747   7.553  0.0396 -0.2232  0.8022
   61MOL     C821728   5.203   4.776   7.402 -0.0085 -0.1558 -0.5766
   61MOL     H921729   5.764   4.930   7.713  0.7827 -0.6698  1.2371
   61MOL    H1021730   5.858   4.816   7.630 -0.0350  0.2105  3.1297
   61MOL    H1121731   5.657   4.709   7.721  0.0057 -1.2760 -0.6027
   61MOL    H1221732   5.221   4.792   7.748  1.3446 -0.4688  0.9308
   61MOL    H1321733   5.249   4.913   7.645 -0.8698  0.2340  3.1175
   61MOL    H1421734   5.141   4.646   7.591  2.3285 -0.6667  0.8341
   61MOL    H1521735   5.061   4.791   7.560 -0.2296 -0.5922 -0.6225
   61MOL    H1621736   5.294   4.721   7.376 -0.0663 -0.8340  0.6326
   61MOL    H1721737   5.124   4.738   7.337  0.0615 -0.6834 -0.3594
   61MOL    H1821738   5.207   4.882   7.377  1.2183 -0.9649 -4.2867
   61MOL    H1921739   5.745   4.919   7.530 -0.6571 -3.6285 -1.8380
   61MOL    C2021740   5.646   4.659   7.515  0.0129 -0.2578 -0.1036
   61MOL    C2121741   5.597   4.512   7.547  0.7270  0.2571  0.2717
   61MOL    C2221742   5.526   4.458   7.421  0.1080 -0.1745 -0.4446
   61MOL    O2321743   5.405   4.465   7.411 -0.5637 -0.3174 -0.2848
   61MOL    O2421744   5.604   4.428   7.321 -0.1207 -0.3562 -0.3206
   61MOL    C2521745   5.545   4.374   7.204  0.1807  0.6376  0.0430
   61MOL    C2621746   5.546   4.467   7.083 -0.3754  0.5920 -0.6977
   61MOL    C2721747   5.469   4.409   6.970  0.2028 -0.2312  0.2817
   61MOL    H2821748   5.748   4.641   7.479 -0.6998 -3.1499 -0.7878
   61MOL    H2921749   5.601   4.699   7.424 -1.7801  0.1996  0.9839
   61MOL    H3021750   5.515   4.518   7.619 -0.1191 -0.3553 -0.6272
   61MOL    H3121751   5.598   4.282   7.179  0.1151  0.9309 -1.2092
   61MOL    H3221752   5.445   4.336   7.224  0.8606 -1.5953 -0.6297
   61MOL    H3321753   5.490   4.554   7.117  0.9283  1.8576 -1.6757
   61MOL    H3421754   5.650   4.493   7.063  0.0108 -0.2441  0.2113
   61MOL    H3521755   5.360   4.417   6.970  0.1665 -0.6708  0.8117
   61MOL    H3621756   5.474   4.301   6.957  1.3144 -0.1962  0.4008
   61MOL    H3721757   5.504   4.453   6.877 -0.4520  0.5346  0.3942
   61MOL    C3821758   5.711   4.413   7.586  0.4947 -0.9766  0.3664
   61MOL    C3921759   5.786   4.443   7.718 -0.3790 -0.0984  0.0569
   61MOL    C4021760   5.697   4.392   7.833  0.2922  0.6769  1.0662
   61MOL    O4121761   5.712   4.281   0.011 -0.1561 -0.1102 -0.8788
   61MOL    O4221762   5.584   4.476   7.846 -0.7521  0.5684 -0.3780
   61MOL    C4321763   5.480   4.436   0.053  0.2753  0.1730  0.3253
   61MOL    C4421764   5.342   4.442   7.866 -0.0811 -0.0953  0.1596
   61MOL    C4521765   5.231   4.392   0.081  0.5130 -0.2416  0.0827
   61MOL    H4621766   5.789   4.414   7.511 -0.9422  2.8646 -1.2467
   61MOL    H4721767   5.676   4.310   7.591  0.7381 -1.0818 -0.1362
   61MOL    H4821768   5.806   4.550   7.723  0.8201 -0.2656 -0.8191
   61MOL    H4921769   5.493   4.332   0.085 -0.4629  0.6472  2.2822
   61MOL    H5021770   5.485   4.503   0.139 -1.1207 -2.3540  2.4608
   61MOL    H5121771   5.321   4.545   7.838 -0.1235 -0.0395  0.3877
   61MOL    H5221772   5.334   4.388   7.772  0.0691  1.4343 -0.7473
   61MOL    H5321773   5.139   4.435   0.042  1.2075  2.5190  1.4046
   61MOL    H5421774   5.244   4.427   0.184 -0.1709  0.9563 -0.2256
   61MOL    H5521775   5.221   4.284   0.074  0.3792 -0.2936  1.0722
   61MOL    C5621776   5.922   4.368   7.729  0.1001 -0.1078 -0.2221
   61MOL    C5721777   6.036   4.427   7.645 -0.5069 -0.0711 -0.5681
   61MOL    C5821778   6.095   4.563   7.697  0.4840  0.0338 -0.0699
   61MOL    O5921779   6.105   4.654   7.616  0.1513 -0.2180  0.0430
   61MOL    O6021780   6.138   4.561   7.817 -0.4825  0.1943 -0.4166
   61MOL    C6121781   6.168   4.683   0.008 -0.3375 -0.2416 -0.9331
   61MOL    C6221782   6.067   4.701   0.120  0.0584  0.2137 -0.1384
   61MOL    C6321783   6.057   4.588   0.230 -0.0124  0.1861  0.8258
   61MOL    H6421784   5.902   4.266   7.695  4.1164 -2.0653  2.8376
   61MOL    H6521785   5.952   4.355   7.833 -0.0040  1.1592 -0.0238
   61MOL    H6621786   6.002   4.457   7.546 -0.8891  0.4641 -0.2790
   61MOL    H6721787   6.268   4.677   0.052 -1.7406  3.5204  3.1063
   61MOL    H6821788   6.162   4.767   7.819  0.9400  0.7729  0.1711
   61MOL    H6921789   6.092   4.799   0.158  2.2068 -0.0582 -0.7902
   61MOL    H7021790   5.969   4.725   0.078 -2.0995 -3.8082  2.2334
   61MOL    H7121791   6.003   4.629   0.316 -2.3650 -1.2746  0.0924
   61MOL    H7221792   6.155   4.557   0.267  1.9153  4.4573 -0.3816
   61MOL    H7321793   5.999   4.507   0.186  0.4478  0.6065 -0.5786
   61MOL    C7421794   6.156   4.329   7.605 -0.2323  0.1096 -0.6625
   61MOL    C7521795   6.236   4.264   7.725  0.0535 -0.6056 -0.0318
   61MOL    C7621796   6.164   4.143   7.789 -0.7438  0.7804 -0.0791
   61MOL    O7721797   6.158   4.138   0.031  0.2674 -0.3126  0.1869
   61MOL    O7821798   6.112   4.063   7.693  0.4170  0.2140 -0.3403
   61MOL    C7921799   6.029   3.958   7.734  0.4868  0.3819  0.6689
   61MOL    C8021800   5.986   3.876   7.617  0.1991 -0.6103 -0.3587
   61MOL    C8121801   5.888   3.771   7.670  0.5476  0.2614  0.3719
   61MOL    H8221802   6.228   4.377   7.539  1.0142  0.5802  1.0103
   61MOL    H8321803   6.131   4.255   7.529  1.4947 -0.2291 -0.9223
   61MOL    H8421804   6.232   4.337   7.806 -1.0316 -0.7215  0.0175
   61MOL    H8521805   6.068   3.881   7.801 -0.3290 -0.2700  0.4040
   61MOL    H8621806   5.946   4.002   7.791  1.1118 -0.9922  2.6839
   61MOL    H8721807   5.930   3.935   7.544 -0.1354  1.2206  1.3209
   61MOL    H8821808   6.068   3.841   7.555  0.0516 -0.3156 -0.7212
   61MOL    H8921809   5.787   3.804   7.694  1.6218  1.7104  3.1299
   61MOL    H9021810   5.932   3.718   7.754  1.4363 -0.7726 -0.7256
   61MOL    H9121811   5.885   3.694   7.593 -1.8722  0.0281  0.6602
   61MOL    C9221812   6.384   4.223   7.683 -0.4485  0.6516  0.2981
   61MOL    C9321813   6.401   4.120   7.568  0.1014 -0.0054 -0.7159
   61MOL    C9421814   6.395   4.175   7.423 -0.2236  0.2168 -0.0677
   61MOL    O9521815   6.336   4.107   7.340  0.4725 -0.1123 -0.2833
   61MOL    O9621816   6.468   4.285   7.400  0.6087 -0.3870  0.0411
   61MOL    C9721817   6.470   4.344   7.274  0.2029 -0.2047 -0.3253
   61MOL    C9821818   6.592   4.286   7.210 -0.2497  0.3555 -0.2570
   61MOL    C9921819   6.636   4.364   7.091  0.0558  0.2087 -0.1148
   61MOL   H10021820   6.429   4.188   7.776 -0.3447 -0.0933 -0.0302
   61MOL   H10121821   6.440   4.313   7.660 -0.8679  0.8785  0.1643
   61MOL   H10221822   6.310   4.060   7.561  0.5881 -0.5263 -3.3219
   61MOL   H10321823   6.388   4.317   7.207  0.2456 -0.7192 -0.1718
   61MOL   H10421824   6.461   4.452   7.284  0.0033 -0.4301  2.1516
   61MOL   H10521825   6.675   4.289   7.280  0.3667  0.5857 -0.9879
   61MOL   H10621826   6.565   4.183   7.183  0.3872  0.2069 -0.3340
   61MOL   H10721827   6.581   4.335   7.001  0.1460  0.9310 -0.4071
   61MOL   H10821828   6.741   4.347   7.068  0.0198 -0.2318  0.0340
   61MOL   H10921829   6.608   4.469   7.099 -2.6534 -0.6083  2.1592
   61MOL   C11021830   6.513   4.015   7.587  0.0179  0.2354 -0.2623
   61MOL   C11121831   6.654   4.064   7.560  0.3301  0.6836  0.1531
   61MOL   C11221832   6.706   4.169   7.659  0.6104  0.2274 -0.1526
   61MOL   O11321833   6.759   4.272   7.630 -0.0629 -0.1849  0.2844
   61MOL   O11421834   6.683   4.132   7.786  0.3367  0.7692 -0.5568
   61MOL   C11521835   6.707   4.207   0.021 -0.5048  0.6047 -0.4555
   61MOL   C11621836   6.857   4.190   0.059  0.3424 -0.8563 -0.4210
   61MOL   C11721837   6.907   4.049   0.038 -0.9603 -0.1287 -0.5916
   61MOL   H11821838   6.494   3.930   7.521  0.4024 -0.9913  1.1771
   61MOL   H11921839   6.504   3.968   7.685  0.9543 -3.0747 -1.6873
   61MOL   H12021840   6.656   4.125   7.469  0.2742  0.1187 -0.2314
   61MOL   H12121841   6.689   4.315   0.022 -0.7027  0.5818 -1.0203
   61MOL   H12221842   6.650   4.167   0.104 -2.2012  0.8432 -1.4761
   61MOL   H12321843   6.922   4.253   7.878  1.4507 -0.7213  0.8662
   61MOL   H12421844   6.881   4.217   0.162  0.5251 -2.0584 -0.1370
   61MOL   H12521845   6.837   3.972   0.070 -0.6444  0.4557  1.6470
   61MOL   H12621846   7.006   4.032   0.082 -2.5063 -1.7968  2.4571
   61MOL   H12721847   6.925   4.028   7.813  0.9514  1.7270 -0.6879
   61MOL   C12821848   6.757   3.944   7.548 -0.4838  0.6514  0.6469
   61MOL   C12921849   6.898   3.982   7.487  0.2985  0.0479  0.5145
   61MOL   C13021850   6.995   3.872   7.532  0.1320 -0.4808 -0.4304
   61MOL   O13121851   7.065   3.885   7.633  0.2205  0.3293  0.6487
   61MOL   O13221852   6.984   3.763   7.456 -0.4680 -0.1114  0.2591
   61MOL   C13321853   7.038   3.639   7.495 -0.2725 -0.3887  0.3278
   61MOL   C13421854   6.931   3.541   7.537 -0.4638 -0.2573 -0.4015
   61MOL   C13521855   6.801   3.537   7.446 -0.0415  0.1341  0.3220
   61MOL   H13621856   6.709   3.865   7.490  0.9684  1.8120 -2.2648
   61MOL   H13721857   6.776   3.902   7.647 -1.0626  0.8238  0.8322
   61MOL   H13821858   6.947   4.063   7.541  0.0248 -0.5633  1.7027
   61MOL   H13921859   7.091   3.608   7.405 -1.8175 -0.4353 -0.5830
   61MOL   H14021860   7.116   3.658   7.568 -0.0657 -2.2330  0.6037
   61MOL   H14121861   6.969   3.441   7.558 -1.3268 -0.2887  1.0736
   61MOL   H14221862   6.895   3.567   7.636 -0.8382 -0.6752 -0.4298
   61MOL   H14321863   6.728   3.473   7.497 -1.1464 -0.3531 -1.8117
   61MOL   H14421864   6.817   3.491   7.348  0.1136 -0.7791  0.7651
   61MOL   H14521865   6.758   3.637   7.442  1.4451  0.8207  1.1441
   61MOL   C14621866   6.901   4.021   7.337  0.7816  0.8676  0.4633
   61MOL   C14721867   7.030   4.079   7.278  0.3910  0.1138  0.6999
   61MOL   C14821868   7.068   3.995   7.152  0.1951  0.0346  0.0708
   61MOL   O14921869   7.061   4.038   7.038 -0.1556 -0.0744  0.7421
   61MOL   O15021870   7.113   3.868   7.184  0.2386 -0.0161  0.2161
   61MOL   C15121871   7.143   3.773   7.075 -0.2842 -0.2668 -0.1787
   61MOL   C15221872   7.094   3.630   7.106 -0.2045 -0.6313 -0.3168
   61MOL   C15321873   7.112   3.549   6.985 -0.7882  0.6804 -0.1684
   61MOL   H15421874   6.824   4.095   7.317 -0.3209  0.2043  2.0927
   61MOL   H15521875   6.868   3.931   7.286 -1.8457  2.9071 -1.5053
   61MOL   H15621876   7.116   4.075   7.345 -0.4380 -2.0452  1.6583
   61MOL   H15721877   7.089   3.804   6.986 -0.5328 -1.3171 -0.4036
   61MOL   H15821878   7.249   3.777   7.052 -0.0643  3.1137  1.0546
   61MOL   H15921879   7.150   3.573   7.182 -2.3281 -0.4038  1.4702
   61MOL   H16021880   6.988   3.623   7.130 -0.3364  2.4089  0.1962
   61MOL   H16121881   7.107   3.442   7.008  2.6643  1.1709  3.3367
   61MOL   H16221882   7.203   3.573   6.931  0.6081 -2.8536  0.4737
   61MOL   H16321883   7.024   3.569   6.924 -1.1360 -0.6071 -0.1082
   61MOL   C16421884   7.015   4.230   7.237 -0.3304 -0.1865 -0.1372
   61MOL   C16521885   6.994   4.328   7.360  0.3304  0.2527 -0.0518
   61MOL   C16621886   7.091   4.321   7.472 -0.3123 -0.6333 -0.0382
   61MOL   O16721887   7.058   4.312   7.589  0.5585 -0.3722 -0.0418
   61MOL   O16821888   7.215   4.334   7.431  0.2204 -0.2073 -0.1131
   61MOL   C16921889   7.324   4.306   7.511  0.3560 -0.2152 -1.0710
   61MOL   C17021890   7.382   4.168   7.470 -0.3353 -0.4494 -0.2745
   61MOL   C17121891   7.404   4.154   7.316  0.1156  0.0929 -0.2738
   61MOL   H17221892   6.927   4.232   7.173  1.2301 -0.3512 -2.3419
   61MOL   H17321893   7.103   4.266   7.184  0.7734 -1.9390  0.4490
   61MOL   H17421894   6.909   4.278   7.406  1.5482  0.2055  2.1957
   61MOL   H17521895   7.408   4.377   7.507 -1.2940  1.8077 -0.8940
   61MOL   H17621896   7.294   4.301   7.615  2.0660 -1.4022 -0.6139
   61MOL   H17721897   7.480   4.159   7.517  0.0271  0.1034 -0.9118
   61MOL   H17821898   7.308   4.092   7.495  1.0404 -1.7452 -0.1020
   61MOL   H17921899   7.489   4.214   7.281  2.9301 -3.1738  0.6745
   61MOL   H18021900   7.314   4.184   7.262  0.5216  1.1313 -0.3834
   61MOL   H18121901   7.435   4.056   7.281 -0.1997 -0.7393  1.7659
   61MOL   C18221902   6.972   4.479   7.322 -0.8029 -0.1658  0.5444
   61MOL   C18321903   6.972   4.592   7.424  0.1446  0.1943 -0.0931
   61MOL   C18421904   6.988   4.736   7.352 -0.5452  0.7107 -1.2471
   61MOL   O18521905   7.074   4.816   7.393  0.4944 -0.2661  0.7738
   61MOL   O18621906   6.905   4.757   7.248  0.2498  0.0470 -0.4067
   61MOL   C18721907   6.899   4.881   7.178  0.5065  0.0350  0.3117
   61MOL   C18821908   6.909   4.851   7.030 -0.3818  0.1319  0.0735
   61MOL   C18921909   6.802   4.741   6.986  0.1696  0.7318  0.1563
   61MOL   H19021910   6.889   4.499   7.255 -1.9862  0.2219  2.1012
   61MOL   H19121911   7.059   4.499   7.259  0.1476  0.4341  2.0272
   61MOL   H19221912   7.053   4.575   7.496 -0.5150 -2.0850  0.1658
   61MOL   H19321913   6.802   4.923   7.204  1.4184  2.4531 -0.0651
   61MOL   H19421914   6.977   4.953   7.202 -0.8520  1.1827  1.4219
   61MOL   H19521915   6.879   4.944   6.982  1.4948  2.6892  3.5897
   61MOL   H19621916   7.007   4.818   6.996  0.3526  1.1155  1.1638
   61MOL   H19721917   6.800   4.722   6.879  0.1939  0.0820  0.2696
   61MOL   H19821918   6.705   4.791   6.995  1.1339  2.8645 -1.0063
   61MOL   H19921919   6.826   4.649   7.039  3.6699  2.0692  1.0541
   61MOL   C20021920   6.844   4.608   7.507  0.2235  0.2290 -0.0790
   61MOL   C20121921   6.870   4.684   7.640  0.1389  0.5637 -0.6030
   61MOL   C20221922   6.736   4.744   7.690  0.2126  0.0045 -0.3614
   61MOL   O20321923   6.719   4.865   7.693 -0.1378  0.5487  1.0400
   61MOL   O20421924   6.648   4.650   7.703 -0.1028 -0.3086 -0.3517
   61MOL   C20521925   6.507   4.688   7.729 -0.3142  0.2900 -0.2939
   61MOL   C20621926   6.440   4.741   7.596  0.1765 -0.3898  0.3769
   61MOL   C20721927   6.415   4.640   7.483  0.0500  0.5856  0.0923
   61MOL   H20821928   6.798   4.509   7.517  0.4410  0.0193 -1.0905
   61MOL   H20921929   6.771   4.665   7.449  0.1894  0.5774  0.3051
   61MOL   H21021930   6.930   4.773   7.623  2.6596 -1.1488 -1.0557
   61MOL   H21121931   6.456   4.600   7.767  0.3495 -1.0286 -2.3656
   61MOL   H21221932   6.512   4.763   7.808  1.8160  0.0878 -0.1846
   61MOL   H21321933   6.339   4.771   7.626 -0.1048 -1.5088  0.5938
   61MOL   H21421934   6.483   4.837   7.568 -0.7505 -0.1025 -0.0694
   61MOL   H21521935   6.386   4.543   7.525  0.8401  0.0953 -0.4885
   61MOL   H21621936   6.502   4.629   7.419 -0.0158 -1.3307  0.3052
   61MOL   H21721937   6.336   4.675   7.416  0.3341  0.3805 -0.3517
   61MOL   C21821938   6.952   4.587   7.734  0.6411 -0.4335  0.3493
   61MOL   C21921939   6.983   4.633   7.880 -0.3730  0.4506  0.3065
   61MOL   C22021940   7.015   4.525   0.096  0.4640 -0.2306  0.4128
   61MOL   O22121941   6.929   4.482   0.169 -0.1345 -0.2921  0.1687
   61MOL   O22221942   7.141   4.478   0.079 -0.3210  0.2094  0.0454
   61MOL   C22321943   7.174   4.348   0.137  0.0264  0.5883 -0.1177
   61MOL   C22421944   7.257   4.264   0.033  0.5255  0.3139 -0.3577
   61MOL   C22521945   7.292   4.124   0.097  0.1938 -0.4797 -0.0976
   61MOL   H22621946   7.051   4.566   7.693  0.6325 -2.8433  1.4418
   61MOL   H22721947   6.899   4.492   7.726  0.4059 -0.4072  1.4047
   61MOL   H22821948   6.893   4.688   0.029 -0.1108  1.0729 -0.0489
   61MOL   H22921949   7.234   4.360   0.227  0.0940  1.9308 -0.3407
   61MOL   H23021950   7.080   4.296   0.160  0.9026 -0.8857  0.1683
   61MOL   H23121951   7.188   4.248   7.831  0.2961  0.6402 -0.2281
   61MOL   H23221952   7.344   4.313   7.870 -0.7552  1.9308 -1.1590
   61MOL   H23321953   7.314   4.051   0.019 -0.6364 -0.2675 -0.5440
   61MOL   H23421954   7.222   4.079   0.167 -2.2696  0.1183 -2.1094
   61MOL   H23521955   7.388   4.148   0.143  0.6496 -0.6333 -0.9426
   61MOL   C23621956   7.083   4.751   0.004 -0.4104  0.1122 -1.0020
   61MOL   C23721957   7.111   4.821   0.139  0.1082  0.4054 -0.6682
   61MOL   C23821958   7.232   4.914   0.137  0.0328  0.2311  0.2455
   61MOL   O23921959   7.288   4.950   0.035 -0.4741  0.2550  0.3587
   61MOL   O24021960   7.276   4.943   0.266 -0.3268 -0.5197 -0.1600
   61MOL   C24121961   7.380   5.025   0.284  0.2217 -0.3803 -0.1769
   61MOL   C24221962   7.375   5.082   0.426 -0.1059 -0.4872 -0.3911
   61MOL   C24321963   7.266   5.193   0.431  0.6473  0.2838 -0.3159
   61MOL   H24421964   7.067   4.822   7.803 -1.5787 -1.7526 -2.4326
   61MOL   H24521965   7.177   4.717   7.843 -0.8830 -0.9333 -1.2280
   61MOL   H24621966   7.126   4.744   0.215  0.0962  0.3493 -0.7220
   61MOL   H24721967   7.460   4.953   0.267  0.5565  0.2321 -1.2542
   61MOL   H24821968   7.400   5.099   0.206  0.2909 -1.7000 -1.4506
   61MOL   H24921969   7.358   5.012   0.509  0.2636 -0.5385 -0.3559
   61MOL   H25021970   7.473   5.126   0.445 -0.1573 -0.0392 -1.1636
   61MOL   H25121971   7.181   5.145   0.382  0.0402  0.0509  0.9231
   61MOL   H25221972   7.290   5.289   0.387 -2.4240  0.9463 -0.6614
   61MOL   H25321973   7.253   5.207   0.538  0.8329 -1.1698 -0.0876
   61MOL   C25421974   6.987   4.904   0.170 -0.2356  0.2775  0.3567
   61MOL   C25521975   6.890   4.839   0.268 -0.2229  1.1204  0.5502
   61MOL   C25621976   6.936   4.858   0.414  0.3449 -0.1270 -0.5922
   61MOL   O25721977   6.868   4.916   0.496  0.3209 -0.1271  0.3015
   61MOL   O25821978   7.055   4.806   0.444 -0.7973  0.3404 -0.1574
   61MOL   C25921979   7.111   4.801   0.581  0.1643  0.5717 -0.2032
   61MOL   C26021980   7.068   4.664   0.638  0.2751  0.3450  0.1150
   61MOL   C26121981   7.108   4.536   0.562 -0.0397  0.0885  0.1733
   61MOL   H26221982   6.941   4.934   0.076 -1.6408 -2.6320  0.0482
   61MOL   H26321983   7.019   4.997   0.215  0.5194 -0.7103  1.9050
   61MOL   H26421984   6.893   4.730   0.256  2.5083  0.9191  2.5175
   61MOL   H26521985   7.218   4.811   0.569 -0.0077  1.2557 -1.2474
   61MOL   H26621986   7.066   4.875   0.648  1.3171  0.3663  0.8087
   61MOL   H26721987   7.099   4.655   0.742  1.0271 -0.2090 -0.1482
   61MOL   H26821988   6.959   4.667   0.636  0.2512 -0.1481  0.5277
   61MOL   H26921989   7.098   4.547   0.454  4.9878 -3.3196 -0.8223
   61MOL   H27021990   7.034   4.462   0.591 -0.8009  0.1430 -1.5339
   61MOL   H27121991   7.210   4.498   0.572 -0.0961  0.0246  0.5034
   61MOL   C27221992   6.745   4.885   0.238 -0.1902  0.0876  0.4378
   61MOL   C27321993   6.640   4.790   0.296 -0.1712 -0.2417  0.2111
   61MOL   C27421994   6.508   4.868   0.315  0.2514 -0.1603  0.1837
   61MOL   O27521995   6.427   4.890   0.225  0.1192 -0.1955 -0.6417
   61MOL   O27621996   6.490   4.921   0.434  0.6269  0.0302  0.0216
   61MOL   C27721997   6.379   5.014   0.460  0.2756 -1.0554  0.2179
   61MOL   C27821998   6.450   5.145   0.489  0.2077 -0.8363  0.0130
   61MOL   C27921999   6.535   5.143   0.620  0.1752 -0.0643  0.7690
   61MOL   H28022000   6.718   4.888   0.133 -2.4419 -1.4684  0.9510
   61MOL   H28122001   6.747   4.986   0.279 -1.9190  0.5761 -0.6276
   61MOL   H28222002   6.674   4.768   0.397 -0.2844  0.3102  0.3743
   61MOL   H28322003   6.316   5.026   0.372 -0.1195 -1.4405  0.4430
   61MOL   H28422004   6.319   4.969   0.539  1.9783 -2.0588  0.9786
   61MOL   H28522005   6.500   5.180   0.399 -0.9370  1.5196  0.2610
   61MOL   H28622006   6.375   5.222   0.508  1.2860  0.5960 -1.4159
   61MOL   H28722007   6.471   5.105   0.700  0.1588 -1.4720  0.0942
   61MOL   H28822008   6.573   5.242   0.644  0.9611 -0.5187  1.4187
   61MOL   H28922009   6.621   5.079   0.600  0.5419  1.1897 -1.9106
   61MOL   C29022010   6.613   4.662   0.212  0.4193 -0.1456 -0.4846
   61MOL   C29122011   6.563   4.548   0.303 -0.5226  0.7312 -0.7812
   61MOL   C29222012   6.460   4.462   0.232  0.6506 -0.1074 -0.5104
   61MOL   O29322013   6.468   4.425   0.114 -0.5626 -0.3602  0.0621
   61MOL   O29422014   6.362   4.414   0.317 -0.6844  0.2737 -0.2083
   61MOL   C29522015   6.271   4.319   0.272 -0.2134  0.2480 -0.6906
   61MOL   C29622016   6.163   4.292   0.375 -0.1860 -0.2782  0.5416
   61MOL   C29722017   6.203   4.202   0.496  0.7503  0.0681  0.3595
   61MOL   H29822018   6.699   4.627   0.156  0.6896  1.3756 -1.0482
   61MOL   H29922019   6.544   4.686   0.131  1.7145  1.7937 -1.0391
   61MOL   H30022020   6.500   4.597   0.377 -1.6590 -0.6242 -0.8265
   61MOL   H30122021   6.226   4.347   0.177  1.9854  0.3597 -1.7393
   61MOL   H30222022   6.308   4.219   0.249 -1.4263  0.0314 -1.7850
   61MOL   H30322023   6.125   4.386   0.417  0.7446 -0.2891  1.4295
   61MOL   H30422024   6.079   4.247   0.322  1.7975 -2.3327 -0.8852
   61MOL   H30522025   6.134   4.178   0.577  0.3818 -1.5008 -0.4001
   61MOL   H30622026   6.307   4.214   0.527  0.8466 -0.4182  0.2236
   61MOL   H30722027   6.210   4.106   0.446 -0.3340  0.3016 -0.2652
   61MOL   C30822028   6.678   4.477   0.376  0.5377 -0.2259 -0.0973
   61MOL   C30922029   6.627   4.395   0.494 -0.0104  0.2589  0.6054
   61MOL   C31022030   6.654   4.241   0.486 -0.0640  1.0846 -0.0980
   61MOL   O31122031   6.579   4.146   0.514  0.3739 -0.1492 -0.1715
   61MOL   O31222032   6.787   4.226   0.454 -0.1353  0.0415 -0.4063
   61MOL   C31322033   6.827   4.087   0.440  0.2789  0.8113 -0.8500
   61MOL   C31422034   6.977   4.093   0.425  0.2628  0.6779 -0.1840
   61MOL   C31522035   7.037   3.949   0.397  0.9639 -0.4562  0.6783
   61MOL   H31622036   6.762   4.543   0.395  1.2076 -0.7256 -1.2612
   61MOL   H31722037   6.720   4.406   0.305 -2.0689 -1.1234 -0.7978
   61MOL   H31822038   6.519   4.394   0.484 -0.0720  2.4554  0.7212
   61MOL   H31922039   6.797   4.041   0.534 -0.9620  0.3260 -1.4614
   61MOL   H32022040   6.777   4.036   0.357  2.4890 -2.1024 -0.4828
   61MOL   H32122041   6.983   4.155   0.335  2.3289 -0.1063 -0.6159
   61MOL   H32222042   7.028   4.140   0.508  0.1425 -1.0151  0.8720
   61MOL   H32322043   7.144   3.965   0.383  1.1395 -2.1328  0.0325
   61MOL   H32422044   7.030   3.870   0.471 -0.8144 -0.9620 -0.0090
   61MOL   H32522045   7.006   3.917   0.298  0.8060 -1.7478  1.1351
   61MOL   C32622046   6.672   4.452   0.632 -0.9589 -0.1636  0.6198
   61MOL   C32722047   6.619   4.597   0.654  0.4719 -0.7738  0.6567
   61MOL   C32822048   6.463   4.597   0.672 -1.1365  0.0753 -1.0497
   61MOL   O32922049   6.401   4.681   0.607 -0.4314  0.3508  0.1902
   61MOL   O33022050   6.417   4.504   0.744 -0.2112 -0.1478  0.3939
   61MOL   C33122051   6.278   4.499   0.778  0.9049  0.3696  0.3128
   61MOL   C33222052   6.248   4.353   0.825  0.3654 -0.0278 -0.5226
   61MOL   C33322053   6.112   4.309   0.855 -0.1173 -0.3358 -0.3132
   61MOL   H33422054   6.781   4.452   0.639 -0.7686  1.8295 -1.8069
   61MOL   H33522055   6.636   4.390   0.714 -0.6276 -0.7249  0.3436
   61MOL   H33622056   6.652   4.671   0.581 -1.5782  0.6038  1.0569
   61MOL   H33722057   6.249   4.570   0.856  1.3639  0.8996  0.0085
   61MOL   H33822058   6.221   4.521   0.688 -1.2792 -1.1420  1.2924
   61MOL   H33922059   6.289   4.292   0.744  1.8750  2.6215 -1.8279
   61MOL   H34022060   6.312   4.329   0.910 -1.3822  0.1017  0.8281
   61MOL   H34122061   6.114   4.220   0.919  0.4479  1.0420  1.6497
   61MOL   H34222062   6.066   4.390   0.912  0.8074 -0.2925  0.3860
   61MOL   H34322063   6.061   4.291   0.761  1.7813 -0.0382 -1.4080
   61MOL   C34422064   6.675   4.657   0.785  0.3999  0.5593 -0.6978
   61MOL   C34522065   6.671   4.814   0.793  0.3059  0.0770  0.3133
   61MOL   C34622066   6.703   4.864   0.929 -0.2045 -0.7650  0.0800
   61MOL   O34722067   6.614   4.898   1.010  0.4840 -0.0015 -0.2447
   61MOL   O34822068   6.836   4.861   0.959  0.0525  0.2717 -0.0471
   61MOL   C34922069   6.901   4.907   1.081  0.2485 -0.3897  0.1242
   61MOL   C35022070   6.933   4.793   1.179  0.0327  0.1550  0.0186
   61MOL   C35122071   7.006   4.833   1.307  0.1674 -0.1434 -0.1316
   61MOL   H35222072   6.773   4.617   0.812 -0.8958 -1.7258  0.8132
   61MOL   H35322073   6.614   4.615   0.866 -1.3414 -0.6554 -2.5854
   61MOL   H35422074   6.582   4.866   0.759 -1.0851 -1.9342  0.7882
   61MOL   H35522075   6.998   4.946   1.053 -0.3712  0.3594 -1.0383
   61MOL   H35622076   6.835   4.984   1.122  0.9344 -0.6323  1.7321
   61MOL   H35722077   6.847   4.738   1.215  0.1345  0.1365  0.2363
   61MOL   H35822078   6.996   4.726   1.120 -0.4906 -2.2551  2.0957
   61MOL   H35922079   7.011   4.751   1.379 -2.2142 -2.1578 -2.1567
   61MOL   H36022080   7.112   4.858   1.301 -0.0507  0.4973 -1.3985
   61MOL   H36122081   6.962   4.919   1.358  0.4255 -0.0525 -0.0618
   61MOL   H36222082   6.747   4.856   0.726 -0.2032  3.6231  1.8636
   62MOL     C122083   6.415   0.779   1.503 -0.8643  0.2493  0.0516
   62MOL     C222084   6.458   0.796   1.656 -0.1801  0.0683  0.1822
   62MOL     C322085   6.420   0.936   1.716 -0.1170 -1.3972  0.0888
   62MOL     O422086   6.516   1.010   1.748  0.2236  0.2329  0.4248
   62MOL     O522087   6.289   0.972   1.714 -0.5531  0.3782  0.3780
   62MOL     C622088   6.256   1.105   1.748 -0.5584  0.2768  0.4714
   62MOL     C722089   6.122   1.127   1.677  0.0682  0.7137  0.7627
   62MOL     C822090   6.010   1.036   1.729  0.3829  0.1379  0.2132
   62MOL     H922091   6.467   0.708   1.439  2.3609  2.9458 -0.4489
   62MOL    H1022092   6.315   0.738   1.487 -0.2140 -1.8511  1.1794
   62MOL    H1122093   6.566   0.789   1.667  0.1108  2.0007 -1.3143
   62MOL    H1222094   6.242   1.102   1.856 -0.8206 -1.6019  0.4024
   62MOL    H1322095   6.324   1.179   1.706 -1.5593  0.3510 -1.0787
   62MOL    H1422096   6.083   1.229   1.684  0.6851  1.2313 -2.7264
   62MOL    H1522097   6.134   1.117   1.570  0.3111 -1.7863  1.0019
   62MOL    H1622098   6.012   0.932   1.695 -0.2416  0.8627 -2.1933
   62MOL    H1722099   6.009   1.036   1.838 -0.4607  0.6883  0.2138
   62MOL    H1822100   5.916   1.084   1.700  0.3462  0.2358  0.4955
   62MOL    H1922101   6.417   0.875   1.450  1.6748  1.6348  2.5288
   62MOL    C2022102   6.393   0.678   1.736 -0.6013 -0.1149  0.2862
   62MOL    C2122103   6.501   0.572   1.776  0.5686  1.2127 -0.1868
   62MOL    C2222104   6.465   0.490   1.907 -0.0817 -0.3697 -0.5452
   62MOL    O2322105   6.534   0.497   2.008  0.3465 -0.2336 -0.0081
   62MOL    O2422106   6.348   0.419   1.889 -0.6712 -0.3594  0.8444
   62MOL    C2522107   6.296   0.343   1.997 -0.4134 -0.3913 -0.3121
   62MOL    C2622108   6.140   0.352   1.994  1.2883  0.2058 -0.1769
   62MOL    C2722109   6.075   0.484   2.035 -0.1656 -0.3012  0.0109
   62MOL    H2822110   6.310   0.630   1.683  1.1230 -2.0544 -0.7014
   62MOL    H2922111   6.350   0.725   1.825 -1.4063  0.3404 -0.3263
   62MOL    H3022112   6.588   0.623   1.816  0.2982  0.7465  1.0540
   62MOL    H3122113   6.322   0.240   1.972 -2.6639 -1.2230  0.7070
   62MOL    H3222114   6.342   0.362   2.093 -0.7324  0.0557 -0.2490
   62MOL    H3322115   6.100   0.322   1.896 -0.0071 -0.8187  0.6392
   62MOL    H3422116   6.093   0.275   2.056 -1.4062  0.8248 -1.3719
   62MOL    H3522117   5.967   0.482   2.050 -0.2819  1.2495 -0.5200
   62MOL    H3622118   6.100   0.552   1.953  0.8051 -0.0349  0.5180
   62MOL    H3722119   6.126   0.512   2.127 -0.0904 -0.6569  0.0766
   62MOL    C3822120   6.550   0.477   1.668 -0.2251  0.4413 -0.4773
   62MOL    C3922121   6.685   0.399   1.708  0.2426  0.3872 -0.1647
   62MOL    C4022122   6.656   0.266   1.771 -0.1581 -0.1863 -0.1136
   62MOL    O4122123   6.558   0.193   1.746 -0.0441 -0.0604  0.0465
   62MOL    O4222124   6.761   0.217   1.857 -0.2734 -0.3341  0.8747
   62MOL    C4322125   6.750   0.093   1.917 -0.2531 -0.6060 -0.0781
   62MOL    C4422126   6.816   7.865   1.828 -0.0757 -1.0565  0.2939
   62MOL    C4522127   6.802   7.727   1.895 -0.2530  0.0278 -0.5058
   62MOL    H4622128   6.569   0.525   1.571  3.2138  0.4171  0.1182
   62MOL    H4722129   6.471   0.406   1.645  0.1883  0.3074 -1.5166
   62MOL    H4822130   6.742   0.441   1.791  0.2872 -1.0691  0.5535
   62MOL    H4922131   6.797   0.099   2.014 -1.4536 -2.5787  0.6527
   62MOL    H5022132   6.645   0.072   1.937 -0.1399 -0.0707  1.0816
   62MOL    H5122133   6.759   7.872   1.735 -0.9081 -2.1280  0.7197
   62MOL    H5222134   6.921   0.008   1.807 -0.4192  1.6048  1.3097
   62MOL    H5322135   6.855   7.651   1.839 -0.9341 -0.4336 -0.5335
   62MOL    H5422136   6.699   7.690   1.895  0.1204 -1.0433  0.0137
   62MOL    H5522137   6.830   7.725   2.001  1.1187  0.6860 -0.8485
   62MOL    C5622138   6.773   0.391   1.584 -0.1512  0.4496  0.2983
   62MOL    C5722139   6.871   0.508   1.559 -0.4609  0.4797 -1.0005
   62MOL    C5822140   6.815   0.645   1.520  0.3941  0.0856  0.4625
   62MOL    O5922141   6.780   0.729   1.602 -0.1639 -0.0194 -0.3461
   62MOL    O6022142   6.803   0.655   1.380  0.3063 -0.8321 -0.0192
   62MOL    C6122143   6.734   0.778   1.332 -0.1522  0.1987  0.1329
   62MOL    C6222144   6.673   0.762   1.195  1.1030 -0.2897  0.0045
   62MOL    C6322145   6.774   0.702   1.088 -0.0438 -0.1289  0.0622
   62MOL    H6422146   6.717   0.367   1.493 -0.4246  0.8735  0.3550
   62MOL    H6522147   6.841   0.307   1.591  0.4593  0.9933  0.9162
   62MOL    H6622148   6.927   0.485   1.469  0.0398  0.3459 -0.6581
   62MOL    H6722149   6.649   0.819   1.386  0.7119  2.8946 -0.5017
   62MOL    H6822150   6.808   0.858   1.338 -0.9441  0.9899 -0.5508
   62MOL    H6922151   6.585   0.698   1.190  1.2671 -0.4255 -1.5190
   62MOL    H7022152   6.637   0.855   1.152  1.1883 -0.5622 -0.6709
   62MOL    H7122153   6.864   0.762   1.076  0.0033  0.2403  2.2242
   62MOL    H7222154   6.728   0.698   0.989 -0.1975 -0.2532  0.1389
   62MOL    H7322155   6.794   0.598   1.114  0.1041 -0.6923 -2.1559
   62MOL    C7422156   6.966   0.538   1.677 -0.7413 -0.1785  0.2257
   62MOL    C7522157   7.096   0.612   1.666  0.2841  0.3788 -0.7801
   62MOL    C7622158   7.071   0.761   1.680  0.6522  0.0799 -0.9828
   62MOL    O7722159   7.092   0.832   1.581 -0.2830  0.0435 -0.0913
   62MOL    O7822160   7.033   0.804   1.803 -0.2406  0.8425 -0.1009
   62MOL    C7922161   6.999   0.940   1.822  0.2074  0.1482  0.1217
   62MOL    C8022162   6.906   0.946   1.944  0.5764 -0.2219 -0.0022
   62MOL    C8122163   6.788   0.865   1.920  0.8287  0.5312  0.4320
   62MOL    H8222164   6.998   0.438   1.708 -0.7679  0.0708  1.0837
   62MOL    H8322165   6.915   0.587   1.761 -0.9164  1.1199 -0.6312
   62MOL    H8422166   7.128   0.590   1.564 -1.2789 -1.4403 -0.9088
   62MOL    H8522167   7.082   1.010   1.825  0.0466  0.4267 -1.8427
   62MOL    H8622168   6.944   0.971   1.734 -0.9569  0.1966  0.8516
   62MOL    H8722169   6.957   0.912   2.035  0.7613 -1.7739 -0.6626
   62MOL    H8822170   6.868   1.047   1.958  0.8938 -0.0260 -0.5527
   62MOL    H8922171   6.807   0.760   1.898  1.1114  1.0185 -1.7953
   62MOL    H9022172   6.747   0.895   1.823 -2.9147 -4.0976  0.4364
   62MOL    H9122173   6.707   0.879   1.992 -0.1456  1.1939 -0.7697
   62MOL    C9222174   7.200   0.562   1.776  0.3980 -0.5557 -0.2128
   62MOL    C9322175   7.258   0.423   1.759  0.0585  0.3635  0.5535
   62MOL    C9422176   7.366   0.429   1.651 -0.6588 -0.5247  0.7182
   62MOL    O9522177   7.352   0.365   1.545  0.6868 -0.5396 -0.7136
   62MOL    O9622178   7.471   0.512   1.671  0.3357 -0.4673 -0.5224
   62MOL    C9722179   7.590   0.505   1.601  1.1062  0.4061  0.1617
   62MOL    C9822180   7.675   0.386   1.640 -0.4560 -0.1958  0.3760
   62MOL    C9922181   7.817   0.391   1.565 -0.7299 -0.5610  0.0109
   62MOL   H10022182   7.136   0.552   1.863 -0.3652  0.7179 -0.6246
   62MOL   H10122183   7.271   0.644   1.788  0.2884 -0.9852  3.9162
   62MOL   H10222184   7.187   0.348   1.725  1.4851 -0.7455 -0.0557
   62MOL   H10322185   7.560   0.502   1.496 -2.8511 -0.1466  1.2269
   62MOL   H10422186   7.650   0.592   1.628  0.0969  0.9217  0.7662
   62MOL   H10522187   7.703   0.390   1.745 -0.2636  0.5096  0.3038
   62MOL   H10622188   7.616   0.302   1.604 -0.0490 -0.3093 -0.0336
   62MOL   H10722189   7.874   0.305   1.600 -0.2311 -0.2745 -0.0829
   62MOL   H10822190   7.873   0.481   1.592 -1.0006 -0.0861 -1.0029
   62MOL   H10922191   7.797   0.386   1.458  1.0966  1.4853 -0.4646
   62MOL   C11022192   7.325   0.367   1.897 -0.4519  0.0141 -0.2048
   62MOL   C11122193   7.256   0.234   1.937  0.0656 -0.3642  0.3691
   62MOL   C11222194   7.306   0.123   1.843 -0.3489 -0.7269 -0.2074
   62MOL   O11322195   7.220   0.056   1.780  0.1731  0.5078 -0.0361
   62MOL   O11422196   7.438   0.121   1.820 -0.4132 -0.7014 -0.3234
   62MOL   C11522197   7.486   0.026   1.724  0.7348 -0.3986  0.1213
   62MOL   C11622198   7.628   7.876   1.751  0.0281  0.0882 -0.2076
   62MOL   C11722199   7.653   7.799   1.886 -0.2828 -0.0559  0.3481
   62MOL   H11822200   7.309   0.443   1.974 -1.9726 -0.9486  0.4526
   62MOL   H11922201   7.434   0.358   1.899 -0.5013 -0.5068  2.2209
   62MOL   H12022202   7.148   0.239   1.928  0.0799  0.2108  0.5010
   62MOL   H12122203   7.431   7.813   1.714 -0.5470  0.5203 -1.5771
   62MOL   H12222204   7.466   0.072   1.628  0.5096 -1.3582 -0.2977
   62MOL   H12322205   7.666   7.811   1.672 -1.7375 -0.5337 -0.5700
   62MOL   H12422206   7.687   0.088   1.743  0.7081 -0.2265  1.0527
   62MOL   H12522207   7.574   7.727   1.902 -0.7851  0.0255 -1.6326
   62MOL   H12622208   7.632   7.853   1.978 -1.2697 -2.0646  1.3078
   62MOL   H12722209   7.742   7.737   1.892 -0.3767 -0.0165  2.3353
   62MOL   C12822210   7.285   0.191   2.085  0.2966  0.4053 -0.8539
   62MOL   C12922211   7.173   0.102   2.158  0.9252 -0.1214  0.0719
   62MOL   C13022212   7.072   0.200   2.217  0.0575  0.4287 -0.1703
   62MOL   O13122213   7.068   0.221   2.335  0.3082  0.0838  0.2687
   62MOL   O13222214   6.978   0.241   2.124 -0.1341  0.3498  0.8704
   62MOL   C13322215   6.871   0.314   2.179  0.4027  0.7758  0.2133
   62MOL   C13422216   6.909   0.458   2.178  0.0710  0.2574  0.4192
   62MOL   C13522217   6.916   0.514   2.037  0.4906 -0.0739  0.2372
   62MOL   H13622218   7.309   0.276   2.149 -0.5334 -0.3829  0.5371
   62MOL   H13722219   7.378   0.133   2.086 -0.1782 -0.3565 -0.3275
   62MOL   H13822220   7.223   0.067   2.248 -0.4386  1.1832  1.3677
   62MOL   H13922221   6.793   0.307   2.103  0.4921 -0.7121  0.2454
   62MOL   H14022222   6.833   0.272   2.273 -1.2145  0.3631 -0.6091
   62MOL   H14122223   6.833   0.503   2.242 -1.0367 -1.3528  0.2592
   62MOL   H14222224   7.001   0.481   2.231  1.2289 -2.8639 -0.1426
   62MOL   H14322225   6.819   0.539   1.995 -0.4077 -2.0072  1.1331
   62MOL   H14422226   6.948   0.436   1.968 -0.1440 -1.8131  1.8589
   62MOL   H14522227   6.993   0.591   2.029  0.3713  0.1597  1.2934
   62MOL   C14622228   7.101   7.866   2.084  0.5981 -0.4511  0.0914
   62MOL   C14722229   7.179   7.730   2.075 -0.2371  0.8510  0.0227
   62MOL   C14822230   7.203   7.665   2.210  0.5611  0.3857 -0.9654
   62MOL   O14922231   7.307   7.670   2.272  0.2913 -0.3616  0.3899
   62MOL   O15022232   7.091   7.587   2.239 -0.2775 -0.2652  0.0963
   62MOL   C15122233   7.105   7.497   2.339  0.1294 -0.0897 -0.1415
   62MOL   C15222234   7.039   7.365   2.287 -0.5054  0.1932 -1.0078
   62MOL   C15322235   7.036   7.266   2.399  0.4550  0.0477 -0.3718
   62MOL   H15422236   7.077   0.034   1.989 -0.8328  1.3878  1.3477
   62MOL   H15522237   7.006   7.841   2.133  1.1748 -1.4301  0.7234
   62MOL   H15622238   7.273   7.766   2.033  0.6617  0.4895  1.6954
   62MOL   H15722239   7.212   7.484   2.353  0.4019  3.1792  1.3305
   62MOL   H15822240   7.051   7.526   2.429 -2.1658  0.7269 -1.7276
   62MOL   H15922241   6.939   7.385   2.248  0.1093 -2.1624 -3.9758
   62MOL   H16022242   7.101   7.325   2.207 -1.3828  1.2584 -2.2433
   62MOL   H16122243   7.016   7.167   2.357  0.2194  0.4599 -1.2426
   62MOL   H16222244   6.952   7.278   2.468  0.5394  0.0449 -0.2682
   62MOL   H16322245   7.123   7.269   2.464 -0.9376  1.2828  1.4729
   62MOL   C16422246   7.111   7.643   1.962 -0.4236 -0.4338 -0.7085
   62MOL   C16522247   7.198   7.529   1.898  0.0900  0.4872  0.4739
   62MOL   C16622248   7.101   7.447   1.809 -0.2296 -0.9770  0.5301
   62MOL   O16722249   7.041   7.499   1.715 -0.3797  0.1379 -0.7524
   62MOL   O16822250   7.096   7.324   1.855 -0.9609  0.1209  0.3269
   62MOL   C16922251   6.995   7.241   1.804 -0.0386 -0.3733  0.2350
   62MOL   C17022252   7.009   7.100   1.873  0.2034  0.2928 -0.2366
   62MOL   C17122253   6.987   7.098   2.023 -0.2149  0.5350 -0.1854
   62MOL   H17222254   7.085   7.712   1.882 -0.0999  1.2988  0.6527
   62MOL   H17322255   7.025   7.593   2.007  0.6418 -1.1927  0.5378
   62MOL   H17422256   7.235   7.479   1.987 -0.3367  1.4668  1.1974
   62MOL   H17522257   6.903   7.284   1.844 -0.3120  1.1733 -1.9724
   62MOL   H17622258   6.990   7.227   1.696 -2.1337  1.1141  0.1186
   62MOL   H17722259   6.948   7.017   1.837 -1.4888  0.4937  2.0519
   62MOL   H17822260   7.108   7.062   1.849 -0.5376 -1.1034 -1.1986
   62MOL   H17922261   7.025   7.013   2.080  2.1457  1.9231  0.4019
   62MOL   H18022262   6.884   7.114   2.055  0.1648  2.7053  0.0271
   62MOL   H18122263   7.040   7.183   2.066  0.9404  0.4661 -1.4252
   62MOL   C18222264   7.312   7.580   1.810  0.1411  0.0613 -0.1326
   62MOL   C18322265   7.401   7.461   1.771  0.5300  0.4354  0.3401
   62MOL   C18422266   7.486   7.486   1.640  0.4575 -0.1336 -0.8109
   62MOL   O18522267   7.586   7.559   1.643 -0.0219 -0.2558 -0.3319
   62MOL   O18622268   7.424   7.438   1.532  0.3427 -0.3505  0.5312
   62MOL   C18722269   7.491   7.469   1.406  0.0117  0.3215 -0.1280
   62MOL   C18822270   7.433   7.600   1.353  0.3626  0.2945 -0.7700
   62MOL   C18922271   7.459   7.629   1.209  0.4671  0.2088 -0.4391
   62MOL   H19022272   7.368   7.655   1.866  0.5555 -0.1498 -0.2614
   62MOL   H19122273   7.272   7.627   1.720  1.4057  0.7880 -0.3269
   62MOL   H19222274   7.347   7.372   1.740  1.5251  1.1232 -3.7129
   62MOL   H19322275   7.599   7.474   1.414  0.1686 -0.1143 -1.8351
   62MOL   H19422276   7.468   7.387   1.338 -0.0717  0.9357 -0.8636
   62MOL   H19522277   7.325   7.596   1.367  0.7058 -1.0925  1.9809
   62MOL   H19622278   7.465   7.681   1.419  0.7125  0.0919 -0.6873
   62MOL   H19722279   7.414   7.539   1.168  1.3951 -0.8284  0.7902
   62MOL   H19822280   7.564   7.648   1.187  0.2222  0.8578 -1.0473
   62MOL   H19922281   7.397   7.716   1.187 -0.0747  0.3868  1.6235
   62MOL   C20022282   7.496   7.416   1.892  0.0532  0.1357 -0.2274
   62MOL   C20122283   7.520   7.267   1.914  0.2977  0.2100  0.4776
   62MOL   C20222284   7.567   7.201   1.779 -0.0881  0.0491  0.0832
   62MOL   O20322285   7.679   7.209   1.728  0.2432 -0.0135 -0.1569
   62MOL   O20422286   7.467   7.139   1.722 -0.5516 -0.2678 -0.2900
   62MOL   C20522287   7.485   7.045   1.618  0.4773 -0.8333  0.5938
   62MOL   C20622288   7.477   6.900   1.656  0.5090 -0.4293 -0.5100
   62MOL   C20722289   7.374   6.869   1.767  0.6939  0.0655  0.0203
   62MOL   H20822290   7.436   7.443   1.979  0.6636 -2.0386  0.9129
   62MOL   H20922291   7.589   7.472   1.900  0.3076 -0.3949  0.6085
   62MOL   H21022292   7.428   7.219   1.948 -0.1080  2.3017  2.4353
   62MOL   H21122293   7.403   7.051   1.547 -0.1607 -0.4450  1.3554
   62MOL   H21222294   7.573   7.066   1.557 -0.7574  1.1472 -0.5561
   62MOL   H21322295   7.484   6.830   1.573  0.6419 -0.9199 -0.0843
   62MOL   H21422296   7.573   6.879   1.702  0.3138 -0.4410 -0.1045
   62MOL   H21522297   7.367   6.924   1.861 -1.2665  0.9170 -0.5960
   62MOL   H21622298   7.393   6.770   1.809  0.1730  0.4387  1.1687
   62MOL   H21722299   7.273   6.876   1.727 -0.0084 -2.1565  1.3180
   62MOL   C21822300   7.626   7.251   2.026 -0.0835  0.1647 -0.5590
   62MOL   C21922301   7.590   7.299   2.168 -1.1628  0.3689 -0.2361
   62MOL   C22022302   7.468   7.227   2.233 -0.3162  0.3261  0.4356
   62MOL   O22122303   7.370   7.296   2.269  0.2897  0.1330  0.2567
   62MOL   O22222304   7.469   7.100   2.234 -0.1043  0.1583 -0.0722
   62MOL   C22322305   7.359   7.023   2.288  0.5895  0.3349  0.1205
   62MOL   C22422306   7.295   6.934   2.180  0.1910 -0.0235 -0.2032
   62MOL   C22522307   7.395   6.830   2.115 -0.0002 -0.1878  0.3374
   62MOL   H22622308   7.719   7.300   1.999  0.1504  0.1264  0.1542
   62MOL   H22722309   7.654   7.146   2.038 -0.6227  0.0740 -0.0604
   62MOL   H22822310   7.554   7.401   2.163 -0.3160  0.5987 -2.0652
   62MOL   H22922311   7.409   6.966   2.367  0.1122 -0.4840 -0.1544
   62MOL   H23022312   7.283   7.089   2.329  0.1801 -0.5505  0.8086
   62MOL   H23122313   7.224   6.888   2.248  3.1686  0.9107  3.7189
   62MOL   H23222314   7.236   6.981   2.101 -0.7167 -0.3681  0.2558
   62MOL   H23322315   7.455   6.891   2.047 -1.7609  1.9411  0.6365
   62MOL   H23422316   7.354   6.735   2.082 -1.1698  1.1665 -2.3062
   62MOL   H23522317   7.464   6.803   2.195 -2.1876 -1.0259  1.9768
   62MOL   C23622318   7.704   7.300   2.270 -0.1757  0.4851  0.8818
   62MOL   C23722319   7.790   7.426   2.269 -0.0842 -0.9643  0.0244
   62MOL   C23822320   7.715   7.551   2.317 -0.2203  0.7704  0.1357
   62MOL   O23922321   7.710   7.650   2.249 -0.4195  0.3234 -0.1678
   62MOL   O24022322   7.646   7.528   2.428  0.5629  0.6272  0.6473
   62MOL   C24122323   7.576   7.626   2.487  0.2696  0.4464  0.1267
   62MOL   C24222324   7.564   7.610   2.646 -0.0869  0.0251 -0.1918
   62MOL   C24322325   7.685   7.609   2.742 -0.3015 -0.5427 -0.0146
   62MOL   H24422326   7.772   7.216   2.256  0.4643  1.2909 -1.0244
   62MOL   H24522327   7.673   7.283   2.373 -2.1860 -1.3015  0.0367
   62MOL   H24622328   7.830   7.457   2.172  0.9792 -0.0197  0.7501
   62MOL   H24722329   7.629   7.722   2.480  1.5898 -0.4671 -3.2668
   62MOL   H24822330   7.485   7.644   2.429 -1.2007 -0.1019  2.2159
   62MOL   H24922331   7.484   7.667   2.692  0.6579  0.0181  1.1293
   62MOL   H25022332   7.515   7.513   2.656 -2.8192  1.3948  0.0681
   62MOL   H25122333   7.752   7.526   2.722  1.0961  0.6444 -0.3993
   62MOL   H25222334   7.662   7.583   2.845 -0.8589 -0.7062 -0.1820
   62MOL   H25322335   7.732   7.708   2.739  0.7993 -0.8729  3.6637
   62MOL   C25422336   0.038   7.394   2.350  0.0042 -0.3562  0.1246
   62MOL   C25522337   0.153   7.495   2.311  0.7410  1.0718 -0.0875
   62MOL   C25622338   0.191   7.489   2.164 -0.0940  0.1421  0.5942
   62MOL   O25722339   0.188   7.584   2.088  0.2067  0.0786  0.1392
   62MOL   O25822340   0.222   7.363   2.126  0.5362 -0.0870  0.5554
   62MOL   C25922341   0.220   7.331   1.985 -0.2097  0.6305 -0.4701
   62MOL   C26022342   0.245   7.184   1.960  0.0652 -0.4670  0.1654
   62MOL   C26122343   0.123   7.101   1.994 -0.1908 -0.7188 -0.1265
   62MOL   H26222344   0.074   7.294   2.325  0.0087 -0.6129  1.1590
   62MOL   H26322345   0.017   7.389   2.457  0.8692 -2.5503  0.2164
   62MOL   H26422346   0.245   7.458   2.357 -0.4036 -1.7374  0.0353
   62MOL   H26522347   0.119   7.336   1.942 -0.0450 -1.3541 -1.1194
   62MOL   H26622348   0.289   7.398   1.933  1.4394 -0.2763  0.5620
   62MOL   H26722349   0.275   7.176   1.856 -0.2496  0.4538 -0.0032
   62MOL   H26822350   0.327   7.152   2.025  1.1798 -0.1835 -1.0784
   62MOL   H26922351   0.085   7.129   2.092 -2.0111  0.0967 -1.0355
   62MOL   H27022352   0.145   6.995   1.999  1.4891 -0.3909 -0.2719
   62MOL   H27122353   0.037   7.123   1.930  0.0249  1.6058  0.3176
   62MOL   C27222354   0.142   7.640   2.365 -0.5200  0.3121 -0.2339
   62MOL   C27322355   0.110   7.667   2.515 -0.6380  1.1548 -0.0239
   62MOL   C27422356   0.210   7.608   2.622 -0.6970  0.0875  0.4981
   62MOL   O27522357   0.325   7.573   2.589  0.6788 -0.0847 -0.3640
   62MOL   O27622358   0.163   7.589   2.740 -0.4500  0.1192 -0.3785
   62MOL   C27722359   0.237   7.530   2.839  0.1725  0.1294  0.3402
   62MOL   C27822360   0.147   7.445   2.925 -0.1357 -0.3928 -0.3694
   62MOL   C27922361   0.108   7.311   2.873  0.8739 -0.8934 -0.2470
   62MOL   H28022362   0.072   7.695   2.302 -1.8336 -1.2729 -0.1840
   62MOL   H28122363   0.235   7.690   2.338 -0.3649 -0.1088 -0.4912
   62MOL   H28222364   0.013   7.618   2.524  0.3007 -0.8882 -0.7693
   62MOL   H28322365   0.328   7.480   2.806 -0.3773 -0.6954  0.0651
   62MOL   H28422366   0.277   7.618   2.890  0.0084  1.5014 -1.8182
   62MOL   H28522367   0.202   7.427   3.018 -1.0368 -1.9443 -0.1074
   62MOL   H28622368   0.052   7.490   2.955 -1.5092 -1.8186 -2.4636
   62MOL   H28722369   0.036   7.328   2.794  1.1398  1.7219  0.0237
   62MOL   H28822370   0.058   7.248   2.946  0.6231 -0.3801  0.0310
   62MOL   H28922371   0.192   7.248   2.844  1.5167  0.0097 -0.3749
   62MOL   C29022372   0.074   7.817   2.540 -0.0718  0.0339 -0.2157
   62MOL   C29122373   0.189   0.033   2.502 -0.4060 -0.4279 -0.2758
   62MOL   C29222374   0.178   0.086   2.360  0.1255  0.6305  0.1012
   62MOL   O29322375   0.279   0.106   2.292  0.5273 -0.2336  0.1635
   62MOL   O29422376   0.053   0.133   2.327 -0.1748 -0.3206 -0.3928
   62MOL   C29522377   0.034   0.191   2.202 -0.4619 -0.5431  0.1160
   62MOL   C29622378   7.766   0.184   2.179  0.2257  0.9383 -0.3117
   62MOL   C29722379   7.719   0.285   2.066  0.4362  0.0872  0.5309
   62MOL   H29822380   0.049   7.826   2.646 -0.3099 -2.6974 -0.0094
   62MOL   H29922381   7.856   7.833   2.495 -1.9120  1.6154  4.1099
   62MOL   H30022382   0.281   7.855   2.511  0.3793  0.8222  0.0280
   62MOL   H30122383   0.061   0.296   2.194  0.6966 -0.8211  0.3210
   62MOL   H30222384   0.086   0.144   2.119  0.3703  2.0293 -0.8557
   62MOL   H30322385   7.735   0.082   2.155 -0.6220  1.2509 -0.5729
   62MOL   H30422386   7.704   0.194   2.269  0.4921 -0.5137  0.0550
   62MOL   H30522387   7.745   0.259   1.963  1.4729  0.6820  0.6305
   62MOL   H30622388   7.764   0.383   2.080  0.3452  0.5691 -2.2159
   62MOL   H30722389   7.611   0.292   2.071  0.4584  1.2101 -0.3463
   62MOL   C30822390   0.200   0.160   2.592  0.3857  0.6911 -0.1497
   62MOL   C30922391   0.245   0.149   2.735 -0.7715 -0.3144 -0.3111
   62MOL   C31022392   0.380   0.075   2.756  0.4166 -0.4518 -0.2518
   62MOL   O31122393   0.380   7.843   2.799  0.0426  1.0154 -0.2848
   62MOL   O31222394   0.480   0.147   2.718  0.0257 -0.5413 -0.0085
   62MOL   C31322395   0.609   0.089   2.705  0.0530  0.3078 -0.0696
   62MOL   C31422396   0.616   0.029   2.568  0.1972  0.4863 -0.6279
   62MOL   C31522397   0.584   0.124   2.461 -0.1702  0.5546 -0.3103
   62MOL   H31622398   0.100   0.204   2.590  0.8580  1.8090  0.2723
   62MOL   H31722399   0.265   0.233   2.546  1.6999 -1.3186 -1.5624
   62MOL   H31822400   0.179   0.085   2.794 -1.2322  1.6554  1.3466
   62MOL   H31922401   0.675   0.175   2.712 -0.2587  0.5539 -0.1814
   62MOL   H32022402   0.637   0.014   2.779  3.7143 -1.4094 -3.0245
   62MOL   H32122403   0.720   7.877   2.558 -0.3422 -2.0417  1.5610
   62MOL   H32222404   0.563   7.814   2.565  2.3428 -0.7266 -1.1724
   62MOL   H32322405   0.612   0.081   2.365  1.3674  0.8616 -0.0016
   62MOL   H32422406   0.476   0.142   2.458 -0.4034 -0.6096  0.5650
   62MOL   H32522407   0.636   0.216   2.486  1.2478 -0.4234  0.4195
   62MOL   C32622408   0.256   0.285   2.805  0.2327 -0.2552  0.5323
   62MOL   C32722409   0.124   0.349   2.854  1.0394 -0.0338  0.6402
   62MOL   C32822410   0.039   0.406   2.740 -0.1155  0.0350  0.2448
   62MOL   O32922411   7.807   0.358   2.710  0.5438 -0.3525 -0.1121
   62MOL   O33022412   0.099   0.510   2.679  0.0558  1.1617  0.0640
   62MOL   C33122413   0.070   0.515   2.544  0.0173 -0.1001 -0.7474
   62MOL   C33222414   0.087   0.657   2.492  0.6481 -0.4929 -0.2858
   62MOL   C33322415   7.860   0.748   2.549  0.3339  0.1060  0.4699
   62MOL   H33422416   0.303   0.349   2.730 -1.3110 -2.6499 -2.5714
   62MOL   H33522417   0.326   0.284   2.889  0.1024  0.4333  0.6525
   62MOL   H33622418   0.166   0.430   2.914 -0.8251  1.7054 -0.3485
   62MOL   H33722419   0.141   0.452   2.490  1.0430 -0.0362  0.5266
   62MOL   H33822420   7.850   0.476   2.525 -0.0561 -1.1674  1.7165
   62MOL   H33922421   0.189   0.691   2.510  1.1838 -0.9531 -2.2901
   62MOL   H34022422   0.081   0.649   2.383 -0.9207  0.9845 -0.3395
   62MOL   H34122423   7.761   0.733   2.508  1.2024 -0.0805 -1.6051
   62MOL   H34222424   7.853   0.732   2.657  2.3671 -0.5931  0.5140
   62MOL   H34322425   0.011   0.846   2.514  1.1956 -1.0187 -2.0034
   62MOL   C34422426   0.040   0.259   2.953  0.4033 -0.3338  0.1891
   62MOL   C34522427   7.808   0.336   3.026  0.3500  0.5017  0.1781
   62MOL   C34622428   7.873   0.427   3.132 -0.8566  0.3866  0.0286
   62MOL   O34722429   0.109   0.418   3.173 -0.4925 -0.5837 -0.0246
   62MOL   O34822430   7.777   0.504   3.191 -0.0267 -0.0585  0.3923
   62MOL   C34922431   7.798   0.568   3.317  0.3642 -0.3524 -0.2894
   62MOL   C35022432   7.771   0.716   3.312  0.1189 -0.4054 -0.5392
   62MOL   C35122433   7.634   0.737   3.246 -0.4294  0.0269 -0.4990
   62MOL   H35222434   0.107   0.198   3.015 -0.3556 -2.3365 -0.9093
   62MOL   H35322435   7.877   0.179   2.893  2.0046 -1.2358  0.2030
   62MOL   H35422436   7.741   0.269   3.080  1.3257  0.2251  1.0699
   62MOL   H35522437   7.713   0.526   3.372  0.6194 -0.0319  0.3473
   62MOL   H35622438   0.013   0.553   3.367  0.4533  2.5642  0.4863
   62MOL   H35722439   7.772   0.757   3.413 -3.1732  1.1233 -1.0325
   62MOL   H35822440   7.859   0.762   3.267  1.4527 -0.5901  1.8090
   62MOL   H35922441   7.628   0.845   3.257  1.7351 -0.0848  2.4296
   62MOL   H36022442   7.643   0.708   3.141  1.2876 -1.3953  0.0056
   62MOL   H36122443   7.546   0.692   3.292 -0.0516 -1.2743 -1.0266
   62MOL   H36222444   7.753   0.408   2.965 -3.1308 -3.1007 -1.1704
   63MOL     C122445   0.690   4.048   3.288  0.3962 -0.2553  0.1671
   63MOL     C222446   0.670   3.964   3.416  0.0557  0.0517  0.0993
   63MOL     C322447   0.775   4.005   3.519  0.2540  0.1072 -0.0983
   63MOL     O422448   0.840   4.104   3.504  0.6743  0.1663  0.3258
   63MOL     O522449   0.791   3.914   3.611  0.3254 -0.2801 -0.4963
   63MOL     C622450   0.905   3.913   3.695 -0.6179 -0.0166 -0.0679
   63MOL     C722451   0.905   3.787   3.787  0.3760  0.1017  0.7538
   63MOL     C822452   0.893   3.646   3.724 -0.8817  0.3578 -0.0932
   63MOL     H922453   0.662   4.152   3.300  0.8195 -0.2446  1.1156
   63MOL    H1022454   0.795   4.056   3.262 -0.3113 -0.5676 -3.0093
   63MOL    H1122455   0.691   3.862   3.383  1.9435  0.4015  0.1814
   63MOL    H1222456   0.989   3.903   3.625  0.0481  0.4481  0.6512
   63MOL    H1322457   0.916   4.002   3.757  0.7323 -1.1529  1.3693
   63MOL    H1422458   0.995   3.783   3.848 -0.5846 -0.4168  2.1827
   63MOL    H1522459   0.828   3.800   3.863 -1.3105  1.7021 -1.1744
   63MOL    H1622460   0.843   3.577   3.791  0.9716 -2.7184 -1.7151
   63MOL    H1722461   0.829   3.651   3.636  0.5185  0.1448 -1.1518
   63MOL    H1822462   0.990   3.610   3.689 -0.9553  0.5244 -0.4712
   63MOL    H1922463   0.633   4.007   3.204 -0.9096 -0.6993  1.2458
   63MOL    C2022464   0.528   3.984   3.472  0.2545  0.6813 -0.0726
   63MOL    C2122465   0.451   3.858   3.507  0.0760 -0.2752 -0.5319
   63MOL    C2222466   0.504   3.777   3.628  0.5084  0.5500 -0.1222
   63MOL    O2322467   0.556   3.668   3.612  0.4669 -0.6587 -0.2230
   63MOL    O2422468   0.489   3.847   3.741 -0.5624  0.5032 -0.1929
   63MOL    C2522469   0.521   3.774   3.859  0.1174 -0.3483  0.2301
   63MOL    C2622470   0.506   3.883   3.966  0.1638  0.1149 -0.2022
   63MOL    C2722471   0.578   4.018   3.948  0.5153  0.1266 -0.1513
   63MOL    H2822472   0.477   4.032   3.388  0.5469  1.1943  0.0368
   63MOL    H2922473   0.533   4.064   3.546 -1.7229  0.0573  0.7496
   63MOL    H3022474   0.467   3.787   3.426  0.4759 -1.1846  0.3251
   63MOL    H3122475   0.454   3.689   3.867  2.4133 -2.0968  1.3118
   63MOL    H3222476   0.621   3.733   3.868  0.9805  1.6167 -0.0366
   63MOL    H3322477   0.397   3.893   3.966  0.1657  0.1151  0.2252
   63MOL    H3422478   0.529   3.847   4.066 -1.6371  1.8144  0.8598
   63MOL    H3522479   0.685   3.998   3.954  0.3099 -0.7848  0.7892
   63MOL    H3622480   0.555   4.101   4.014 -1.2509  1.0004 -1.8186
   63MOL    H3722481   0.555   4.050   3.847  2.2438 -0.3593 -0.7205
   63MOL    C3822482   0.303   3.895   3.523  0.6947  0.6258 -0.1622
   63MOL    C3922483   0.223   3.944   3.399 -0.2034  0.4619 -0.8100
   63MOL    C4022484   0.203   3.829   3.293 -0.0878 -0.1086  0.8116
   63MOL    O4122485   0.217   3.712   3.320 -0.7539  0.0765  0.1714
   63MOL    O4222486   0.167   3.882   3.165 -0.6263 -0.5455 -0.2299
   63MOL    C4322487   0.166   3.801   3.048 -0.2007 -0.4123 -0.1894
   63MOL    C4422488   0.189   3.889   2.927  0.5624 -0.3865 -0.5280
   63MOL    C4522489   0.244   3.794   2.821 -0.4821  0.6094 -0.4608
   63MOL    H4622490   0.298   3.981   3.590 -2.3547 -0.8504  1.6232
   63MOL    H4722491   0.258   3.812   3.579  0.3004  0.4095 -0.7894
   63MOL    H4822492   0.275   4.027   3.352  0.4332  0.5499  0.0280
   63MOL    H4922493   0.252   3.735   3.057  0.2147  0.0578 -0.6756
   63MOL    H5022494   0.074   3.742   3.040 -0.4915  0.0093  0.0300
   63MOL    H5122495   0.101   3.938   2.883 -0.5000 -0.4645  1.4696
   63MOL    H5222496   0.259   3.969   2.949 -0.2733  0.4176 -0.7254
   63MOL    H5322497   0.194   3.697   2.813  0.6578 -0.0086 -0.1102
   63MOL    H5422498   0.348   3.770   2.844 -0.2593  1.3664 -0.6345
   63MOL    H5522499   0.235   3.836   2.721 -1.2570 -0.9536 -1.0575
   63MOL    C5622500   0.079   3.986   3.441  0.9176  0.3755 -1.3667
   63MOL    C5722501   0.069   4.132   3.498 -0.2180 -0.2984  0.4091
   63MOL    C5822502   0.077   4.229   3.376  0.3562  0.2684 -0.3638
   63MOL    O5922503   7.857   4.292   3.335  0.0681  0.4090 -0.4168
   63MOL    O6022504   0.204   4.240   3.322 -0.1386  0.7784 -0.5932
   63MOL    C6122505   0.233   4.308   3.200  0.5888 -0.0933 -0.0210
   63MOL    C6222506   0.237   4.211   3.077  0.7327 -0.0645 -0.3410
   63MOL    C6322507   0.308   4.262   2.953  0.1300  0.3193  0.9050
   63MOL    H6422508   0.039   3.921   3.518 -3.0526  1.4619 -2.4058
   63MOL    H6522509   7.879   3.964   3.369 -0.2601  0.4873 -0.0980
   63MOL    H6622510   0.162   4.149   3.553 -1.4559 -1.6942  3.0701
   63MOL    H6722511   0.162   4.389   3.185  0.4643 -0.4159 -1.2282
   63MOL    H6822512   0.332   4.353   3.207  0.0102  1.2779 -0.4590
   63MOL    H6922513   0.283   4.117   3.108  1.5381  0.5442  0.3251
   63MOL    H7022514   0.139   4.184   3.038 -0.3929 -0.9432  2.8887
   63MOL    H7122515   0.398   4.317   2.979 -0.2824  1.6318 -0.3698
   63MOL    H7222516   0.245   4.335   2.902 -1.8080 -1.5066  0.6108
   63MOL    H7322517   0.330   4.191   2.872 -1.1127  0.5531  0.3486
   63MOL    C7422518   7.819   4.161   3.583 -0.1552 -0.4241 -0.2932
   63MOL    C7522519   7.798   4.080   3.716  0.2210  0.2064 -0.5165
   63MOL    C7622520   0.046   4.090   3.792  0.5659  0.1025  0.0003
   63MOL    O7722521   0.094   3.989   3.844 -0.1912 -0.5590  0.4774
   63MOL    O7822522   0.081   4.224   3.806  0.2295  0.3683  0.0156
   63MOL    C7922523   0.195   4.264   3.882  0.1334  0.4967 -0.0088
   63MOL    C8022524   0.329   4.237   3.817  0.5098  1.1568 -0.1303
   63MOL    C8122525   0.363   4.331   3.696  0.1966  0.7133  0.2288
   63MOL    H8222526   7.744   4.128   3.511  1.7882 -2.2428 -1.5845
   63MOL    H8322527   7.793   4.264   3.606  1.0575 -0.7151  2.5036
   63MOL    H8422528   7.786   3.975   3.691 -0.8787  0.2183 -0.0330
   63MOL    H8522529   0.197   4.370   3.905 -1.3746  0.8195 -1.2182
   63MOL    H8622530   0.185   4.219   3.980  1.2071  1.5164  0.5805
   63MOL    H8722531   0.407   4.242   3.893 -0.5237 -0.9391  1.1248
   63MOL    H8822532   0.336   4.133   3.784 -1.0053  0.8887  0.3296
   63MOL    H8922533   0.464   4.307   3.664 -0.3821  0.8789 -1.8157
   63MOL    H9022534   0.374   4.434   3.729 -1.6148  0.7602  0.7334
   63MOL    H9122535   0.294   4.343   3.612  2.1476  0.9155 -1.3739
   63MOL    C9222536   7.679   4.127   3.798  0.4393 -0.4511 -0.1917
   63MOL    C9322537   7.663   4.053   3.933  0.0105 -0.1281  0.9210
   63MOL    C9422538   7.633   4.157   4.038 -0.2443  0.3997  0.9273
   63MOL    O9522539   7.524   4.201   4.058  0.5211 -0.0354 -0.2799
   63MOL    O9622540   7.742   4.208   4.093 -0.8155  0.3219 -0.1655
   63MOL    C9722541   7.738   4.307   4.193  0.6237 -0.4693 -0.0468
   63MOL    C9822542   7.855   4.284   4.288  0.0516 -0.7251  0.7116
   63MOL    C9922543   7.847   4.160   4.378  0.6121 -0.0142  0.2717
   63MOL   H10022544   7.584   4.123   3.745 -1.1405  2.6805  2.2681
   63MOL   H10122545   7.699   4.232   3.815 -3.0663  0.2891 -0.2287
   63MOL   H10222546   7.751   4.008   3.978  1.8294  1.0769 -1.3001
   63MOL   H10322547   7.730   4.406   4.149  0.3765 -1.1602 -1.5651
   63MOL   H10422548   7.643   4.294   4.246 -1.0539  1.6406 -2.4481
   63MOL   H10522549   0.067   4.286   4.230  0.3936 -0.5676  1.2513
   63MOL   H10622550   7.871   4.371   4.352  0.9217 -1.4882  1.5400
   63MOL   H10722551   7.742   4.138   4.399  0.9580 -2.6011 -0.5337
   63MOL   H10822552   0.009   4.171   4.478  0.1506  1.0224  0.3542
   63MOL   H10922553   0.012   4.065   4.348 -0.8254 -0.8003  0.5180
   63MOL   C11022554   7.556   3.938   3.921  0.0829  0.6386 -0.0477
   63MOL   C11122555   7.569   3.820   4.018 -0.6872  0.3312 -0.0241
   63MOL   C11222556   7.531   3.867   4.157 -0.4342  0.0829  0.1669
   63MOL   O11322557   7.623   3.888   4.237  0.2495 -0.5994 -0.6814
   63MOL   O11422558   7.400   3.880   4.176  0.4170  0.3232  0.0471
   63MOL   C11522559   7.353   3.918   4.298  0.1194  0.3135 -0.4888
   63MOL   C11622560   7.200   3.900   4.308  0.8720 -0.7763 -0.6861
   63MOL   C11722561   7.146   3.761   4.333 -0.1595  0.4384  0.0424
   63MOL   H11822562   7.562   3.904   3.818 -0.9307  0.2556  0.0164
   63MOL   H11922563   7.458   3.985   3.927 -0.3223 -0.2895  0.7490
   63MOL   H12022564   7.675   3.793   4.008 -0.5642  1.0851 -0.7785
   63MOL   H12122565   7.398   3.867   4.384  1.2194  0.1404 -1.1525
   63MOL   H12222566   7.378   4.024   4.301 -0.2791  0.4287 -1.1621
   63MOL   H12322567   7.161   3.953   4.395  1.1872  1.0355 -1.6128
   63MOL   H12422568   7.150   3.948   4.224  1.9694 -1.1024 -1.5444
   63MOL   H12522569   7.174   3.727   4.433  0.3552  1.1089  0.1288
   63MOL   H12622570   7.185   3.689   4.261  0.4077  1.3057 -0.5310
   63MOL   H12722571   7.038   3.750   4.337 -0.1292 -1.2143 -2.5874
   63MOL   C12822572   7.492   3.695   3.966  0.8185 -0.4261 -0.6837
   63MOL   C12922573   7.518   3.559   4.029 -0.1398  0.1508  0.3907
   63MOL   C13022574   7.649   3.493   3.995  0.0469 -0.5583 -0.2641
   63MOL   O13122575   7.747   3.563   3.971  0.1036  0.2212  0.1416
   63MOL   O13222576   7.652   3.361   4.004  0.5153 -0.0105 -0.5809
   63MOL   C13322577   7.774   3.299   3.986 -0.5302  0.4760  0.5139
   63MOL   C13422578   7.800   3.264   3.834 -0.6231 -0.1711 -0.2382
   63MOL   C13522579   7.715   3.155   3.762  1.1093  0.4226  0.4458
   63MOL   H13622580   7.519   3.688   3.861  1.3191 -0.1350 -0.5755
   63MOL   H13722581   7.386   3.721   3.970  1.2435  1.0517  2.3673
   63MOL   H13822582   7.443   3.502   3.973 -0.0535 -1.3008  1.7319
   63MOL   H13922583   7.861   3.355   4.020 -0.2836  0.8826 -0.7700
   63MOL   H14022584   7.772   3.207   4.045 -1.2618  0.3268  0.2587
   63MOL   H14122585   7.800   3.362   3.787  0.3757  1.4733  2.9925
   63MOL   H14222586   0.026   3.240   3.829 -0.5984 -0.3134  0.7601
   63MOL   H14322587   7.737   3.147   3.656  0.4158  0.9780  0.2501
   63MOL   H14422588   7.607   3.165   3.777  0.6336 -2.8740 -0.3978
   63MOL   H14522589   7.736   3.053   3.793 -2.1065 -0.3411  0.3173
   63MOL   C14622590   7.462   3.559   4.170  0.1645  0.4178 -0.1145
   63MOL   C14722591   7.444   3.417   4.236  1.3387  0.1681 -1.0609
   63MOL   C14822592   7.513   3.413   4.371  0.7304 -0.1344  0.1579
   63MOL   O14922593   7.451   3.438   4.478  0.2219 -0.2940  0.7694
   63MOL   O15022594   7.632   3.375   4.360 -0.3386  0.5588  0.1037
   63MOL   C15122595   7.707   3.330   4.475 -0.2277 -0.5097 -0.7382
   63MOL   C15222596   7.838   3.266   4.436 -0.1101 -0.5179 -0.7112
   63MOL   C15322597   0.064   3.371   4.377 -0.0520 -0.6608 -0.1700
   63MOL   H15422598   7.370   3.617   4.177 -1.2032 -1.6958 -0.2640
   63MOL   H15522599   7.511   3.626   4.241 -2.9644  3.5471 -0.7882
   63MOL   H15622600   7.498   3.336   4.187 -1.0501 -1.2290 -1.4673
   63MOL   H15722601   7.709   3.406   4.552 -2.0211 -0.1855 -0.9873
   63MOL   H15822602   7.643   3.248   4.507 -2.4622  0.1062 -3.4285
   63MOL   H15922603   7.871   3.208   4.522  1.4494 -2.9438 -2.8678
   63MOL   H16022604   7.820   3.181   4.369 -2.8068  0.0787 -0.8287
   63MOL   H16122605   0.061   3.459   4.442 -0.3125 -1.2796  0.6618
   63MOL   H16222606   0.033   3.411   4.280  1.0665 -0.4371 -0.4480
   63MOL   H16322607   0.161   3.326   4.358 -1.0421 -3.4546  1.2652
   63MOL   C16422608   7.291   3.385   4.240  0.1008 -0.0458 -0.2201
   63MOL   C16522609   7.270   3.235   4.217 -0.2009 -0.1088  0.6015
   63MOL   C16622610   7.324   3.173   4.085 -0.0463 -0.1033  0.8676
   63MOL   O16722611   7.310   3.234   3.981 -0.3035  0.2090  0.3082
   63MOL   O16822612   7.390   3.056   4.091 -0.5990 -0.4300 -0.6351
   63MOL   C16922613   7.465   3.005   3.982  0.0679  0.2558 -0.3232
   63MOL   C17022614   7.536   2.877   4.030  0.2011 -0.0844  0.8215
   63MOL   C17122615   7.638   2.893   4.137 -0.4276 -0.0069 -0.5255
   63MOL   H17222616   7.237   3.452   4.173 -0.9336  0.8716  1.4969
   63MOL   H17322617   7.252   3.414   4.337 -0.4832  0.1336 -0.5053
   63MOL   H17422618   7.163   3.213   4.208 -0.0597 -1.3502  1.7936
   63MOL   H17522619   7.397   2.988   3.898  1.2802 -1.4574 -0.9806
   63MOL   H17622620   7.540   3.077   3.950  1.1355  0.5707  2.7535
   63MOL   H17722621   7.451   2.816   4.062 -1.5623  0.5346 -2.4508
   63MOL   H17822622   7.576   2.820   3.946 -0.2988 -1.4330  1.4891
   63MOL   H17922623   7.687   2.800   4.163 -0.4489  0.2476  0.4355
   63MOL   H18022624   7.579   2.927   4.222 -1.7636 -2.9714 -0.2042
   63MOL   H18122625   7.713   2.968   4.112 -1.0093  0.1208 -1.9309
   63MOL   C18222626   7.303   3.139   4.337  0.0414  0.1329  0.1834
   63MOL   C18322627   7.248   3.179   4.472 -0.2535  0.7123 -0.5558
   63MOL   C18422628   7.102   3.157   4.487 -0.3479 -0.4967 -0.3421
   63MOL   O18522629   7.048   3.059   4.443 -0.0221  0.1624 -0.0653
   63MOL   O18622630   7.048   3.268   4.542  0.0276  0.4500  0.1703
   63MOL   C18722631   6.911   3.281   4.566  0.3707 -0.0806  0.6760
   63MOL   C18822632   6.875   3.420   4.526  0.5669 -0.0505 -0.1001
   63MOL   C18922633   6.857   3.438   4.370 -0.2352  0.4918  0.0635
   63MOL   H19022634   7.411   3.130   4.344 -0.0479 -0.9333  0.3017
   63MOL   H19122635   7.271   3.040   4.301  1.4313 -0.6968  1.1981
   63MOL   H19222636   7.277   3.282   4.488  2.4725 -0.4100  2.2800
   63MOL   H19322637   6.845   3.205   4.524  1.1778  1.0801 -2.8506
   63MOL   H19422638   6.897   3.274   4.674  2.6565  0.3427  1.0320
   63MOL   H19522639   6.777   3.443   4.568  0.6144 -0.9688  0.5085
   63MOL   H19622640   6.944   3.490   4.574 -1.0330  0.7863  1.0297
   63MOL   H19722641   6.828   3.542   4.351 -0.1571  0.5172  0.0823
   63MOL   H19822642   6.768   3.383   4.340 -0.5149  1.5290 -1.0280
   63MOL   H19922643   6.942   3.404   4.311 -0.2882 -1.7122  1.2043
   63MOL   C20022644   7.334   3.094   4.575  0.2298  0.8961 -0.2105
   63MOL   C20122645   7.298   3.091   4.726  0.3874  0.1710  0.0625
   63MOL   C20222646   7.166   3.034   4.771 -0.1636  0.8278 -0.2374
   63MOL   O20322647   7.084   3.102   4.827 -0.6692  0.0798 -0.0488
   63MOL   O20422648   7.157   2.902   4.731 -0.1254 -0.2775  0.3069
   63MOL   C20522649   7.030   2.841   4.720 -0.4641 -0.5982  0.0833
   63MOL   C20622650   7.048   2.691   4.689  0.7542  0.0693  0.2508
   63MOL   C20722651   7.077   2.602   4.813  0.0004 -0.1098  0.2095
   63MOL   H20822652   7.439   3.121   4.562  0.9353 -0.7099  1.7774
   63MOL   H20922653   7.319   2.994   4.535  0.5702  0.7508  0.0201
   63MOL   H21022654   7.283   3.192   4.763  0.3818 -0.2056  1.1123
   63MOL   H21122655   6.963   2.861   4.803  1.9752  3.6409  1.1552
   63MOL   H21222656   6.980   2.894   4.639  0.4523 -0.8471 -0.6560
   63MOL   H21322657   6.964   2.648   4.635  0.2409  0.3744  0.7973
   63MOL   H21422658   7.136   2.680   4.626  0.7981  2.1223 -0.0833
   63MOL   H21522659   7.034   2.502   4.802 -0.3055  0.0160  0.2389
   63MOL   H21622660   7.025   2.652   4.895  1.0151  3.4349 -1.2285
   63MOL   H21722661   7.184   2.602   4.832  0.2224  1.8541 -0.9471
   63MOL   C21822662   7.409   3.026   4.819 -0.1320  0.7321  0.8266
   63MOL   C21922663   7.503   3.131   4.889  0.1667  0.0918 -0.5960
   63MOL   C22022664   7.427   3.231   4.972  0.2069 -0.6085  0.5041
   63MOL   O22122665   7.435   3.347   4.943  0.7487 -0.0640 -0.3831
   63MOL   O22222666   7.368   3.172   5.086  0.1327 -0.3707 -0.2970
   63MOL   C22322667   7.315   3.260   5.181 -0.4349 -0.6011  0.4194
   63MOL   C22422668   7.433   3.330   5.257  0.3994 -0.1398 -0.1261
   63MOL   C22522669   7.511   3.242   5.363 -0.4129  0.7619  0.7537
   63MOL   H22622670   7.466   2.954   4.759  0.3288  2.9762 -1.5182
   63MOL   H22722671   7.362   2.968   4.898  0.4887  1.0649  1.4418
   63MOL   H22822672   7.541   3.191   4.806  0.3744  0.7876 -0.0012
   63MOL   H22922673   7.250   3.333   5.135  0.2943 -1.0005 -1.2831
   63MOL   H23022674   7.248   3.214   5.253  2.8996 -3.8695  1.6129
   63MOL   H23122675   7.497   3.374   5.180  0.6824  1.4684  1.0061
   63MOL   H23222676   7.403   3.408   5.326  0.4900  0.9135 -1.2498
   63MOL   H23322677   7.563   3.154   5.325 -0.6269  1.2271 -0.6618
   63MOL   H23422678   7.442   3.201   5.437  1.1258  1.1908  2.4494
   63MOL   H23522679   7.591   3.300   5.409 -0.7355 -0.1599  2.5225
   63MOL   C23622680   7.632   3.065   4.953  0.0738  0.5443  0.8173
   63MOL   C23722681   7.770   3.139   4.938 -0.0308 -0.6222  0.4066
   63MOL   C23822682   7.764   3.270   5.023  0.0706 -0.7792 -0.5203
   63MOL   O23922683   7.792   3.277   5.145 -0.0558  0.0385 -0.4987
   63MOL   O24022684   7.737   3.376   4.946 -0.6327 -0.3300 -0.1146
   63MOL   C24122685   7.755   3.496   5.012 -0.3880 -0.7796 -0.4271
   63MOL   C24222686   0.019   3.554   4.994  0.2690  0.1129 -0.3474
   63MOL   C24322687   0.067   3.583   4.852 -0.1725  0.1395  0.3957
   63MOL   H24422688   7.641   2.961   4.924 -0.3946  0.8601 -0.5128
   63MOL   H24522689   7.605   3.075   5.058  2.3979  1.4530  1.3458
   63MOL   H24622690   7.777   3.166   4.833 -1.2317 -0.6844  0.3124
   63MOL   H24722691   7.683   3.560   4.961 -1.2649  0.0940  1.8645
   63MOL   H24822692   7.741   3.493   5.120 -0.8289 -0.9121 -0.4849
   63MOL   H24922693   0.027   3.647   5.051 -0.0583 -0.2027  0.2125
   63MOL   H25022694   0.092   3.488   5.041 -1.0878 -1.4930 -0.4747
   63MOL   H25122695   0.174   3.580   4.831 -0.6299 -1.4497 -1.9464
   63MOL   H25222696   0.012   3.663   4.803  0.7463  1.4169  1.4174
   63MOL   H25322697   0.035   3.504   4.784  0.2553 -1.4690  2.0312
   63MOL   C25422698   0.008   3.050   4.992  0.2715  0.3685 -0.0048
   63MOL   C25522699   0.049   2.923   4.915 -0.4875  0.2049 -0.0709
   63MOL   C25622700   0.017   2.930   4.769  0.0216 -0.8300  0.5530
   63MOL   O25722701   0.089   2.987   4.693 -0.2256 -0.1997 -0.1886
   63MOL   O25822702   7.787   2.865   4.737 -0.4255  0.0981  0.4515
   63MOL   C25922703   7.753   2.822   4.603  0.0655  0.1248 -0.1830
   63MOL   C26022704   7.645   2.715   4.608  0.2850  0.2316  0.1352
   63MOL   C26122705   7.659   2.617   4.494 -0.0465  0.1847 -0.0216
   63MOL   H26222706   7.859   3.011   5.090  2.6008  1.1041  1.0274
   63MOL   H26322707   0.093   3.119   4.994 -0.8569  1.7470  2.4037
   63MOL   H26422708   7.870   2.839   4.951 -0.1925  1.1254  2.6705
   63MOL   H26522709   7.722   2.912   4.551  2.9051  0.7285 -0.9027
   63MOL   H26622710   7.843   2.787   4.551  0.9370 -0.4379  1.6402
   63MOL   H26722711   7.654   2.655   4.699  0.4814  0.8388  0.5225
   63MOL   H26822712   7.545   2.758   4.615 -0.0033  0.4160 -4.0682
   63MOL   H26922713   7.687   2.522   4.540  0.4540 -0.7302 -2.1622
   63MOL   H27022714   7.744   2.643   4.431  1.7778  0.8022  2.6098
   63MOL   H27122715   7.568   2.605   4.435  0.7242 -0.3648 -1.1178
   63MOL   C27222716   0.202   2.904   4.932  0.3800  0.4844  0.0337
   63MOL   C27322717   0.260   2.760   4.909  0.1957 -0.5019 -0.1795
   63MOL   C27422718   0.240   2.663   5.026  0.1777  0.3172 -0.1278
   63MOL   O27522719   0.151   2.580   5.020 -0.1759  0.2918 -0.4027
   63MOL   O27622720   0.320   2.687   5.134  0.0063 -0.7463  0.0662
   63MOL   C27722721   0.290   2.630   5.260  0.1345 -0.0706 -0.2760
   63MOL   C27822722   0.355   2.715   5.367  0.6857 -0.1679 -0.1875
   63MOL   C27922723   0.275   2.841   5.383  0.0360 -1.1088 -0.1758
   63MOL   H28022724   0.234   2.935   5.032 -2.8118  1.8248  0.7154
   63MOL   H28122725   0.263   2.977   4.880 -0.3804  0.4028 -0.9785
   63MOL   H28222726   0.367   2.778   4.923  0.1316  0.6509 -1.1237
   63MOL   H28322727   0.182   2.617   5.272 -0.2390  2.2718 -0.8406
   63MOL   H28422728   0.343   2.536   5.267  0.6066  0.2613  0.6983
   63MOL   H28522729   0.358   2.665   5.464  2.9098  0.7355  0.2255
   63MOL   H28622730   0.453   2.734   5.325  0.6983 -1.8588 -0.9791
   63MOL   H28722731   0.327   2.917   5.440 -1.4474 -0.6846  0.6302
   63MOL   H28822732   0.178   2.824   5.429 -0.3613  1.0701 -0.1533
   63MOL   H28922733   0.250   2.888   5.288 -2.4874 -0.8149  0.6106
   63MOL   C29022734   0.239   2.690   4.776 -0.4138  0.0721  0.0080
   63MOL   C29122735   0.308   2.757   4.651 -0.2613  0.6654 -0.6643
   63MOL   C29222736   0.460   2.776   4.664 -1.0186  0.0628 -0.2416
   63MOL   O29322737   0.500   2.889   4.686  0.0267  0.5194  0.0483
   63MOL   O29422738   0.531   2.659   4.656 -0.0918  0.1196 -0.5621
   63MOL   C29522739   0.676   2.643   4.670 -0.1099 -0.2327 -0.1110
   63MOL   C29622740   0.707   2.507   4.744  0.4505 -0.0215 -0.1639
   63MOL   C29722741   0.693   2.525   4.893  0.1695  0.3103 -0.3516
   63MOL   H29822742   0.131   2.682   4.761 -0.3593  0.3016 -0.4894
   63MOL   H29922743   0.281   2.589   4.782  0.1271  0.3677  1.3708
   63MOL   H30022744   0.253   2.849   4.630 -1.5677 -0.0697 -0.5211
   63MOL   H30122745   0.722   2.641   4.572  0.6450  0.0652  0.2324
   63MOL   H30222746   0.720   2.726   4.725 -0.1340  1.0622 -2.0210
   63MOL   H30322747   0.648   2.421   4.712  0.4182 -0.2230  0.4312
   63MOL   H30422748   0.807   2.476   4.713  1.4920  1.4827  1.5850
   63MOL   H30522749   0.739   2.438   4.940 -0.0034  0.5646  0.3069
   63MOL   H30622750   0.590   2.529   4.931  0.3042  2.1583 -0.1175
   63MOL   H30722751   0.747   2.611   4.934 -2.5381  2.7792 -1.7392
   63MOL   C30822752   0.274   2.669   4.525 -0.6816 -0.2945  0.2045
   63MOL   C30922753   0.319   2.728   4.387 -0.4206 -0.2199  0.0019
   63MOL   C31022754   0.322   2.606   4.281  0.0100 -1.0025 -0.2044
   63MOL   O31122755   0.429   2.562   4.245 -0.2093  0.0048 -0.5303
   63MOL   O31222756   0.198   2.576   4.246 -0.8606  0.5092  0.2350
   63MOL   C31322757   0.183   2.489   4.140 -0.1385  0.2409  0.1356
   63MOL   C31422758   0.048   2.491   4.062  0.2591  0.7603 -0.2785
   63MOL   C31522759   0.031   2.624   3.980 -0.1344  0.6961 -0.2211
   63MOL   H31622760   0.167   2.646   4.524 -1.0687  1.4360  0.1074
   63MOL   H31722761   0.332   2.578   4.539  1.1575  1.1022  1.9610
   63MOL   H31822762   0.417   2.775   4.388  0.0075 -1.0213 -2.0650
   63MOL   H31922763   0.258   2.499   4.062 -1.4818 -0.6521 -1.2922
   63MOL   H32022764   0.189   2.387   4.178 -0.7426  0.7702  1.7227
   63MOL   H32122765   0.065   2.413   3.987  0.4162 -0.3700  0.9161
   63MOL   H32222766   7.838   2.462   4.116  0.6933 -0.4572 -0.1882
   63MOL   H32322767   0.125   2.644   3.929 -0.4985  0.7562 -0.8706
   63MOL   H32422768   7.827   2.619   3.912 -1.6618  1.0466  1.5943
   63MOL   H32522769   0.023   2.715   4.039 -1.9895 -0.9570  2.1986
   63MOL   C32622770   0.220   2.838   4.328 -0.2920  0.0953 -0.4343
   63MOL   C32722771   0.278   2.912   4.209  0.3841  0.0273 -0.1991
   63MOL   C32822772   0.173   2.969   4.113  0.0748  0.1718 -0.1916
   63MOL   O32922773   0.064   3.007   4.152  0.4176  0.1270  0.0557
   63MOL   O33022774   0.221   2.967   3.987 -0.4131  0.5239 -0.1078
   63MOL   C33122775   0.154   3.027   3.885  0.6576  0.7818 -0.2326
   63MOL   C33222776   0.216   2.966   3.758 -0.0903  0.5949  0.1714
   63MOL   C33322777   0.174   3.055   3.637 -0.2250  0.6784 -0.4923
   63MOL   H33422778   0.189   2.903   4.410 -2.2032  0.3768 -1.3349
   63MOL   H33522779   0.117   2.805   4.312 -0.7330  0.2016  2.0895
   63MOL   H33622780   0.334   2.842   4.146 -2.3419 -1.1770 -1.3635
   63MOL   H33722781   0.050   2.995   3.888  0.2695  2.0057 -0.2326
   63MOL   H33822782   0.170   3.133   3.904 -0.2677  1.0416 -0.8808
   63MOL   H33922783   0.323   2.975   3.776  0.3138  1.1981 -2.4471
   63MOL   H34022784   0.206   2.858   3.760 -1.3434  0.7202  1.4210
   63MOL   H34122785   0.223   3.025   3.545  0.3479 -3.1587  0.9942
   63MOL   H34222786   0.065   3.053   3.626 -0.4695  2.6965  1.2475
   63MOL   H34322787   0.213   3.156   3.653  0.9811  0.1711 -0.2222
   63MOL   C34422788   0.372   3.022   4.259 -0.5829  0.5312  0.1396
   63MOL   C34522789   0.472   3.085   4.155  0.7042 -0.8483 -0.2769
   63MOL   C34622790   0.548   2.992   4.061  0.4089 -0.1422 -0.1157
   63MOL   O34722791   0.602   2.886   4.089 -0.0110 -0.8280 -0.4743
   63MOL   O34822792   0.558   3.041   3.936 -0.3524  0.2593  0.3488
   63MOL   C34922793   0.618   2.962   3.833  0.8326  0.1314  0.6660
   63MOL   C35022794   0.766   2.987   3.802  0.4500  0.1146 -0.5933
   63MOL   C35122795   0.801   2.903   3.684 -0.4442  0.6112  0.2998
   63MOL   H35222796   0.439   2.986   4.337  0.9815  1.6652 -0.6460
   63MOL   H35322797   0.312   3.098   4.307 -2.0142  0.0201 -0.7979
   63MOL   H35422798   0.549   3.148   4.200 -0.3630  0.6860 -0.5503
   63MOL   H35522799   0.604   2.858   3.864 -2.2306  0.5038  0.7141
   63MOL   H35622800   0.553   2.973   3.746  0.3929 -1.8650  0.7121
   63MOL   H35722801   0.776   3.095   3.787  1.9150 -0.1767 -1.8537
   63MOL   H35822802   0.830   2.955   3.884  0.5930 -1.2428 -1.2292
   63MOL   H35922803   0.784   2.798   3.706 -1.2557  0.2650 -1.8217
   63MOL   H36022804   0.737   2.921   3.598  1.6052 -1.1993 -1.6864
   63MOL   H36122805   0.907   2.914   3.659 -0.8714  0.8338 -1.4812
   63MOL   H36222806   0.411   3.150   4.092  0.7339 -0.9694 -0.4301
   64MOL     C122807   4.497   4.889   7.282 -1.1180  0.6641 -0.1984
   64MOL     C222808   4.366   4.902   7.354 -0.2080 -0.7846 -0.3306
   64MOL     C322809   4.391   4.977   7.483  0.2670 -0.0657 -0.0742
   64MOL     O422810   4.378   4.922   7.591 -0.9220  0.4581  0.0823
   64MOL     O522811   4.433   5.105   7.464 -0.3733  0.5525 -0.4553
   64MOL     C622812   4.444   5.189   7.571  0.4911  0.1352  0.6237
   64MOL     C722813   4.505   5.324   7.531 -0.1968 -0.9464 -0.0253
   64MOL     C822814   4.634   5.321   7.462 -0.3920 -0.2190  0.1572
   64MOL     H922815   4.488   4.817   7.201  1.1305 -0.7189  0.7480
   64MOL    H1022816   4.535   4.980   7.237  0.3682 -0.0375 -0.3799
   64MOL    H1122817   4.340   4.799   7.379  3.7002 -2.2548 -1.9566
   64MOL    H1222818   4.347   5.206   7.617  0.0562 -0.2156 -0.1596
   64MOL    H1322819   4.509   5.136   7.641  1.5478  1.3622  0.5870
   64MOL    H1422820   4.435   5.362   7.457 -0.0921  0.3585  0.5282
   64MOL    H1522821   4.497   5.381   7.624 -3.3174  0.4403 -1.0749
   64MOL    H1622822   4.633   5.270   7.365 -0.0602 -1.4848  0.8113
   64MOL    H1722823   4.677   5.420   7.448 -1.9982  0.6120  1.1355
   64MOL    H1822824   4.694   5.265   7.534 -1.3793 -0.1430  1.0465
   64MOL    H1922825   4.557   4.851   7.364 -1.1959 -2.3574 -1.4804
   64MOL    C2022826   4.254   4.978   7.269 -0.1947  0.0111 -0.6966
   64MOL    C2122827   4.216   4.896   7.151 -0.5503 -0.6991 -0.4027
   64MOL    C2222828   4.132   4.781   7.197 -0.0063  0.3940 -0.2647
   64MOL    O2322829   4.009   4.798   7.200 -0.0981 -0.0162  0.3717
   64MOL    O2422830   4.206   4.668   7.228 -0.0778 -0.5397  0.0138
   64MOL    C2522831   4.136   4.549   7.263 -0.2389  0.4601 -0.1516
   64MOL    C2622832   4.234   4.434   7.270 -0.4082  0.2554  0.4301
   64MOL    C2722833   4.171   4.306   7.333  0.0305  0.0367 -0.5529
   64MOL    H2822834   4.287   5.080   7.254 -0.9880  0.3295 -0.2925
   64MOL    H2922835   4.167   4.991   7.334  1.2436 -0.9786  1.4780
   64MOL    H3022836   4.304   4.852   7.105 -1.0997 -1.4261 -0.7700
   64MOL    H3122837   4.072   4.563   7.350  0.6454  1.9891  0.2696
   64MOL    H3222838   4.082   4.537   7.169 -0.8211 -0.4278  0.2903
   64MOL    H3322839   4.262   4.412   7.167 -2.1421 -0.1013  0.0236
   64MOL    H3422840   4.326   4.457   7.326 -0.9300  1.1242  0.9524
   64MOL    H3522841   4.200   4.286   7.436  0.6500 -0.7139 -0.8713
   64MOL    H3622842   4.209   4.224   7.272  2.5308  1.0232 -0.3565
   64MOL    H3722843   4.064   4.306   7.309  0.5588  0.4465 -3.1431
   64MOL    C3822844   4.143   4.985   7.048  0.0506  0.0436  0.3273
   64MOL    C3922845   4.087   4.908   6.926  0.0960 -0.2768 -0.5091
   64MOL    C4022846   3.990   4.996   6.848  0.1045  0.0357 -0.4241
   64MOL    O4122847   3.878   4.946   6.821  0.7147 -0.1620  0.6286
   64MOL    O4222848   4.039   5.119   6.818 -0.0277  0.1006  0.1574
   64MOL    C4322849   3.953   5.209   6.743 -0.7039 -0.6220 -0.2222
   64MOL    C4422850   4.033   5.298   6.653  0.3108 -0.3550 -0.3932
   64MOL    C4522851   4.095   5.223   6.535  0.5852  1.3100 -0.2279
   64MOL    H4622852   4.213   5.066   7.028 -2.1120  1.5783 -1.2881
   64MOL    H4722853   4.061   5.041   7.093  0.1473  0.2508  0.2463
   64MOL    H4822854   4.028   4.826   6.966 -1.6215  1.2866  0.2787
   64MOL    H4922855   3.888   5.152   6.675 -2.1806 -0.8841  1.3662
   64MOL    H5022856   3.907   5.273   6.818  4.7175  2.1892  0.8749
   64MOL    H5122857   3.970   5.374   6.607  1.9338  1.8718  0.9077
   64MOL    H5222858   4.104   5.358   6.710  2.3573 -1.3947 -1.7711
   64MOL    H5322859   4.161   5.284   6.474  1.2580  2.9526  2.0484
   64MOL    H5422860   4.022   5.169   6.475  1.3080  1.2405 -1.0442
   64MOL    H5522861   4.155   5.140   6.574 -1.8511  0.5302  2.0650
   64MOL    C5622862   4.188   4.836   6.832 -0.9042 -0.5086  0.0557
   64MOL    C5722863   4.218   4.683   6.849 -0.5519  0.4116 -0.6441
   64MOL    C5822864   4.094   4.594   6.845  0.4894 -0.7559 -0.3184
   64MOL    O5922865   3.990   4.630   6.783 -0.1372  0.5787  0.0093
   64MOL    O6022866   4.110   4.476   6.911 -0.0009  0.5107 -0.1902
   64MOL    C6122867   4.004   4.378   6.907 -0.3119 -0.5010 -0.4468
   64MOL    C6222868   4.056   4.238   6.947  0.1571 -0.0025  0.0088
   64MOL    C6322869   4.173   4.189   6.848 -0.8479 -0.5616  0.3145
   64MOL    H6422870   4.281   4.883   6.863 -0.2987 -2.2538  1.0023
   64MOL    H6522871   4.169   4.859   6.727  2.2014  0.6501 -0.2980
   64MOL    H6622872   4.263   4.658   6.945  2.3339 -0.3350 -2.1225
   64MOL    H6722873   3.924   4.406   6.976 -0.5653 -1.1492 -0.4809
   64MOL    H6822874   3.956   4.367   6.810 -0.1029  0.8672 -0.7132
   64MOL    H6922875   4.098   4.241   7.047  1.8025  2.1219 -0.7188
   64MOL    H7022876   3.968   4.175   6.937 -0.2183  0.5688 -0.3411
   64MOL    H7122877   4.256   4.259   6.858 -1.0274 -0.4402  0.9257
   64MOL    H7222878   4.130   4.178   6.748 -2.1757 -0.5677  0.8666
   64MOL    H7322879   4.204   4.090   6.882 -0.0141 -0.6285 -0.6153
   64MOL    C7422880   4.306   4.626   6.729  0.2812 -0.0064  0.0773
   64MOL    C7522881   4.463   4.642   6.745  0.2973  0.5385 -0.1899
   64MOL    C7622882   4.516   4.589   6.878  0.3885 -0.4939  0.3035
   64MOL    O7722883   4.558   4.663   6.968 -0.4934 -0.4172  1.0783
   64MOL    O7822884   4.491   4.460   6.903 -0.4259 -0.2619 -0.5272
   64MOL    C7922885   4.537   4.405   7.020  0.7051 -0.4514  0.2781
   64MOL    C8022886   4.630   4.289   6.993 -0.3588  0.6573  0.6285
   64MOL    C8122887   4.744   4.332   6.898  0.4035 -0.6381 -0.8692
   64MOL    H8222888   4.259   4.664   6.638 -1.3593  0.5067  1.1113
   64MOL    H8322889   4.290   4.518   6.727 -1.6326  0.2607 -0.5709
   64MOL    H8422890   4.479   4.750   6.751 -2.2755  0.8886  0.9895
   64MOL    H8522891   4.579   4.469   7.097  1.2193 -1.0350  0.4925
   64MOL    H8622892   4.449   4.360   7.067  0.0746  1.1348  0.6300
   64MOL    H8722893   4.675   4.246   7.083  0.3724 -0.5332 -0.2787
   64MOL    H8822894   4.569   4.212   6.945  0.0160  0.1693  0.9288
   64MOL    H8922895   4.804   4.407   6.950 -2.2783  0.2827  0.9954
   64MOL    H9022896   4.705   4.371   6.804 -2.0134  0.0876  0.4006
   64MOL    H9122897   4.812   4.250   6.874 -1.7744 -3.0200  0.8499
   64MOL    C9222898   4.551   4.585   6.624  0.5075 -0.4977  0.3383
   64MOL    C9322899   4.513   4.641   6.481 -0.4475 -0.1861 -0.3843
   64MOL    C9422900   4.546   4.793   6.481 -0.4284  0.5531 -0.1899
   64MOL    O9522901   4.457   4.876   6.485 -0.3190 -0.5929  0.1517
   64MOL    O9622902   4.691   4.828   6.480  0.0251  0.1204  0.3749
   64MOL    C9722903   4.727   4.962   6.483 -0.7988 -0.3930 -0.3085
   64MOL    C9822904   4.697   5.030   6.339  0.1975  0.0556 -0.1469
   64MOL    C9922905   4.780   4.972   6.225 -0.0639  0.8704  0.2643
   64MOL   H10022906   4.546   4.476   6.633 -0.2754 -0.4967 -0.0473
   64MOL   H10122907   4.655   4.616   6.635  0.4950 -0.7658  1.3072
   64MOL   H10222908   4.404   4.644   6.473 -0.5750 -2.4048  0.0185
   64MOL   H10322909   4.672   5.012   6.563 -0.2461  0.0323 -0.1860
   64MOL   H10422910   4.833   4.984   6.501 -0.6944 -0.8918 -0.3218
   64MOL   H10522911   4.590   5.016   6.321  0.0252  0.4875  0.5119
   64MOL   H10622912   4.720   5.136   6.350 -1.5765  0.3210  1.2293
   64MOL   H10722913   4.886   4.960   6.245 -0.0223  0.3748 -0.2577
   64MOL   H10822914   4.751   5.017   6.129  0.6837 -0.8360 -0.7740
   64MOL   H10922915   4.743   4.873   6.198 -4.9501  2.0038  2.1970
   64MOL   C11022916   4.572   4.553   6.358  0.0944 -0.3496  0.0741
   64MOL   C11122917   4.457   4.465   6.293  0.5164 -0.1149 -0.0449
   64MOL   C11222918   4.480   4.443   6.143  0.3658  0.9086  0.3559
   64MOL   O11322919   4.589   4.408   6.102  0.6227  0.1050 -0.1680
   64MOL   O11422920   4.367   4.450   6.075  0.4648 -0.0229 -0.3151
   64MOL   C11522921   4.363   4.415   5.935 -0.2133 -0.4527 -0.2728
   64MOL   C11622922   4.253   4.501   5.870  0.2759 -0.0298 -0.2083
   64MOL   C11722923   4.115   4.435   5.895 -0.3167 -0.1438  0.0671
   64MOL   H11822924   4.642   4.476   6.389  2.5026  2.1635  1.0508
   64MOL   H11922925   4.626   4.621   6.292  0.3954 -0.4457  0.2228
   64MOL   H12022926   4.363   4.520   6.304 -0.3937 -1.3969 -1.1953
   64MOL   H12122927   4.447   4.441   5.870 -0.5747 -1.5520 -1.1826
   64MOL   H12222928   4.351   4.310   5.910 -0.4965 -0.6272  0.5891
   64MOL   H12322929   4.248   4.602   5.910  1.0871 -0.0006 -0.1632
   64MOL   H12422930   4.261   4.516   5.762 -1.5789  0.5558 -0.2701
   64MOL   H12522931   4.027   4.486   5.856  0.5399  1.3028  0.0147
   64MOL   H12622932   4.099   4.398   5.996  0.3992  1.3564  0.7373
   64MOL   H12722933   4.110   4.339   5.843 -0.6938 -0.4849  0.7305
   64MOL   C12822934   4.424   4.332   6.362  0.0916  0.0815  0.5502
   64MOL   C12922935   4.280   4.276   6.335  0.5434  0.4242  0.6100
   64MOL   C13022936   4.277   4.126   6.356 -0.6263  0.1629 -0.4207
   64MOL   O13122937   4.244   4.050   6.265 -0.1083 -0.3227  0.0950
   64MOL   O13222938   4.296   4.099   6.488 -0.3571  0.2250 -0.1007
   64MOL   C13322939   4.313   3.962   6.527  0.0069 -0.2666 -0.8180
   64MOL   C13422940   4.455   3.924   6.543  0.2945  0.5205  0.3735
   64MOL   C13522941   4.541   3.990   6.651 -0.3190  0.1615 -0.9967
   64MOL   H13622942   4.430   4.349   6.470  0.6128 -0.4900  0.6082
   64MOL   H13722943   4.493   4.250   6.345  0.7608  0.4928  1.2678
   64MOL   H13822944   4.253   4.291   6.230  0.6378  0.1927  0.5515
   64MOL   H13922945   4.257   3.946   6.619  2.2229  0.5767  0.7186
   64MOL   H14022946   4.252   3.894   6.467  0.2414 -0.4688 -0.8293
   64MOL   H14122947   4.458   3.817   6.561 -1.0390  0.5313  0.6892
   64MOL   H14222948   4.500   3.948   6.446 -1.2582  0.4720 -0.3813
   64MOL   H14322949   4.529   4.098   6.656 -0.4685  0.0599  2.3006
   64MOL   H14422950   4.645   3.959   6.644 -0.3142  0.4402 -2.2678
   64MOL   H14522951   4.505   3.954   6.748  0.5285 -0.5638 -0.9471
   64MOL   C14622952   4.162   4.346   6.417 -0.0749  0.2644 -0.1093
   64MOL   C14722953   4.027   4.377   6.341 -0.0439  0.1794  0.0164
   64MOL   C14822954   3.972   4.248   6.286  0.1763  0.5576  0.4100
   64MOL   O14922955   3.952   4.153   6.359 -0.3334 -0.4465 -0.6016
   64MOL   O15022956   3.926   4.254   6.153 -0.1799 -0.2421  0.4507
   64MOL   C15122957   3.904   4.131   6.091  0.2756  0.8053 -0.2064
   64MOL   C15222958   3.820   4.131   5.962  0.0053  0.4339 -0.4854
   64MOL   C15322959   3.801   3.991   5.905 -0.4895 -0.1422 -0.2518
   64MOL   H15422960   4.207   4.438   6.454 -0.2881  1.0701 -1.8628
   64MOL   H15522961   4.134   4.279   6.499 -1.0771 -1.8060 -2.0808
   64MOL   H15622962   4.055   4.436   6.255 -0.9477 -2.2720 -2.0343
   64MOL   H15722963   3.998   4.087   6.057  0.5591  1.3590 -0.1469
   64MOL   H15822964   3.844   4.066   6.154  1.0373 -0.6078 -0.8982
   64MOL   H15922965   3.721   4.177   5.969 -0.4040 -0.2600 -1.5494
   64MOL   H16022966   3.865   4.187   5.881 -0.4687  0.0272 -1.0320
   64MOL   H16122967   3.890   3.962   5.850  1.2831  1.5288  1.6334
   64MOL   H16222968   3.710   3.982   5.846 -0.2859  1.3150 -0.8160
   64MOL   H16322969   3.785   3.925   5.990  0.8576 -1.4456 -0.9826
   64MOL   C16422970   3.934   4.458   6.436  0.8641  0.6435 -0.1524
   64MOL   C16522971   3.790   4.470   6.384 -0.0664  0.1234  0.0877
   64MOL   C16622972   3.688   4.514   6.489  0.8647 -0.3828  0.6128
   64MOL   O16722973   3.586   4.448   6.507 -0.0503 -0.3735 -0.6347
   64MOL   O16822974   3.724   4.620   6.557  0.1253 -0.3058  0.2677
   64MOL   C16922975   3.636   4.669   6.657 -0.1983  0.3326  0.1298
   64MOL   C17022976   3.577   4.799   6.620 -0.5440  0.8910 -0.7285
   64MOL   C17122977   3.488   4.861   6.724  0.3350 -0.3431 -0.8760
   64MOL   H17222978   3.976   4.555   6.464  0.1045  0.6855  0.8619
   64MOL   H17322979   3.933   4.405   6.531 -1.8123 -0.1917 -0.6103
   64MOL   H17422980   3.758   4.369   6.359  2.6203 -0.5219 -0.8745
   64MOL   H17522981   3.553   4.603   6.683 -0.6209  0.4967 -0.7809
   64MOL   H17622982   3.686   4.672   6.754  0.2019 -0.4836 -0.0459
   64MOL   H17722983   3.667   4.860   6.628  2.3426 -3.4778  3.0997
   64MOL   H17822984   3.538   4.797   6.518 -1.2083  0.1276 -0.4642
   64MOL   H17922985   3.402   4.906   6.673 -0.3572  0.0191  0.5652
   64MOL   H18022986   3.529   4.956   6.760 -1.4480  0.4045 -0.7369
   64MOL   H18122987   3.449   4.794   6.800  1.1496  1.8963  1.6039
   64MOL   C18222988   3.778   4.562   6.257  0.2349  0.0606  0.4022
   64MOL   C18322989   3.648   4.544   6.180 -0.6156 -0.6482  0.4685
   64MOL   C18422990   3.543   4.653   6.214  0.5742  0.3855  0.4813
   64MOL   O18522991   3.431   4.619   6.258  0.4230  0.5651 -0.3370
   64MOL   O18622992   3.580   4.776   6.177 -0.8152  0.4663 -0.3394
   64MOL   C18722993   3.486   4.880   6.194 -0.7357 -0.2752  0.4658
   64MOL   C18822994   3.412   4.926   6.065 -0.0008  0.5695 -0.0291
   64MOL   C18922995   3.502   4.993   5.950  0.1066  0.4330  0.2746
   64MOL   H19022996   3.861   4.541   6.190 -1.9821  1.2517 -2.8461
   64MOL   H19122997   3.801   4.664   6.288 -0.0116  0.5828 -1.1089
   64MOL   H19222998   3.602   4.449   6.206 -0.2449 -1.0511 -0.3172
   64MOL   H19322999   3.419   4.860   6.277 -0.4865  0.3485  0.8211
   64MOL   H19423000   3.544   4.967   6.226 -1.5042  0.2865  0.3322
   64MOL   H19523001   3.368   4.839   6.016  0.2612  0.1351  0.5043
   64MOL   H19623002   3.323   4.981   6.094  1.0881  2.2555  0.1752
   64MOL   H19723003   3.580   4.929   5.910 -0.0587 -0.3403  1.1650
   64MOL   H19823004   3.542   5.088   5.985  0.4683  0.2194  0.4381
   64MOL   H19923005   3.447   5.021   5.861 -2.0365  0.7513  1.6491
   64MOL   C20023006   3.680   4.544   6.021  1.0092  0.0900 -0.7248
   64MOL   C20123007   3.548   4.530   5.938 -0.6127  0.2919  0.7031
   64MOL   C20223008   3.582   4.543   5.788 -0.1897 -0.0233 -0.2860
   64MOL   O20323009   3.541   4.637   5.715 -0.1463  0.0821 -0.4157
   64MOL   O20423010   3.673   4.456   5.750  0.3157 -0.0540 -0.5224
   64MOL   C20523011   3.722   4.469   5.619  0.1289 -0.5079  0.0210
   64MOL   C20623012   3.845   4.385   5.598  0.5857  0.1579  0.0627
   64MOL   C20723013   3.803   4.237   5.570 -0.3120  0.3345 -0.8380
   64MOL   H20823014   3.751   4.464   6.001 -1.4668 -2.5784  0.8079
   64MOL   H20923015   3.736   4.633   5.992  0.0387  0.4424 -1.5464
   64MOL   H21023016   3.480   4.611   5.963 -0.9106  0.4390 -0.5246
   64MOL   H21123017   3.632   4.453   5.560  0.3698 -0.0225 -0.4891
   64MOL   H21223018   3.751   4.574   5.610  0.4731 -0.4197  1.9334
   64MOL   H21323019   3.903   4.432   5.519 -1.1325 -0.9813 -1.9273
   64MOL   H21423020   3.912   4.380   5.684  1.2373  1.6707 -0.3383
   64MOL   H21523021   3.741   4.198   5.650  0.4341  1.6803  0.4140
   64MOL   H21623022   3.890   4.175   5.552  0.1210  0.3697  1.1279
   64MOL   H21723023   3.741   4.246   5.480 -0.8269 -0.2973 -0.5544
   64MOL   C21823024   3.479   4.394   5.960  0.0035  0.2409  0.5411
   64MOL   C21923025   3.323   4.406   5.948 -0.5972 -0.1463  0.0315
   64MOL   C22023026   3.272   4.446   5.806 -0.9892  0.5318  0.3809
   64MOL   O22123027   3.283   4.369   5.707  0.3130  0.1415  0.0144
   64MOL   O22223028   3.211   4.569   5.807 -0.2384 -0.8854  0.2411
   64MOL   C22323029   3.167   4.626   5.679  0.0354 -0.6669  1.5452
   64MOL   C22423030   3.144   4.777   5.684  0.1534 -0.1561 -0.0358
   64MOL   C22523031   3.273   4.846   5.703  0.3704 -0.4620  0.1298
   64MOL   H22623032   3.514   4.341   6.048 -1.1098 -1.1220  0.1845
   64MOL   H22723033   3.509   4.324   5.882  1.9574  0.0302  1.4609
   64MOL   H22823034   3.285   4.481   6.018  0.5967 -0.8617  1.4865
   64MOL   H22923035   3.241   4.617   5.599 -1.5219 -1.3652  0.1631
   64MOL   H23023036   3.073   4.577   5.654  0.2247  1.1398 -3.2596
   64MOL   H23123037   3.079   4.821   5.609  0.4458 -0.8480 -0.7094
   64MOL   H23223038   3.085   4.795   5.774 -2.2113  1.2707 -1.8226
   64MOL   H23323039   3.335   4.806   5.622 -1.3925 -0.2739 -1.3300
   64MOL   H23423040   3.314   4.838   5.804  2.0267  3.7081 -0.1067
   64MOL   H23523041   3.256   4.951   5.683 -0.5576 -0.1579  2.3286
   64MOL   C23623042   3.252   4.274   6.005  0.5132 -0.9394 -0.7512
   64MOL   C23723043   3.268   4.244   6.161  0.4972  0.4105 -0.3412
   64MOL   C23823044   3.193   4.347   6.250  0.4852  0.2207  0.2209
   64MOL   O23923045   3.082   4.396   6.224 -0.1604 -0.1428  0.1558
   64MOL   O24023046   3.261   4.386   6.354  0.1425  0.7388  0.1159
   64MOL   C24123047   3.203   4.475   6.444 -0.2234 -0.2045 -0.2029
   64MOL   C24223048   3.301   4.504   6.553  0.1433 -0.2032 -0.2292
   64MOL   C24323049   3.231   4.571   6.664 -0.0231  0.1987 -0.4536
   64MOL   H24423050   3.289   4.192   5.944  0.5045 -1.2079 -0.3993
   64MOL   H24523051   3.144   4.278   5.991  0.2709  2.1353  1.4638
   64MOL   H24623052   3.371   4.259   6.192  0.2135 -2.4026  2.2300
   64MOL   H24723053   3.167   4.569   6.403  1.7564 -0.3034 -2.2163
   64MOL   H24823054   3.113   4.430   6.486  0.9664 -0.4934  2.1813
   64MOL   H24923055   3.357   4.418   6.589  0.2914  0.2106  0.5256
   64MOL   H25023056   3.362   4.583   6.510 -1.0150 -0.3847 -2.3056
   64MOL   H25123057   3.136   4.525   6.693 -1.4124  2.5609 -1.1434
   64MOL   H25223058   3.205   4.675   6.645 -0.6979  0.3221  1.0240
   64MOL   H25323059   3.288   4.578   6.757 -0.3886 -2.3107  0.0034
   64MOL   C25423060   3.241   4.098   6.194  0.0049  0.3599  0.6937
   64MOL   C25523061   3.354   4.000   6.152 -0.5906  0.5721  0.2567
   64MOL   C25623062   3.495   4.037   6.203 -0.0391 -0.2532 -0.8442
   64MOL   O25723063   3.587   4.040   6.118  0.3768 -0.4205 -0.1678
   64MOL   O25823064   3.500   4.066   6.338  0.1501 -0.0224  0.6534
   64MOL   C25923065   3.624   4.076   6.407  0.0693  0.3906 -0.5337
   64MOL   C26023066   3.603   4.083   6.554  0.1388  0.1825 -0.0975
   64MOL   C26123067   3.490   3.998   6.618 -0.7475  0.0279  0.8844
   64MOL   H26223068   3.136   4.081   6.168  0.9306  0.4674 -3.3006
   64MOL   H26323069   3.247   4.083   6.302 -0.1612  1.9750  0.9399
   64MOL   H26423070   3.359   4.008   6.044 -0.1465 -1.5075  0.1018
   64MOL   H26523071   3.674   3.983   6.381  0.1229 -0.0312  1.0086
   64MOL   H26623072   3.689   4.159   6.377  1.6243  0.3474  2.4592
   64MOL   H26723073   3.699   4.072   6.604  1.4675 -0.1252 -2.6622
   64MOL   H26823074   3.583   4.188   6.575  0.0800  0.0172  0.7100
   64MOL   H26923075   3.509   3.890   6.617  0.7875  0.2920 -0.5395
   64MOL   H27023076   3.395   4.006   6.566  0.1673  2.4004 -0.4837
   64MOL   H27123077   3.485   4.024   6.723  0.1372  0.1321  0.9042
   64MOL   C27223078   3.320   3.848   6.182  0.3292 -0.2131 -0.2972
   64MOL   C27323079   3.229   3.779   6.079  0.4066  0.6059 -0.6393
   64MOL   C27423080   3.268   3.793   5.931  0.3224  0.0987  0.3872
   64MOL   O27523081   3.343   3.705   5.886 -0.2737 -0.0388 -0.1178
   64MOL   O27623082   3.214   3.902   5.860  0.0956 -0.3073  0.1380
   64MOL   C27723083   3.255   3.903   5.718  0.4213 -0.6089  0.0310
   64MOL   C27823084   3.297   4.038   5.676  0.2907  0.5346 -0.2589
   64MOL   C27923085   3.437   4.062   5.720  0.0734  0.3844 -0.7454
   64MOL   H28023086   3.283   3.835   6.283  0.4004 -2.3518 -0.5282
   64MOL   H28123087   3.412   3.790   6.183  0.7793  0.5230  1.7642
   64MOL   H28223088   3.132   3.828   6.085  0.0125 -0.4716  2.4418
   64MOL   H28323089   3.337   3.835   5.696 -1.1268 -2.1972 -0.9098
   64MOL   H28423090   3.176   3.863   5.655  0.8141 -2.5411  0.7478
   64MOL   H28523091   3.290   4.044   5.568  0.4298  0.3220 -0.2797
   64MOL   H28623092   3.225   4.113   5.712 -0.1406  0.3930 -0.8212
   64MOL   H28723093   3.507   3.985   5.688 -1.6392 -1.0315 -1.1471
   64MOL   H28823094   3.449   4.048   5.827  2.8509 -1.5279 -1.2371
   64MOL   H28923095   3.470   4.165   5.701 -0.5858  1.1148  1.9436
   64MOL   C29023096   3.205   3.636   6.127 -0.2412  0.0161 -0.8812
   64MOL   C29123097   3.095   3.562   6.044 -0.7347 -0.7055 -0.5774
   64MOL   C29223098   3.092   3.420   6.094 -0.3711 -0.3256 -0.1324
   64MOL   O29323099   3.102   3.321   6.020  0.1761 -0.1668  0.2769
   64MOL   O29423100   3.065   3.409   6.222  0.2023 -0.4918  0.1387
   64MOL   C29523101   3.107   3.292   6.296 -0.7375  0.5068  0.0867
   64MOL   C29623102   3.130   3.339   6.447 -0.1285 -0.0866  0.0824
   64MOL   C29723103   3.194   3.230   6.539  0.0895  0.2801 -0.0834
   64MOL   H29823104   3.186   3.639   6.234  0.9075  0.5577 -0.6834
   64MOL   H29923105   3.301   3.586   6.115  0.1629  0.6606 -0.3306
   64MOL   H30023106   3.112   3.572   5.937 -0.1531 -0.1593 -0.4370
   64MOL   H30123107   3.022   3.224   6.304 -0.9873  0.5199 -2.0321
   64MOL   H30223108   3.192   3.248   6.243 -0.7824 -0.5807  0.8980
   64MOL   H30323109   3.203   3.420   6.448  1.9750 -1.9167 -0.4355
   64MOL   H30423110   3.036   3.376   6.489 -1.7948 -3.2194 -0.7105
   64MOL   H30523111   3.213   3.274   6.637 -0.3245 -1.6321  0.8788
   64MOL   H30623112   3.289   3.208   6.490  0.1430 -0.4005  0.3253
   64MOL   H30723113   3.132   3.141   6.536  0.5873 -0.1137  1.1421
   64MOL   C30823114   2.954   3.622   6.060  0.7758  0.4470 -0.1228
   64MOL   C30923115   2.866   3.590   5.932 -0.3541 -0.2892  0.1297
   64MOL   C31023116   2.717   3.567   5.976 -0.8223  0.4318  0.0179
   64MOL   O31123117   2.657   3.476   5.924  0.1552 -0.2585  0.1522
   64MOL   O31223118   2.677   3.657   6.070 -0.0913  0.6082 -0.8159
   64MOL   C31323119   2.551   3.641   6.135  0.5977  0.2825 -0.8490
   64MOL   C31423120   2.436   3.714   6.058  0.1020  0.1709 -0.5582
   64MOL   C31523121   2.462   3.861   6.025  0.1746 -0.0539  0.0784
   64MOL   H31623122   2.957   3.730   6.073 -1.3165  0.4555  0.4262
   64MOL   H31723123   2.904   3.586   6.150 -1.2446  2.4886 -0.3883
   64MOL   H31823124   2.896   3.488   5.906  2.4797  1.3793 -3.4180
   64MOL   H31923125   2.534   3.535   6.151  2.8198 -0.1395 -1.0850
   64MOL   H32023126   2.555   3.691   6.232  1.5811  0.0750 -0.7757
   64MOL   H32123127   2.420   3.657   5.966  0.9539  0.6849 -1.0281
   64MOL   H32223128   2.340   3.719   6.109  0.2020  1.9629 -0.5147
   64MOL   H32323129   2.390   3.888   5.948 -1.3184 -0.6053  1.2621
   64MOL   H32423130   2.445   3.921   6.114 -1.9843 -1.7795  0.8733
   64MOL   H32523131   2.561   3.882   5.984 -0.1210 -0.5479 -0.9102
   64MOL   C32623132   2.878   3.692   5.820 -0.4907  0.5019  0.2922
   64MOL   C32723133   2.847   3.643   5.676  0.4760 -0.2561 -0.4028
   64MOL   C32823134   2.720   3.706   5.630 -0.2154 -0.4362 -0.3870
   64MOL   O32923135   2.721   3.829   5.625  0.6771 -0.1174  0.5018
   64MOL   O33023136   2.618   3.624   5.597  0.4383  1.0142  0.0237
   64MOL   C33123137   2.492   3.680   5.589  0.5756 -0.1661  0.5227
   64MOL   C33223138   2.380   3.581   5.623 -0.0578 -0.3027  0.4037
   64MOL   C33323139   2.249   3.654   5.641  0.4006 -0.6663  0.5765
   64MOL   H33423140   2.977   3.737   5.822 -0.9893  1.6597 -0.4206
   64MOL   H33523141   2.817   3.776   5.854 -1.2732  0.0525  0.0116
   64MOL   H33623142   2.830   3.535   5.682 -0.1213 -0.0739  1.5599
   64MOL   H33723143   2.494   3.776   5.640  0.9901 -0.6489  1.4254
   64MOL   H33823144   2.478   3.685   5.481 -1.0629 -0.8755  0.6847
   64MOL   H33923145   2.362   3.505   5.547 -0.6729 -0.1662  0.4122
   64MOL   H34023146   2.412   3.526   5.712  0.8994  1.1581  0.9790
   64MOL   H34123147   2.218   3.717   5.559  0.4135  1.8004  2.4024
   64MOL   H34223148   2.167   3.589   5.670 -0.4170 -0.4305 -1.1990
   64MOL   H34323149   2.261   3.723   5.725 -0.1755  0.2872 -0.1265
   64MOL   C34423150   2.960   3.682   5.579 -0.1059 -0.2591  0.0838
   64MOL   C34523151   2.945   3.648   5.427 -0.2934  0.3661 -0.2016
   64MOL   C34623152   3.071   3.682   5.347  0.5439  0.5085  0.0025
   64MOL   O34723153   3.155   3.763   5.388 -0.1380 -0.5415 -0.3456
   64MOL   O34823154   3.082   3.614   5.238  0.3777  0.1454  0.1001
   64MOL   C34923155   3.190   3.632   5.156 -0.4315 -0.0440  0.1466
   64MOL   C35023156   3.284   3.514   5.150  0.3230 -0.2055  0.2661
   64MOL   C35123157   3.397   3.531   5.046  0.3491 -0.3467  0.2881
   64MOL   H35223158   3.055   3.641   5.612 -0.8066 -0.1998  2.2225
   64MOL   H35323159   2.973   3.790   5.584 -1.1113 -0.0413 -1.3652
   64MOL   H35423160   2.865   3.710   5.387 -1.3826 -1.0595 -0.2865
   64MOL   H35523161   3.142   3.655   5.061  0.2432  1.1491  0.0901
   64MOL   H35623162   3.248   3.717   5.191 -0.1786 -0.0039 -0.3615
   64MOL   H35723163   3.338   3.500   5.244  0.1694  0.4829  0.4588
   64MOL   H35823164   3.223   3.425   5.136 -1.1212  0.5409  1.7247
   64MOL   H35923165   3.360   3.538   4.944  0.8522 -0.7913  0.0744
   64MOL   H36023166   3.441   3.630   5.054  1.0561 -0.5825 -0.6438
   64MOL   H36123167   3.476   3.459   5.066  1.6918  0.5471 -1.7190
   64MOL   H36223168   2.909   3.548   5.402  0.5600  0.2449 -0.9526
   65MOL     C123169   5.984   0.991   6.707 -0.0332  0.0412 -0.1178
   65MOL     C223170   5.858   0.905   6.657  0.1150 -0.4704 -0.1960
   65MOL     C323171   5.890   0.845   6.523  0.2839 -0.5045  0.0270
   65MOL     O423172   6.006   0.810   6.504  0.0758  0.4071 -0.0673
   65MOL     O523173   5.791   0.829   6.438  0.4501 -0.6031  0.4786
   65MOL     C623174   5.804   0.772   6.312 -0.1782  0.0702 -0.8253
   65MOL     C723175   5.659   0.742   6.262 -0.2052 -0.2818  0.2086
   65MOL     C823176   5.648   0.691   6.120  0.7934  1.6146  0.0858
   65MOL     H923177   6.061   0.926   6.750  1.8294  1.8189 -0.6499
   65MOL    H1023178   6.039   1.031   6.622 -0.3941  0.1531 -0.2966
   65MOL    H1123179   5.783   0.983   6.637 -1.3874 -1.5784  0.9702
   65MOL    H1223180   5.850   0.846   6.246  1.2702 -2.4482 -2.7354
   65MOL    H1323181   5.869   0.686   6.321 -0.6301  0.0067  2.1186
   65MOL    H1423182   5.605   0.689   6.340  2.3974 -2.6449  0.4793
   65MOL    H1523183   5.605   0.836   6.276  0.7454  0.3258 -0.1549
   65MOL    H1623184   5.713   0.735   6.044  0.1399 -0.2101 -1.5599
   65MOL    H1723185   5.679   0.586   6.118  1.2850  1.7420  0.7660
   65MOL    H1823186   5.547   0.698   6.080  0.6237 -0.3342  0.1317
   65MOL    H1923187   5.977   1.067   6.785  0.3686 -1.4852  1.4398
   65MOL    C2023188   5.815   0.810   6.762  0.1593 -0.0987  0.2479
   65MOL    C2123189   5.765   0.881   6.892 -0.6092  0.0003 -0.0304
   65MOL    C2223190   5.611   0.926   6.887 -0.5089 -0.2032  0.0275
   65MOL    O2323191   5.545   0.913   6.781  0.2852  0.0528  0.1159
   65MOL    O2423192   5.570   0.970   7.003 -0.0882 -0.0706 -0.5553
   65MOL    C2523193   5.431   1.026   7.013  0.2622  0.4558 -0.3297
   65MOL    C2623194   5.396   1.025   7.162  0.0412  0.3502  0.2416
   65MOL    C2723195   5.371   0.887   7.214 -0.0709 -0.5702 -0.4589
   65MOL    H2823196   5.902   0.751   6.790  2.1961  1.9759 -1.4542
   65MOL    H2923197   5.732   0.743   6.740  0.2321 -0.4440  1.0237
   65MOL    H3023198   5.819   0.974   6.909 -2.3472  1.1240 -0.4732
   65MOL    H3123199   5.434   1.127   6.974  2.0058  0.9520  1.0287
   65MOL    H3223200   5.356   0.964   6.964 -2.4178  1.0001  2.9586
   65MOL    H3323201   5.478   1.066   7.220 -1.6687  0.8913  2.3170
   65MOL    H3423202   5.301   1.074   7.182 -0.4570  0.2253 -1.6856
   65MOL    H3523203   5.307   0.881   7.302  1.3823  0.1303  0.6737
   65MOL    H3623204   5.466   0.846   7.246  0.8694  1.0287 -1.1166
   65MOL    H3723205   5.344   0.811   7.142  2.2239 -0.1194 -1.8439
   65MOL    C3823206   5.790   0.803   7.021  0.7664  0.2047 -0.0120
   65MOL    C3923207   5.706   0.674   7.031  0.1711 -0.1690  0.1003
   65MOL    C4023208   5.755   0.551   6.939 -0.2708  0.1302 -0.1021
   65MOL    O4123209   5.690   0.501   6.850 -0.4844 -0.1572 -0.4132
   65MOL    O4223210   5.889   0.525   6.964  0.7083  0.0174  0.0162
   65MOL    C4323211   5.966   0.434   6.878  0.3136  0.2201  0.3243
   65MOL    C4423212   5.966   0.291   6.924 -0.2382  0.1389 -0.5532
   65MOL    C4523213   5.834   0.214   6.897 -0.2822 -0.2540 -0.4560
   65MOL    H4623214   5.775   0.868   7.107  1.6352  1.6520 -0.9468
   65MOL    H4723215   5.896   0.783   7.033  0.6691 -0.4357 -0.1433
   65MOL    H4823216   5.606   0.692   6.994  0.6351  1.4279 -0.4238
   65MOL    H4923217   5.920   0.449   6.780  0.7170  1.4208  0.3101
   65MOL    H5023218   6.068   0.471   6.877  0.5177 -0.3242  1.2708
   65MOL    H5123219   6.047   0.243   6.868 -1.3279 -1.3749 -0.8622
   65MOL    H5223220   5.983   0.275   7.031 -1.2944 -3.1377 -0.8135
   65MOL    H5323221   5.849   0.107   6.888  0.2404 -0.1374 -1.0613
   65MOL    H5423222   5.795   0.236   6.797 -2.3068 -0.6915  0.2196
   65MOL    H5523223   5.752   0.226   6.967 -0.7996 -0.2473 -1.0562
   65MOL    C5623224   5.721   0.619   7.177  0.4384  0.2446  0.0183
   65MOL    C5723225   5.649   0.485   7.221 -0.4535  0.1817 -0.3559
   65MOL    C5823226   5.711   0.438   7.354  0.5687  0.6772 -0.9438
   65MOL    O5923227   5.783   0.335   7.353 -0.2395  0.5170 -0.7191
   65MOL    O6023228   5.678   0.521   7.457 -0.2584  0.6694 -0.7427
   65MOL    C6123229   5.725   0.502   7.582  0.3010 -0.5576 -0.6879
   65MOL    C6223230   5.803   0.626   7.619  0.6623  0.5589 -0.1366
   65MOL    C6323231   5.907   0.667   7.516 -0.0920  0.1921  0.2608
   65MOL    H6423232   5.677   0.700   7.235 -0.1982 -2.2647  3.2036
   65MOL    H6523233   5.827   0.611   7.202  0.3573  1.7552  0.9354
   65MOL    H6623234   5.678   0.408   7.149  1.0195  0.3832  0.0219
   65MOL    H6723235   5.644   0.475   7.650 -0.2180 -0.9088 -1.4366
   65MOL    H6823236   5.799   0.423   7.584 -0.2392 -1.0752 -0.8566
   65MOL    H6923237   5.743   0.712   7.647 -0.0377  0.2201 -0.5799
   65MOL    H7023238   5.860   0.611   7.711  0.3528 -0.9220 -0.1643
   65MOL    H7123239   5.973   0.587   7.483  1.4544  1.5206  0.1056
   65MOL    H7223240   5.972   0.742   7.559 -0.2571  0.0322  0.7906
   65MOL    H7323241   5.867   0.708   7.423 -1.0416  0.9291  0.9746
   65MOL    C7423242   5.494   0.519   7.218 -0.6108 -1.1788  0.2467
   65MOL    C7523243   5.413   0.394   7.261 -0.8976  0.3073 -0.3290
   65MOL    C7623244   5.264   0.426   7.290  0.4415 -0.2322 -0.3305
   65MOL    O7723245   5.173   0.428   7.205  0.0871  0.0620 -0.1293
   65MOL    O7823246   5.243   0.452   7.419  1.2495 -0.2463 -0.6998
   65MOL    C7923247   5.118   0.506   7.464  0.7389 -0.0036 -0.6627
   65MOL    C8023248   5.129   0.565   7.605  0.8186 -0.1680 -0.3082
   65MOL    C8123249   5.218   0.683   7.602 -0.2397 -0.4585  0.1721
   65MOL    H8223250   5.477   0.543   7.113  3.0615 -1.1552 -0.4073
   65MOL    H8323251   5.480   0.598   7.291  1.7505 -1.1199  0.6422
   65MOL    H8423252   5.460   0.361   7.354 -0.0888  1.8469 -0.1825
   65MOL    H8523253   5.088   0.580   7.390  0.6634  2.0533  1.3770
   65MOL    H8623254   5.042   0.427   7.464  1.3606 -0.6125 -2.4395
   65MOL    H8723255   5.030   0.602   7.634 -0.0911 -1.1365 -2.0808
   65MOL    H8823256   5.168   0.494   7.678 -1.3455 -2.1623 -1.0446
   65MOL    H8923257   5.189   0.756   7.526 -1.6868 -0.2707  0.8835
   65MOL    H9023258   5.324   0.661   7.593 -0.1482  0.2343 -0.4590
   65MOL    H9123259   5.206   0.734   7.698  0.6338  0.2735 -0.1123
   65MOL    C9223260   5.424   0.274   7.160  0.4047 -0.8354 -0.0989
   65MOL    C9323261   5.492   0.147   7.214  0.0167  0.0074  0.0319
   65MOL    C9423262   5.434   0.093   7.348 -0.1513 -0.3743  0.0749
   65MOL    O9523263   5.502   0.090   7.448 -0.1658 -0.4500  0.2052
   65MOL    O9623264   5.309   0.042   7.350  0.4943  0.0616  0.4787
   65MOL    C9723265   5.256   7.857   7.465 -0.9073  0.5877  0.9584
   65MOL    C9823266   5.133   7.764   7.431  0.0196  0.1288  0.1608
   65MOL    C9923267   5.012   7.849   7.389 -0.3359  0.6564  0.1650
   65MOL   H10023268   5.476   0.307   7.070 -1.1830 -0.3034 -0.8334
   65MOL   H10123269   5.326   0.245   7.123  0.6700 -0.6907 -0.9230
   65MOL   H10223270   5.593   0.179   7.240 -0.8264  0.2201  3.2574
   65MOL   H10323271   5.333   7.787   7.496 -0.6813  1.1706  1.7214
   65MOL   H10423272   5.228   0.053   7.538  0.4255 -0.5302  2.6803
   65MOL   H10523273   5.147   7.701   7.343 -5.2334  0.4574 -1.1067
   65MOL   H10623274   5.113   7.695   7.512  2.0297 -1.5527 -0.7309
   65MOL   H10723275   5.025   0.072   7.419 -0.9451  0.3612  1.4934
   65MOL   H10823276   4.917   7.805   7.421  0.2607 -1.4479 -0.8467
   65MOL   H10923277   5.004   7.849   7.281  0.6430  1.4742  0.0918
   65MOL   C11023278   5.493   0.043   7.105  0.0305 -0.0217 -0.0507
   65MOL   C11123279   5.604   7.809   7.104  0.0993 -0.2086  0.3469
   65MOL   C11223280   5.598   7.721   7.231 -0.9613 -0.3720  0.2030
   65MOL   O11323281   5.492   7.674   7.269  0.0949  0.5516 -0.3728
   65MOL   O11423282   5.719   7.703   7.279  0.4172 -0.2340 -0.0867
   65MOL   C11523283   5.745   7.612   7.381  0.0233  0.8080 -0.1591
   65MOL   C11623284   5.733   7.680   7.517 -0.6823 -0.3912 -0.1430
   65MOL   C11723285   5.772   7.602   7.644  0.2230  0.0992 -0.1245
   65MOL   H11823286   5.507   0.085   7.005  1.5124 -2.1409 -0.7695
   65MOL   H11923287   5.394   7.879   7.095  0.3244 -1.9103  4.3045
   65MOL   H12023288   5.703   7.854   7.102 -0.6077  1.3403 -0.2572
   65MOL   H12123289   5.673   7.530   7.375  0.0940  0.7876 -0.6847
   65MOL   H12223290   5.843   7.564   7.374 -0.7056 -0.9037  0.9081
   65MOL   H12323291   5.796   7.768   7.503 -0.6526 -0.3982 -0.0487
   65MOL   H12423292   5.635   7.728   7.524  0.3435  1.6977  0.4873
   65MOL   H12523293   5.743   7.663   7.730 -2.1995  0.8003 -1.4090
   65MOL   H12623294   5.873   7.564   7.653  0.7475  1.8950  2.0593
   65MOL   H12723295   5.690   7.531   7.652 -1.2574  1.8845  1.1896
   65MOL   C12823296   5.600   7.729   6.976  0.0830 -0.3820  0.3129
   65MOL   C12923297   5.730   7.711   6.896  0.3234 -1.1224 -0.7984
   65MOL   C13023298   5.830   7.630   6.978  0.0829 -0.1686 -0.0031
   65MOL   O13123299   5.929   7.688   7.015 -0.3134  0.6649 -0.2224
   65MOL   O13223300   5.818   7.494   6.982  0.3025 -0.0476  0.4119
   65MOL   C13323301   5.934   7.424   7.027 -0.0921 -0.1764  0.2532
   65MOL   C13423302   5.891   7.289   7.084 -0.2009  0.0047  0.2515
   65MOL   C13523303   5.804   7.301   7.206  0.6024  0.0323  0.9582
   65MOL   H13623304   5.535   7.781   6.906  0.7613  0.4215  0.2749
   65MOL   H13723305   5.546   7.635   6.989  1.0180 -1.1750 -1.3935
   65MOL   H13823306   5.772   7.809   6.878 -0.3058 -0.3286  1.9559
   65MOL   H13923307   5.995   7.413   6.936  0.2311  0.0523  0.4416
   65MOL   H14023308   5.990   7.480   7.101  0.5357  0.2129 -0.5054
   65MOL   H14123309   5.840   7.225   7.012 -1.6605 -2.4969  3.4105
   65MOL   H14223310   5.979   7.231   7.111  0.5392 -0.1707 -2.3575
   65MOL   H14323311   5.704   7.336   7.181  0.8089 -0.1014 -0.0668
   65MOL   H14423312   5.856   7.369   7.274  1.0097 -0.3027  0.9827
   65MOL   H14523313   5.794   7.207   7.261 -0.7266 -0.1697  0.3898
   65MOL   C14623314   5.697   7.652   6.756  0.3501  0.0244 -0.4004
   65MOL   C14723315   5.777   7.709   6.637 -0.1483  0.1226 -0.0744
   65MOL   C14823316   5.929   7.677   6.649 -0.4526  0.7195 -0.0755
   65MOL   O14923317   6.004   7.772   6.662 -0.1327  0.4451  0.0867
   65MOL   O15023318   5.964   7.546   6.646 -0.1510  0.1642 -0.9393
   65MOL   C15123319   6.098   7.523   6.667 -0.0543  0.1217 -0.2497
   65MOL   C15223320   6.179   7.545   6.545  0.1837 -0.3192  0.0724
   65MOL   C15323321   6.328   7.519   6.559 -0.3836  0.7614 -0.4630
   65MOL   H15423322   5.591   7.648   6.730  0.2197 -0.9844  0.2259
   65MOL   H15523323   5.729   7.547   6.759  0.7297  0.0626 -2.3068
   65MOL   H15623324   5.765   7.817   6.640  1.9527  0.3712  2.7691
   65MOL   H15723325   6.142   7.579   6.749 -0.1152 -1.0333  0.5946
   65MOL   H15823326   6.099   7.417   6.695 -1.9358 -0.4047 -1.9876
   65MOL   H15923327   6.129   7.487   6.468 -0.0777  0.0229 -0.0154
   65MOL   H16023328   6.167   7.648   6.510 -0.4083 -0.6442 -0.6883
   65MOL   H16123329   6.390   7.601   6.523 -0.1169  1.1088  0.7505
   65MOL   H16223330   6.355   7.425   6.512  3.0851  0.3693  2.1661
   65MOL   H16323331   6.353   7.511   6.665  0.3940  0.8010 -0.6448
   65MOL   C16423332   5.715   7.652   6.510  0.1161 -0.5288 -0.1950
   65MOL   C16523333   5.746   7.739   6.386  0.1512  0.8783  0.8884
   65MOL   C16623334   5.718   7.683   6.246 -1.1089  0.8195 -0.5346
   65MOL   O16723335   5.661   7.747   6.157 -0.2791  0.6332  0.0277
   65MOL   O16823336   5.770   7.555   6.233  0.3700 -0.2453 -0.2479
   65MOL   C16923337   5.778   7.484   6.109  0.3595  0.2113 -0.2216
   65MOL   C17023338   5.919   7.416   6.098  0.0586 -0.5060 -0.3834
   65MOL   C17123339   5.942   7.376   5.955  0.3947  0.6940  0.3968
   65MOL   H17223340   5.607   7.647   6.526  0.1784 -1.7888 -0.1211
   65MOL   H17323341   5.742   7.548   6.492 -0.0455 -0.5603 -0.2554
   65MOL   H17423342   5.855   7.743   6.382  0.1039  2.0331  0.6565
   65MOL   H17523343   5.702   7.409   6.090  1.2703 -0.5193 -1.0412
   65MOL   H17623344   5.771   7.565   6.036  2.6045  1.1879  0.5944
   65MOL   H17723345   5.994   7.490   6.126 -0.4824 -0.3945  0.8105
   65MOL   H17823346   5.931   7.327   6.159  3.0764 -0.0121 -0.1765
   65MOL   H17923347   6.049   7.360   5.940  0.3759  0.1564  0.8457
   65MOL   H18023348   5.912   7.457   5.888 -0.6506  0.4481  0.5625
   65MOL   H18123349   5.884   7.286   5.934  0.9769  0.8435 -2.1009
   65MOL   C18223350   5.684   7.878   6.397 -0.0611  0.5398  0.6662
   65MOL   C18323351   5.527   0.015   6.402 -0.1109  0.5114 -0.1779
   65MOL   C18423352   5.481   0.048   6.545 -0.5218 -0.2763 -0.6002
   65MOL   O18523353   5.400   7.862   6.605 -0.2651 -0.5163 -0.1403
   65MOL   O18623354   5.537   0.161   6.594 -0.3934  0.8828 -0.0545
   65MOL   C18723355   5.502   0.222   6.717 -0.0310 -0.4169 -0.1935
   65MOL   C18823356   5.365   0.292   6.709  0.3265 -0.2437 -0.1815
   65MOL   C18923357   5.329   0.388   6.815 -0.1036 -1.4173 -0.3522
   65MOL   H19023358   5.724   0.059   6.317 -0.1884  2.0378  1.7313
   65MOL   H19123359   5.745   0.046   6.473  0.9730 -2.9753  2.1860
   65MOL   H19223360   5.483   7.799   6.377  0.3441 -0.0334  1.0757
   65MOL   H19323361   5.513   0.152   6.799  0.8475  1.2464  1.1478
   65MOL   H19423362   5.583   0.292   6.740  0.5268 -1.8520  2.4514
   65MOL   H19523363   5.370   0.348   6.615  1.9072  1.4904  0.8932
   65MOL   H19623364   5.288   0.215   6.699  2.1103 -2.1093  0.1847
   65MOL   H19723365   5.402   0.467   6.834  0.0557 -0.4294 -4.6169
   65MOL   H19823366   5.300   0.340   6.909  1.2407 -2.2443 -0.3533
   65MOL   H19923367   5.234   0.439   6.796  0.4381  0.1726  1.0181
   65MOL   C20023368   5.484   0.117   6.287 -0.6978 -0.2294  0.4713
   65MOL   C20123369   5.333   0.130   6.270 -0.4573  0.0030 -0.8773
   65MOL   C20223370   5.276   0.273   6.305  0.0005 -0.1031  0.1731
   65MOL   O20323371   5.212   0.292   6.407  0.3487  0.9415  0.6711
   65MOL   O20423372   5.311   0.365   6.222  0.7750 -0.3104 -0.4657
   65MOL   C20523373   5.256   0.497   6.215  0.0638  0.1591 -0.3480
   65MOL   C20623374   5.111   0.496   6.160 -0.5783  0.3871 -0.5314
   65MOL   C20723375   5.117   0.449   6.013  0.2263 -0.0797 -0.1392
   65MOL   H20823376   5.526   0.081   6.193 -4.0663 -0.0075 -1.2232
   65MOL   H20923377   5.528   0.212   6.317 -0.6497  0.8767 -2.8848
   65MOL   H21023378   5.293   0.068   6.349 -0.0844  0.6823 -0.1502
   65MOL   H21123379   5.264   0.542   6.314 -0.3650  0.1302 -0.2952
   65MOL   H21223380   5.321   0.553   6.148  0.8695 -0.3157  0.0319
   65MOL   H21323381   5.058   0.431   6.229  1.9556  0.2457  1.3725
   65MOL   H21423382   5.077   0.599   6.176  2.2661  1.5744 -1.7619
   65MOL   H21523383   5.179   0.509   5.946 -0.9030  0.2573 -0.8896
   65MOL   H21623384   5.018   0.454   5.967  1.1274  1.5588 -1.9703
   65MOL   H21723385   5.129   0.341   6.016 -1.6594 -0.2733  0.9663
   65MOL   C21823386   5.266   0.093   6.136 -0.7738  0.0460 -0.4180
   65MOL   C21923387   5.117   0.060   6.145 -0.8873  0.2069  0.1789
   65MOL   C22023388   5.050   0.048   6.008  0.3957  0.0811  0.3812
   65MOL   O22123389   5.116   0.029   5.905  0.0251 -0.0354  0.0888
   65MOL   O22223390   4.914   0.060   6.016 -0.6500  0.2338 -0.2122
   65MOL   C22323391   4.839   0.032   5.901 -0.3308 -0.2651  0.0093
   65MOL   C22423392   4.777   0.164   5.849  0.3661  0.3574  0.6314
   65MOL   C22523393   4.700   0.239   5.960  0.2894 -0.5268  0.1581
   65MOL   H22623394   5.318   0.004   6.100 -0.3530 -0.0441  0.4016
   65MOL   H22723395   5.278   0.172   6.061  0.6462  1.9215  1.7175
   65MOL   H22823396   5.070   0.149   6.188  1.9762  1.6848  0.3554
   65MOL   H22923397   4.896   7.861   5.823 -0.9187 -1.7740  0.5487
   65MOL   H23023398   4.756   7.844   5.922 -0.4971  0.1622  0.7552
   65MOL   H23123399   4.852   0.223   5.797 -1.1782  2.3264  0.5469
   65MOL   H23223400   4.706   0.125   5.776 -0.5191  1.6287  0.7925
   65MOL   H23323401   4.622   0.307   5.926  0.5539  0.3086  1.2151
   65MOL   H23423402   4.767   0.281   6.035 -1.0900 -2.3261  2.4265
   65MOL   H23523403   4.647   0.171   6.026 -0.9768  0.5256  0.2235
   65MOL   C23623404   5.097   7.813   6.231 -0.8962  0.0484 -0.0215
   65MOL   C23723405   4.964   7.807   6.306 -0.6357 -0.3893  0.4440
   65MOL   C23823406   4.895   7.666   6.312 -0.4913 -0.3381 -0.0295
   65MOL   O23923407   4.884   7.600   6.417  0.0448 -0.6007 -0.4046
   65MOL   O24023408   4.839   7.628   6.186 -0.0750 -0.1142 -0.5844
   65MOL   C24123409   4.757   7.512   6.185  0.1589 -0.2657 -0.1620
   65MOL   C24223410   4.650   7.534   6.073  0.0504  0.3323  0.0827
   65MOL   C24323411   4.569   7.670   6.090 -0.2912 -0.2326  0.3674
   65MOL   H24423412   5.177   7.797   6.304  1.1165  0.5310 -2.0690
   65MOL   H24523413   5.101   7.730   6.161 -0.7399  1.9476 -2.3112
   65MOL   H24623414   4.901   7.868   6.240  0.1834 -1.5793 -1.4766
   65MOL   H24723415   4.825   7.429   6.163 -1.0974 -1.1451 -0.7840
   65MOL   H24823416   4.723   7.484   6.284  0.6317  0.9563  0.3619
   65MOL   H24923417   4.700   7.547   5.977 -0.5473  1.1143 -0.1354
   65MOL   H25023418   4.575   7.456   6.067 -2.2077  2.3723  0.7889
   65MOL   H25123419   4.543   7.693   5.986  0.7913  1.3972  0.4325
   65MOL   H25223420   4.620   7.761   6.120  0.8017 -0.6627 -0.1330
   65MOL   H25323421   4.476   7.664   6.147 -0.7528 -0.3658 -0.3922
   65MOL   C25423422   4.984   7.878   6.443  0.3036 -0.1740 -0.8845
   65MOL   C25523423   4.896   0.122   6.463  0.2215 -0.0613  0.1958
   65MOL   C25623424   4.748   0.076   6.452  0.3494  0.4298 -0.1334
   65MOL   O25723425   4.698   7.877   6.531  0.3173 -0.1640  0.4870
   65MOL   O25823426   4.680   0.138   6.355 -0.3508 -0.0053  0.4503
   65MOL   C25923427   4.540   0.108   6.333 -0.0877 -0.7718  0.0255
   65MOL   C26023428   4.460   0.223   6.270  0.0197  0.5942  0.1484
   65MOL   C26123429   4.314   0.197   6.234 -0.1675  0.0550  0.4462
   65MOL   H26223430   5.085   0.038   6.447  0.7181 -1.3987  2.3377
   65MOL   H26323431   4.957   7.804   6.518  0.3340 -1.5708 -2.2170
   65MOL   H26423432   4.920   0.198   6.390 -1.0351  0.7334  0.5945
   65MOL   H26523433   4.523   0.022   6.268 -1.6715  1.3754 -2.5050
   65MOL   H26623434   4.495   0.093   6.431  0.9503 -1.0564  0.4683
   65MOL   H26723435   4.452   0.316   6.328  0.0991 -1.1539  3.0702
   65MOL   H26823436   4.515   0.246   6.179  2.0078 -1.1670  0.8421
   65MOL   H26923437   4.283   0.098   6.201 -0.3569  0.5440 -0.8454
   65MOL   H27023438   4.293   0.257   6.146 -1.8337  0.3206  1.0183
   65MOL   H27123439   4.240   0.235   6.304 -2.4098  0.0779 -1.8710
   65MOL   C27223440   4.928   0.170   6.604 -0.6304 -0.4906  0.3342
   65MOL   C27323441   4.857   0.301   6.646  0.5146 -0.0048 -0.1991
   65MOL   C27423442   4.855   0.325   6.794  0.0210  0.5455  0.1322
   65MOL   O27523443   4.752   0.347   6.858 -0.3847 -0.1808  0.0938
   65MOL   O27623444   4.977   0.300   6.845  0.1747  0.2351 -0.2362
   65MOL   C27723445   5.008   0.288   6.980 -0.3442  0.5930 -0.0447
   65MOL   C27823446   4.940   0.168   7.045 -0.1424 -0.2449 -0.2678
   65MOL   C27923447   4.996   0.034   6.998  0.2558  0.1676 -0.4531
   65MOL   H28023448   5.035   0.180   6.624 -1.1166 -1.3401  3.6156
   65MOL   H28123449   4.892   0.095   6.675 -0.6479 -1.0827 -0.2943
   65MOL   H28223450   4.753   0.298   6.615  0.4722  1.5674 -0.2434
   65MOL   H28323451   5.117   0.281   6.985 -0.4438  0.0509  2.0072
   65MOL   H28423452   4.993   0.382   7.033 -0.7235 -0.5184  1.9090
   65MOL   H28523453   4.977   0.174   7.147 -0.3482 -0.6173 -0.1691
   65MOL   H28623454   4.831   0.173   7.043 -0.2825 -0.7112  2.8197
   65MOL   H28723455   4.989   0.013   6.891 -0.7160 -0.0956 -0.3443
   65MOL   H28823456   4.947   7.839   7.060 -0.0535  3.0839  3.0238
   65MOL   H28923457   5.103   0.025   7.017  0.0305 -0.8933  0.3364
   65MOL   C29023458   4.933   0.422   6.577 -0.5708  0.0232 -0.2074
   65MOL   C29123459   4.854   0.557   6.568 -0.1058  0.4758 -0.3705
   65MOL   C29223460   4.949   0.676   6.550  0.0936  0.0950  1.0736
   65MOL   O29323461   4.937   0.752   6.456 -0.0709  0.2175  0.3872
   65MOL   O29423462   5.043   0.678   6.648  0.2244 -0.0213  0.1571
   65MOL   C29523463   5.147   0.780   6.639 -0.5468  0.8565  0.5017
   65MOL   C29623464   5.234   0.780   6.767 -0.1150  0.1154  0.2045
   65MOL   C29723465   5.158   0.753   6.894  0.3944 -1.1023  0.0250
   65MOL   H29823466   4.964   0.399   6.476  2.3652  1.8171  0.2189
   65MOL   H29923467   5.027   0.443   6.629 -0.7507 -0.2771  0.2395
   65MOL   H30023468   4.796   0.571   6.659 -0.4401 -0.7795 -0.3852
   65MOL   H30123469   5.204   0.757   6.549  0.3970 -0.2930  1.3639
   65MOL   H30223470   5.095   0.875   6.629 -1.4600  0.4616  1.4175
   65MOL   H30323471   5.307   0.700   6.755  0.9714  1.3824 -2.0023
   65MOL   H30423472   5.282   0.878   6.767 -0.7731  0.4553 -1.2588
   65MOL   H30523473   5.218   0.785   6.979 -0.5038  0.6108  0.0366
   65MOL   H30623474   5.141   0.646   6.907  1.1509 -1.2603 -0.2826
   65MOL   H30723475   5.067   0.812   6.896  0.5065 -0.9570  1.2604
   65MOL   C30823476   4.746   0.535   6.452 -0.2173  0.2769 -0.3055
   65MOL   C30923477   4.654   0.650   6.419 -0.6282 -0.3266  0.5733
   65MOL   C31023478   4.603   0.638   6.278 -0.0638 -0.0874 -0.3369
   65MOL   O31123479   4.491   0.584   6.252 -0.3746 -0.3327 -0.3325
   65MOL   O31223480   4.691   0.674   6.181 -0.1824 -0.2495 -0.5778
   65MOL   C31323481   4.662   0.646   6.041  0.0936 -0.0031 -0.5270
   65MOL   C31423482   4.779   0.696   5.957  0.0495  0.3515 -0.6494
   65MOL   C31523483   4.770   0.647   5.811  0.2349  0.4719 -0.6164
   65MOL   H31623484   4.678   0.450   6.458 -0.7037  0.6338 -0.8128
   65MOL   H31723485   4.809   0.517   6.365 -1.7613 -0.2012 -1.3347
   65MOL   H31823486   4.709   0.744   6.411  1.9094 -1.6855  1.6198
   65MOL   H31923487   4.644   0.540   6.022  1.3949  0.1054 -2.4885
   65MOL   H32023488   4.569   0.694   6.012  1.1800  1.3501 -1.8835
   65MOL   H32123489   4.792   0.804   5.966  1.2481  0.0834  1.0328
   65MOL   H32223490   4.869   0.658   6.003  1.2096  1.6626 -1.7817
   65MOL   H32323491   4.671   0.659   5.768 -0.6109  0.7865  1.3635
   65MOL   H32423492   4.850   0.683   5.746  0.3341  2.0610  0.3504
   65MOL   H32523493   4.776   0.539   5.820 -1.7151  0.6041  3.1646
   65MOL   C32623494   4.536   0.653   6.528  0.7713 -0.2880  0.1375
   65MOL   C32723495   4.443   0.777   6.530 -0.2281  0.2009 -0.4320
   65MOL   C32823496   4.298   0.745   6.580 -0.4562 -0.0719  0.3276
   65MOL   O32923497   4.252   0.795   6.682  0.6264  0.2411  0.1399
   65MOL   O33023498   4.248   0.656   6.502  0.4551 -0.2150  0.3201
   65MOL   C33123499   4.130   0.582   6.531  0.5113  0.0652 -0.5386
   65MOL   C33223500   4.076   0.496   6.421 -0.1956 -0.1809 -0.0769
   65MOL   C33323501   3.968   0.401   6.477  0.3903  0.4373 -0.6729
   65MOL   H33423502   4.574   0.642   6.629 -0.8252 -0.2047  0.7715
   65MOL   H33523503   4.468   0.570   6.507  0.4110 -0.1331  0.6888
   65MOL   H33623504   4.424   0.802   6.426  0.3976  0.0044 -0.5969
   65MOL   H33723505   4.141   0.525   6.623  0.6267  3.1101  1.3928
   65MOL   H33823506   4.062   0.661   6.562 -0.8072 -0.7944 -1.2200
   65MOL   H33923507   4.018   0.561   6.355 -1.2448  0.1555  1.1477
   65MOL   H34023508   4.152   0.451   6.358  3.3500  3.3540  1.4609
   65MOL   H34123509   3.892   0.460   6.526 -0.4819 -1.3796  0.2146
   65MOL   H34223510   3.924   0.349   6.392  0.6544  2.0687 -1.8097
   65MOL   H34323511   4.005   0.319   6.540 -1.2905  0.0192 -0.2141
   65MOL   C34423512   4.504   0.891   6.603  0.7669 -0.1883  0.1035
   65MOL   C34523513   4.437   1.034   6.598  0.4612  0.0718 -0.1175
   65MOL   C34623514   4.500   1.129   6.703  0.0401 -0.1511  0.4772
   65MOL   O34723515   4.572   1.092   6.794 -0.3078 -0.3924  0.0525
   65MOL   O34823516   4.474   1.260   6.691 -0.3077 -0.4757  0.0307
   65MOL   C34923517   4.498   1.348   6.799  0.3480 -0.1198  0.3026
   65MOL   C35023518   4.370   1.427   6.826 -0.0187 -0.2890  0.5213
   65MOL   C35123519   4.243   1.339   6.838 -0.4357  0.5471  0.3803
   65MOL   H35223520   4.600   0.907   6.553  0.4935  0.5146 -0.2051
   65MOL   H35323521   4.518   0.857   6.705 -1.7058  0.6036  0.7412
   65MOL   H35423522   4.335   1.012   6.630 -0.1773  0.6332 -1.7262
   65MOL   H35523523   4.515   1.293   6.892 -0.6993  0.2517  0.7258
   65MOL   H35623524   4.581   1.415   6.776  1.2777 -1.5454 -0.6311
   65MOL   H35723525   4.384   1.471   6.925 -0.2367  0.3560  0.2712
   65MOL   H35823526   4.355   1.504   6.750 -0.3566  1.7108  2.5591
   65MOL   H35923527   4.151   1.394   6.860 -1.3750 -0.1883 -1.4968
   65MOL   H36023528   4.230   1.284   6.744 -2.2787  1.6128 -0.0226
   65MOL   H36123529   4.247   1.260   6.913 -0.9464  0.1735  0.0283
   65MOL   H36223530   4.441   1.071   6.496  1.0334  1.5196  0.4221
   66MOL     C123531   3.688   1.145   1.802 -0.4640 -0.3139 -0.2158
   66MOL     C223532   3.772   1.194   1.923 -0.5479  0.5016 -0.1943
   66MOL     C323533   3.723   1.120   2.050 -0.2352  1.0788  0.1856
   66MOL     O423534   3.646   1.169   2.130  0.1444 -0.4798  0.0477
   66MOL     O523535   3.773   0.994   2.053  0.3691  0.3447  0.4403
   66MOL     C623536   3.729   0.898   2.151  0.1302  0.6695 -0.2463
   66MOL     C723537   3.762   0.932   2.294  0.1730  0.5038  0.5000
   66MOL     C823538   3.905   0.963   2.327 -0.8412  0.5947  0.0804
   66MOL     H923539   3.645   1.222   1.737  0.8887  0.2632 -0.4363
   66MOL    H1023540   3.753   1.094   1.731 -0.5879 -0.3640 -0.2934
   66MOL    H1123541   3.738   1.296   1.937  0.4107  0.7486  0.4089
   66MOL    H1223542   3.621   0.890   2.144  0.2451 -0.6760 -0.4892
   66MOL    H1323543   3.778   0.804   2.126  0.7648  1.2523 -1.2688
   66MOL    H1423544   3.697   1.010   2.334 -0.2775 -0.2138  1.1690
   66MOL    H1523545   3.722   0.854   2.359 -0.6058 -2.6957 -3.6785
   66MOL    H1623546   3.915   1.015   2.422  0.1351 -1.8314  1.3650
   66MOL    H1723547   3.977   0.881   2.326 -0.2456  1.1040  0.6119
   66MOL    H1823548   3.938   1.028   2.246 -1.2223  0.6527 -0.0280
   66MOL    H1923549   3.599   1.087   1.827 -0.4421 -0.2464  0.0169
   66MOL    C2023550   3.928   1.189   1.893  0.1060  0.0293 -0.1982
   66MOL    C2123551   4.010   1.242   2.016 -0.3284 -0.8877 -0.7804
   66MOL    C2223552   4.125   1.155   2.053  0.6531 -0.5118 -0.6240
   66MOL    O2323553   4.159   1.063   1.981  0.2779  0.2431  0.5144
   66MOL    O2423554   4.190   1.192   2.163  0.7767  0.2042  0.4627
   66MOL    C2523555   4.302   1.122   2.213  0.7247  0.0250  0.8319
   66MOL    C2623556   4.284   1.022   2.323  0.3620  0.2327 -0.2370
   66MOL    C2723557   4.220   1.075   2.448  1.0452  0.1126 -0.0405
   66MOL    H2823558   3.958   1.248   1.806  2.9023 -1.9430 -0.6344
   66MOL    H2923559   3.956   1.084   1.880  1.4343  0.4231 -0.6643
   66MOL    H3023560   3.946   1.227   2.102 -0.5448 -0.0973 -0.8040
   66MOL    H3123561   4.359   1.082   2.129 -0.8454 -1.0803  0.2648
   66MOL    H3223562   4.350   1.217   2.236  0.5280 -0.0203  1.4261
   66MOL    H3323563   4.236   0.936   2.275 -0.2635  0.9646 -0.9398
   66MOL    H3423564   4.387   0.991   2.341  1.6079  3.5284 -1.3460
   66MOL    H3523565   4.129   1.130   2.425 -0.4126 -2.5731 -0.8458
   66MOL    H3623566   4.293   1.142   2.494  0.3599 -0.5893  2.0985
   66MOL    H3723567   4.196   0.991   2.513 -0.2863  0.6594  0.1749
   66MOL    C3823568   4.053   1.390   2.009 -0.1369  0.5156 -0.0563
   66MOL    C3923569   3.945   1.469   2.084  0.7317 -0.3757 -0.7353
   66MOL    C4023570   3.946   1.473   2.241 -0.6399 -0.2331 -0.2526
   66MOL    O4123571   4.046   1.516   2.301  0.1891 -0.4164 -0.2657
   66MOL    O4223572   3.830   1.438   2.294 -0.6676 -0.3600  1.0250
   66MOL    C4323573   3.812   1.467   2.432 -0.2098  0.4927  0.9460
   66MOL    C4423574   3.670   1.435   2.470  0.2101  0.3019 -0.2953
   66MOL    C4523575   3.637   1.288   2.451  0.1524 -0.8120 -0.4244
   66MOL    H4623576   4.066   1.430   1.909  1.7770 -0.4710 -0.2360
   66MOL    H4723577   4.150   1.403   2.059 -0.9458  1.1625  1.3769
   66MOL    H4823578   3.848   1.422   2.065 -0.3430  0.7486  1.7947
   66MOL    H4923579   3.877   1.415   2.502 -0.7341  0.3772  1.3469
   66MOL    H5023580   3.828   1.574   2.448 -1.7349  0.8991 -0.1517
   66MOL    H5123581   3.652   1.451   2.577 -1.0185 -0.5584 -0.3564
   66MOL    H5223582   3.607   1.493   2.403  0.4239  1.8232  0.8007
   66MOL    H5323583   3.654   1.261   2.347  1.3791 -1.3922 -0.0863
   66MOL    H5423584   3.534   1.260   2.473  0.4916 -0.5965  1.4746
   66MOL    H5523585   3.699   1.214   2.501  1.6159  0.8459  0.2570
   66MOL    C5623586   3.911   1.608   2.031  0.4041  0.3710 -0.0058
   66MOL    C5723587   3.792   1.618   1.926  0.6373  0.5207 -0.1937
   66MOL    C5823588   3.831   1.560   1.787  0.1795 -0.7068 -0.1888
   66MOL    O5923589   3.768   1.471   1.726  0.5357 -0.5154 -0.7984
   66MOL    O6023590   3.953   1.615   1.746  0.0329  0.1264 -0.7702
   66MOL    C6123591   3.987   1.581   1.614  0.3851  0.6863 -0.2365
   66MOL    C6223592   4.095   1.668   1.555  0.0058 -0.0139  0.2131
   66MOL    C6323593   4.059   1.817   1.539  0.1041 -0.1243  0.1113
   66MOL    H6423594   4.000   1.654   1.989  0.4794 -1.2434 -1.6979
   66MOL    H6523595   3.896   1.671   2.118  1.1443 -1.9552  1.8523
   66MOL    H6623596   3.781   1.726   1.916  2.2215  0.5276 -2.1442
   66MOL    H6723597   4.021   1.478   1.627  0.8306  0.7475 -0.9261
   66MOL    H6823598   3.905   1.580   1.542  0.3216  0.5604 -0.1639
   66MOL    H6923599   4.193   1.665   1.602  0.4652 -0.5020 -0.7690
   66MOL    H7023600   4.128   1.630   1.458  0.1464  1.5671 -0.3815
   66MOL    H7123601   3.998   1.824   1.449  2.4651 -1.4974 -1.6624
   66MOL    H7223602   4.142   1.887   1.529  2.6615 -3.0663  0.2683
   66MOL    H7323603   4.001   1.849   1.626  0.8540  1.4641  0.0538
   66MOL    C7423604   3.647   1.582   1.970 -0.1741  0.0816  0.0195
   66MOL    C7523605   3.590   1.650   2.097 -0.4452  0.1541  0.8654
   66MOL    C7623606   3.624   1.803   2.100  1.2483  0.3643 -0.2745
   66MOL    O7723607   3.689   1.848   2.192  0.0685  0.4840 -0.7126
   66MOL    O7823608   3.567   1.868   1.997 -0.2879 -0.2206 -0.1681
   66MOL    C7923609   3.585   2.009   1.986  0.0306 -0.5678 -0.7430
   66MOL    C8023610   3.601   2.039   1.837 -0.3213 -0.4350 -0.1788
   66MOL    C8123611   3.705   1.965   1.771 -0.3967 -0.3142 -0.3014
   66MOL    H8223612   3.639   1.474   1.982  2.1976 -0.0932  0.3111
   66MOL    H8323613   3.584   1.610   1.886 -2.7197 -0.3075  1.7476
   66MOL    H8423614   3.643   1.606   2.182  0.4164 -1.3929 -0.4346
   66MOL    H8523615   3.514   2.070   2.043  1.4864  0.9078 -0.4578
   66MOL    H8623616   3.675   2.045   2.036 -0.9011  0.0370  0.5550
   66MOL    H8723617   3.510   2.017   1.780 -0.2091 -0.9985 -0.1396
   66MOL    H8823618   3.628   2.144   1.829  0.1905 -0.4417  1.3872
   66MOL    H8923619   3.722   1.996   1.668  0.2020  1.4989  0.3203
   66MOL    H9023620   3.689   1.858   1.779  0.8803 -0.7870 -3.4373
   66MOL    H9123621   3.792   1.991   1.832  0.2197 -0.3078 -1.1835
   66MOL    C9223622   3.444   1.616   2.123  0.1615  0.0639 -0.0305
   66MOL    C9323623   3.373   1.662   2.255  0.4204  0.4503  0.2915
   66MOL    C9423624   3.293   1.795   2.229  0.2696 -0.3422  0.0182
   66MOL    O9523625   3.339   1.903   2.272  0.1512  0.2620  0.0420
   66MOL    O9623626   3.172   1.777   2.174 -0.7812 -0.3883  0.3013
   66MOL    C9723627   3.080   1.888   2.169 -0.5777 -0.4073 -0.0205
   66MOL    C9823628   3.097   1.972   2.041  0.2774 -0.0592 -0.2620
   66MOL    C9923629   3.014   2.102   2.044  0.7480  0.0885 -0.2821
   66MOL   H10023630   3.436   1.509   2.108 -0.3803  0.0575  0.2634
   66MOL   H10123631   3.384   1.643   2.036 -0.9611 -0.7210  0.4831
   66MOL   H10223632   3.449   1.695   2.325  0.7388  0.6313 -0.1316
   66MOL   H10323633   2.979   1.858   2.197 -1.1592  1.5167  0.0533
   66MOL   H10423634   3.102   1.962   2.246 -1.0541 -1.1346  0.8239
   66MOL   H10523635   3.201   2.000   2.029 -0.4878  1.8992 -2.8708
   66MOL   H10623636   3.056   1.921   1.953 -1.4657  1.6757 -0.5059
   66MOL   H10723637   2.912   2.096   2.082  0.9561 -2.3691 -0.0358
   66MOL   H10823638   3.011   2.159   1.951 -1.8293 -0.2872 -0.4568
   66MOL   H10923639   3.067   2.162   2.118 -0.7035  0.1690  0.7180
   66MOL   C11023640   3.300   1.548   2.328 -0.5089  0.6656 -0.2962
   66MOL   C11123641   3.200   1.591   2.445 -0.1145 -0.3919 -0.1891
   66MOL   C11223642   3.082   1.495   2.459 -0.4916  0.2868 -0.2505
   66MOL   O11323643   3.086   1.371   2.463  0.0637  0.1390  0.3111
   66MOL   O11423644   2.970   1.562   2.480  0.3356  0.0342 -0.5053
   66MOL   C11523645   2.849   1.493   2.466 -0.2044 -0.4583  0.0073
   66MOL   C11623646   2.733   1.602   2.451  0.3750 -0.0787 -0.2340
   66MOL   C11723647   2.722   1.705   2.561 -0.0952 -0.0553 -0.4817
   66MOL   H11823648   3.366   1.466   2.355 -0.9216  1.0923  2.0893
   66MOL   H11923649   3.242   1.501   2.248  1.7196 -0.5316 -1.2529
   66MOL   H12023650   3.162   1.684   2.404  1.8649  0.4139 -0.2245
   66MOL   H12123651   2.846   1.431   2.377  0.5759  0.2305 -0.5031
   66MOL   H12223652   2.820   1.424   2.545  0.2261 -1.2911 -0.5550
   66MOL   H12323653   2.734   1.655   2.356 -2.0715  1.5783  0.6268
   66MOL   H12423654   2.640   1.548   2.435  0.6745  0.0725 -2.5613
   66MOL   H12523655   2.824   1.739   2.573  0.4843 -0.8656 -2.8931
   66MOL   H12623656   2.692   1.655   2.654  1.1464 -0.5118 -0.3250
   66MOL   H12723657   2.661   1.792   2.536  0.6977  0.2426 -1.3944
   66MOL   C12823658   3.273   1.610   2.579 -0.2627 -0.4451 -0.3827
   66MOL   C12923659   3.318   1.760   2.603  0.4637  0.1049  0.5859
   66MOL   C13023660   3.201   1.847   2.639 -0.4400 -0.4513 -0.2416
   66MOL   O13123661   3.110   1.806   2.718 -0.3381 -0.3553  0.1971
   66MOL   O13223662   3.221   1.969   2.583  0.1911 -0.1966 -0.3397
   66MOL   C13323663   3.128   2.071   2.612  0.6322  0.2996 -0.2777
   66MOL   C13423664   3.191   2.207   2.640 -0.6446 -0.4125  0.6727
   66MOL   C13523665   3.096   2.314   2.694  0.2046  0.0492  0.2147
   66MOL   H13623666   3.368   1.558   2.573  0.4941  0.6660  1.7115
   66MOL   H13723667   3.230   1.576   2.673 -0.0116 -2.1320 -0.8622
   66MOL   H13823668   3.352   1.795   2.506  3.2970 -1.0049  1.1549
   66MOL   H13923669   3.052   2.083   2.535 -1.2274  0.8899  1.6183
   66MOL   H14023670   3.076   2.045   2.704  1.0388 -0.2382 -0.1941
   66MOL   H14123671   3.259   2.199   2.725 -1.0310 -1.2515  0.9166
   66MOL   H14223672   3.236   2.249   2.550  0.9027  0.6332  1.9111
   66MOL   H14323673   3.041   2.350   2.608 -0.7651 -1.2763  0.2645
   66MOL   H14423674   3.141   2.396   2.751 -0.5357  0.3190  0.4070
   66MOL   H14523675   3.024   2.269   2.762  0.1975 -1.9325 -1.0729
   66MOL   C14623676   3.429   1.793   2.703 -1.1080 -0.0400 -0.1880
   66MOL   C14723677   3.564   1.738   2.667  0.3859  0.5606 -0.9299
   66MOL   C14823678   3.628   1.814   2.553  0.3605  0.1628  0.6359
   66MOL   O14923679   3.670   1.754   2.450 -0.4614  0.5022  0.1410
   66MOL   O15023680   3.642   1.942   2.578  0.0777 -0.3914  0.3799
   66MOL   C15123681   3.660   2.031   2.474 -0.0229  0.3575 -0.1066
   66MOL   C15223682   3.682   2.168   2.531 -0.4334 -0.2041  0.3643
   66MOL   C15323683   3.563   2.215   2.624 -0.1268  0.1611 -0.3811
   66MOL   H15423684   3.399   1.757   2.801 -0.8242  1.0019  0.2885
   66MOL   H15523685   3.437   1.900   2.724  0.0098 -0.2011  0.2412
   66MOL   H15623686   3.553   1.640   2.620  0.7132  0.8599 -1.6276
   66MOL   H15723687   3.745   1.998   2.413 -1.1049  0.9897 -2.0149
   66MOL   H15823688   3.572   2.028   2.410  0.8237 -0.4182 -1.2642
   66MOL   H15923689   3.771   2.175   2.594  0.8706  0.3830 -1.4952
   66MOL   H16023690   3.692   2.253   2.463  2.0650  0.5694  1.6137
   66MOL   H16123691   3.582   2.316   2.659 -1.2085  0.4991 -0.7324
   66MOL   H16223692   3.553   2.152   2.712  3.9320  0.2613  0.2309
   66MOL   H16323693   3.467   2.218   2.572 -0.1588 -0.1078 -0.3384
   66MOL   C16423694   3.664   1.704   2.783  0.1493 -0.0857 -0.0211
   66MOL   C16523695   3.714   1.822   2.875  0.5840  0.2347  0.3719
   66MOL   C16623696   3.604   1.880   2.971 -0.4884  0.0922  0.6198
   66MOL   O16723697   3.587   1.998   2.988  0.0301 -0.4795 -0.4779
   66MOL   O16823698   3.537   1.789   3.027  0.1255 -0.0827 -0.4844
   66MOL   C16923699   3.447   1.818   3.133  0.1476 -0.2571 -0.6970
   66MOL   C17023700   3.446   1.690   3.226  0.2903  0.2490  0.4298
   66MOL   C17123701   3.581   1.658   3.294 -0.7899  0.6973  0.2835
   66MOL   H17223702   3.747   1.662   2.726  0.0103 -0.6146  0.1685
   66MOL   H17323703   3.621   1.630   2.850 -1.0348  0.1045 -0.5495
   66MOL   H17423704   3.743   1.907   2.813 -0.6725  0.8904  0.6475
   66MOL   H17523705   3.459   1.910   3.190 -2.6676 -2.4944  3.8571
   66MOL   H17623706   3.351   1.815   3.080 -1.1661 -1.5785  1.6627
   66MOL   H17723707   3.376   1.714   3.305  0.7141  0.2504  0.8075
   66MOL   H17823708   3.405   1.600   3.181  0.0448  0.9513 -0.7735
   66MOL   H17923709   3.576   1.562   3.343  0.4283  0.9791  0.9706
   66MOL   H18023710   3.607   1.728   3.374  0.5776 -1.1681  1.4863
   66MOL   H18123711   3.665   1.659   3.224 -0.1437 -2.8001  0.9547
   66MOL   C18223712   3.833   1.759   2.954  0.0392  0.4352  0.0993
   66MOL   C18323713   3.897   1.859   3.063  0.0309 -0.3077  0.0998
   66MOL   C18423714   3.931   1.789   3.190 -0.3125  0.3308 -0.0013
   66MOL   O18523715   3.885   1.825   3.301  0.1427 -0.2272  0.7301
   66MOL   O18623716   4.026   1.699   3.170 -0.2569 -0.4741  0.4298
   66MOL   C18723717   4.064   1.612   3.275 -0.4099 -0.7723 -0.1237
   66MOL   C18823718   4.007   1.464   3.262  0.5407 -0.5946  0.0605
   66MOL   C18923719   4.084   1.407   3.142  0.5154  0.4706 -0.1360
   66MOL   H19023720   3.909   1.713   2.892 -0.1321  1.5107 -0.9322
   66MOL   H19123721   3.784   1.683   3.015  1.3689 -0.0487  0.5692
   66MOL   H19223722   3.820   1.932   3.090 -0.9606 -1.0849 -0.5670
   66MOL   H19323723   4.173   1.605   3.280 -0.5070 -1.7014  0.6358
   66MOL   H19423724   4.011   1.650   3.362 -0.4600 -2.5944  0.6612
   66MOL   H19523725   4.026   1.398   3.346  0.4965  0.3647  0.8297
   66MOL   H19623726   3.901   1.451   3.238 -0.1026  2.0249  1.2786
   66MOL   H19723727   4.092   1.463   3.049  1.8296  1.4191  0.5324
   66MOL   H19823728   4.047   1.306   3.121 -0.9186  0.5867  1.6643
   66MOL   H19923729   4.189   1.398   3.170  0.2085  0.4293  1.0493
   66MOL   C20023730   4.021   1.932   3.012  0.7039  0.4837  1.1190
   66MOL   C20123731   4.067   2.048   3.102 -0.0225 -0.0450  0.1349
   66MOL   C20223732   4.190   2.112   3.050 -0.3692 -0.2341  0.3704
   66MOL   O20323733   4.295   2.086   3.105 -0.2735 -0.5259  0.3168
   66MOL   O20423734   4.163   2.181   2.930 -0.3643 -0.7037 -0.6464
   66MOL   C20523735   4.267   2.253   2.876  0.2364 -0.0316 -0.1389
   66MOL   C20623736   4.346   2.160   2.774  0.5572 -0.2135  0.7390
   66MOL   C20723737   4.273   2.116   2.650  0.2853 -0.3143 -0.0788
   66MOL   H20823738   3.999   1.982   2.918 -0.5584  1.3621  1.8754
   66MOL   H20923739   4.102   1.865   2.983 -1.4476 -1.6558 -0.1801
   66MOL   H21023740   4.087   2.003   3.199 -0.7112 -1.9335 -0.5625
   66MOL   H21123741   4.232   2.341   2.822 -0.3022 -0.6039 -0.7434
   66MOL   H21223742   4.328   2.295   2.956  0.6740 -1.2301  0.1781
   66MOL   H21323743   4.424   2.228   2.743 -1.3595  2.2477  1.1407
   66MOL   H21423744   4.399   2.085   2.834 -0.6438 -1.2150  0.5852
   66MOL   H21523745   4.196   2.041   2.669  0.5232 -0.6429 -0.4121
   66MOL   H21623746   4.347   2.076   2.582  0.0544 -0.2550 -0.3650
   66MOL   H21723747   4.233   2.199   2.591 -1.5424  0.4150  2.0859
   66MOL   C21823748   3.957   2.156   3.113  0.0426 -0.0277  0.0191
   66MOL   C21923749   3.987   2.273   3.210 -0.5042 -0.2551  0.4039
   66MOL   C22023750   3.883   2.385   3.201 -0.0157  0.3375  0.3157
   66MOL   O22123751   3.914   2.497   3.157  0.1508 -0.1771 -0.6493
   66MOL   O22223752   3.758   2.360   3.249 -0.2722 -0.0375  0.0902
   66MOL   C22323753   3.660   2.456   3.249 -1.1064  0.0925 -0.2258
   66MOL   C22423754   3.573   2.444   3.122 -1.1494  0.1515 -0.2189
   66MOL   C22523755   3.514   2.305   3.103  0.7869  0.8683 -0.5633
   66MOL   H22623756   3.870   2.107   3.157  0.5158 -0.7779  0.1128
   66MOL   H22723757   3.943   2.195   3.012  0.8630 -2.9590 -1.2541
   66MOL   H22823758   4.079   2.325   3.182 -0.2289  0.7972  3.1199
   66MOL   H22923759   3.590   2.436   3.330 -1.6545  2.9483  0.0613
   66MOL   H23023760   3.703   2.556   3.258  0.3989 -0.3619 -2.1269
   66MOL   H23123761   3.492   2.516   3.136 -0.0094  1.5438 -0.7499
   66MOL   H23223762   3.618   2.470   3.026  1.7703 -1.7828  0.5642
   66MOL   H23323763   3.464   2.268   3.193  1.2129 -0.1131 -0.7211
   66MOL   H23423764   3.600   2.244   3.075  0.5697  0.5197 -0.4885
   66MOL   H23523765   3.436   2.310   3.027  1.2671  0.0432 -1.1250
   66MOL   C23623766   4.031   2.229   3.355  0.4644 -0.8762 -0.4317
   66MOL   C23723767   4.063   2.338   3.461  0.6399 -0.4483  0.9618
   66MOL   C23823768   4.008   2.303   3.600 -0.1539  0.2709  0.6657
   66MOL   O23923769   3.924   2.378   3.646 -0.1317  0.0410 -0.0994
   66MOL   O24023770   4.060   2.192   3.658 -0.1657 -0.1798  0.0974
   66MOL   C24123771   4.027   2.154   3.798  0.3191  0.6628  0.0900
   66MOL   C24223772   4.114   2.035   3.843 -0.5466 -0.0409  0.3498
   66MOL   C24323773   4.078   1.907   3.755 -0.1956 -0.1122  0.2342
   66MOL   H24423774   4.111   2.155   3.349  0.3660 -0.9184 -1.2307
   66MOL   H24523775   3.946   2.184   3.406  0.1166  0.4922  0.2280
   66MOL   H24623776   4.007   2.427   3.431  0.7760 -0.4646  0.6586
   66MOL   H24723777   4.039   2.234   3.871 -0.8981 -0.5737  1.6805
   66MOL   H24823778   3.926   2.117   3.816 -0.2216  2.2196  0.3851
   66MOL   H24923779   4.221   2.055   3.852 -0.6100  0.6391 -0.3111
   66MOL   H25023780   4.088   2.009   3.945 -1.0372  0.4379  0.3523
   66MOL   H25123781   4.171   1.852   3.765  0.0924  0.2504 -0.4417
   66MOL   H25223782   4.063   1.918   3.647 -1.6899  0.7340  0.5057
   66MOL   H25323783   3.991   1.856   3.795 -1.3104 -0.8340 -2.9267
   66MOL   C25423784   4.216   2.364   3.475 -0.1103 -0.0990 -0.1651
   66MOL   C25523785   4.308   2.388   3.348  0.0298  0.3483 -0.4133
   66MOL   C25623786   4.262   2.500   3.253 -0.3575 -0.3963 -0.3557
   66MOL   O25723787   4.220   2.482   3.134  0.9581  0.0928 -0.4965
   66MOL   O25823788   4.271   2.625   3.312  0.6799  1.0928  0.2227
   66MOL   C25923789   4.186   2.721   3.258 -0.3584  0.4832 -0.4875
   66MOL   C26023790   4.092   2.783   3.364 -0.4818 -0.2047 -1.1122
   66MOL   C26123791   4.001   2.693   3.440  0.2535 -0.1077  0.2045
   66MOL   H26223792   4.262   2.286   3.536  1.1930  1.2756  0.6614
   66MOL   H26323793   4.227   2.455   3.534  0.3271  0.1574 -0.6343
   66MOL   H26423794   4.306   2.305   3.278 -2.8103 -1.4732  1.6902
   66MOL   H26523795   4.255   2.787   3.207  0.1703  0.6271  0.4089
   66MOL   H26623796   4.114   2.693   3.180 -0.3034  0.2298 -0.4458
   66MOL   H26723797   4.161   2.816   3.442 -1.6623 -0.6925  0.1394
   66MOL   H26823798   4.037   2.863   3.315 -0.3876  1.4129  1.3696
   66MOL   H26923799   4.058   2.623   3.501  0.8352 -0.5637 -0.8534
   66MOL   H27023800   3.948   2.634   3.365  1.3226 -1.6706  0.6506
   66MOL   H27123801   3.925   2.736   3.505 -2.3300 -2.3003 -1.2574
   66MOL   C27223802   4.457   2.407   3.388 -0.6990 -0.5225 -0.2135
   66MOL   C27323803   4.511   2.271   3.450 -1.2177 -0.0543  0.2331
   66MOL   C27423804   4.625   2.213   3.363  0.5470 -0.0261 -0.5792
   66MOL   O27523805   4.623   2.093   3.342 -0.4243 -0.7689  0.2040
   66MOL   O27623806   4.725   2.305   3.338  0.4603  0.4173  0.0702
   66MOL   C27723807   4.858   2.272   3.300 -0.0210  0.5475 -0.0877
   66MOL   C27823808   4.954   2.269   3.422 -0.0535  0.8556 -0.7356
   66MOL   C27923809   4.969   2.404   3.491  0.2298 -0.6413 -0.3923
   66MOL   H28023810   4.468   2.491   3.457  0.9373 -0.5411 -0.4388
   66MOL   H28123811   4.520   2.425   3.301  0.5346 -1.8345  0.3779
   66MOL   H28223812   4.441   2.190   3.468 -1.1241 -0.6346 -1.9137
   66MOL   H28323813   4.856   2.184   3.235 -0.7685  1.4897 -1.3769
   66MOL   H28423814   4.895   2.351   3.235  0.5524 -0.9749 -1.6716
   66MOL   H28523815   4.916   2.192   3.489 -1.9029  1.3034 -1.2672
   66MOL   H28623816   5.049   2.227   3.386  0.4334  0.2213  1.2526
   66MOL   H28723817   4.872   2.441   3.524  0.0104 -0.8798 -0.7644
   66MOL   H28823818   5.012   2.474   3.420 -2.0882  1.4162  0.1754
   66MOL   H28923819   5.039   2.397   3.575  0.9001 -1.9888 -1.0391
   66MOL   C29023820   4.576   2.314   3.582 -0.4019  0.8035 -0.6320
   66MOL   C29123821   4.635   2.202   3.676 -0.4159 -0.6763  0.0084
   66MOL   C29223822   4.722   2.272   3.783  0.6798  0.4297  0.4788
   66MOL   O29323823   4.709   2.391   3.811  0.1299  0.0037  0.5031
   66MOL   O29423824   4.809   2.192   3.837 -0.0318  1.1911 -0.4024
   66MOL   C29523825   4.898   2.236   3.952 -0.3770  0.1602  0.3018
   66MOL   C29623826   5.039   2.223   3.892  0.1642 -0.0989  0.2123
   66MOL   C29723827   5.069   2.083   3.836  0.5478  0.0954  0.2241
   66MOL   H29823828   4.504   2.364   3.646 -0.3567 -2.2432  1.9778
   66MOL   H29923829   4.653   2.388   3.564 -0.1382  0.9299  0.9419
   66MOL   H30023830   4.714   2.153   3.620  1.5444  0.4183  1.7459
   66MOL   H30123831   4.866   2.334   3.986  1.0182  0.9879 -0.6938
   66MOL   H30223832   4.883   2.179   4.044  0.2102  0.0801  0.3458
   66MOL   H30323833   5.081   2.298   3.825  2.1876 -0.6434  0.8114
   66MOL   H30423834   5.109   2.223   3.975  1.8916 -1.5613 -1.1851
   66MOL   H30523835   4.991   2.069   3.761 -0.6950  0.1259  1.4973
   66MOL   H30623836   5.034   2.009   3.908 -2.8764  1.0474 -0.3702
   66MOL   H30723837   5.170   2.056   3.803  0.4675  2.2427 -1.9240
   66MOL   C30823838   4.522   2.115   3.739 -0.3787  0.3048 -0.0207
   66MOL   C30923839   4.551   1.970   3.770  0.0817 -0.4071  0.0483
   66MOL   C31023840   4.580   1.871   3.653 -0.1339 -0.1485  0.5288
   66MOL   O31123841   4.687   1.801   3.645  0.2398 -0.4825 -0.0799
   66MOL   O31223842   4.485   1.875   3.563 -0.0942  0.0353 -0.4354
   66MOL   C31323843   4.501   1.798   3.446 -0.0166  0.1516 -0.0385
   66MOL   C31423844   4.373   1.800   3.365 -0.0147 -0.0240  0.1746
   66MOL   C31523845   4.393   1.733   3.236 -0.4586  0.5901  0.8681
   66MOL   H31623846   4.433   2.119   3.676 -1.0554  0.7354  0.9506
   66MOL   H31723847   4.495   2.167   3.831 -0.1191  1.2478 -0.4781
   66MOL   H31823848   4.450   1.934   3.791  0.0699 -0.8070 -0.6607
   66MOL   H31923849   4.586   1.842   3.394 -0.6812  0.6656 -0.7007
   66MOL   H32023850   4.515   1.694   3.477 -0.4894  0.2986  0.6689
   66MOL   H32123851   4.287   1.758   3.418 -0.9466  0.3842 -0.9812
   66MOL   H32223852   4.344   1.903   3.345 -0.7643 -0.2609  0.0199
   66MOL   H32323853   4.304   1.757   3.178  0.4735  0.0188 -0.8623
   66MOL   H32423854   4.471   1.772   3.170  2.2250 -2.0598  2.3860
   66MOL   H32523855   4.392   1.625   3.246 -0.3879  0.3203 -1.7279
   66MOL   C32623856   4.642   1.936   3.893  0.2909  0.4847  0.6179
   66MOL   C32723857   4.608   2.005   4.031 -0.5384 -0.1343  0.2654
   66MOL   C32823858   4.461   1.981   4.074  0.3979 -0.2567  0.4763
   66MOL   O32923859   4.381   2.077   4.087 -0.7008 -0.0765  0.7678
   66MOL   O33023860   4.433   1.856   4.104  0.5115  0.0728 -0.1088
   66MOL   C33123861   4.305   1.813   4.131 -0.2941  0.9461  0.3070
   66MOL   C33223862   4.260   1.691   4.050  0.3164 -0.1587 -0.3407
   66MOL   C33323863   4.118   1.653   4.076  0.4603  0.4627 -0.1669
   66MOL   H33423864   4.745   1.962   3.869 -0.5430  1.2779 -2.2173
   66MOL   H33523865   4.651   1.827   3.902 -1.8693  0.0543 -1.9430
   66MOL   H33623866   4.616   2.114   4.021 -0.7611 -0.1457 -0.0485
   66MOL   H33723867   4.304   1.766   4.229 -2.2251 -0.6813 -0.4737
   66MOL   H33823868   4.228   1.886   4.154  0.4115  2.1827 -1.1653
   66MOL   H33923869   4.267   1.710   3.943  0.8681  2.7219  0.1727
   66MOL   H34023870   4.327   1.605   4.045  2.1221  1.2759 -2.2168
   66MOL   H34123871   4.051   1.732   4.108  0.1999  0.0427  0.3442
   66MOL   H34223872   4.074   1.606   3.988  3.3239 -0.5301 -1.1171
   66MOL   H34323873   4.122   1.581   4.158 -1.4534 -0.2061 -0.6282
   66MOL   C34423874   4.716   1.950   4.131 -0.3194 -0.2418  0.5433
   66MOL   C34523875   4.713   1.995   4.278 -0.1872 -0.0444  0.0701
   66MOL   C34623876   4.744   2.141   4.290  0.3701 -0.1055  0.5894
   66MOL   O34723877   4.851   2.179   4.340  0.0224  0.3751 -0.0626
   66MOL   O34823878   4.656   2.218   4.228  0.1175 -0.1458 -0.0426
   66MOL   C34923879   4.677   2.360   4.223  0.3282 -0.0570 -0.5622
   66MOL   C35023880   4.538   2.415   4.189  0.4299  0.4566 -0.1828
   66MOL   C35123881   4.530   2.570   4.157 -0.0246  0.1269  0.1153
   66MOL   H35223882   4.815   1.970   4.091 -0.8678 -0.0734 -0.7581
   66MOL   H35323883   4.705   1.842   4.142 -1.3081 -0.3568 -1.4439
   66MOL   H35423884   4.795   1.950   4.333 -0.1140 -1.6809 -1.3328
   66MOL   H35523885   4.705   2.395   4.322  0.3164 -1.7193  0.0417
   66MOL   H35623886   4.751   2.381   4.146  1.9176  1.5337  1.3471
   66MOL   H35723887   4.526   2.353   4.100 -0.0538  0.8595 -0.3984
   66MOL   H35823888   4.471   2.390   4.271 -0.5151  4.5394  0.4231
   66MOL   H35923889   4.487   2.625   4.240  0.4252  4.3417 -2.3004
   66MOL   H36023890   4.630   2.611   4.140  0.0469  0.7481  1.9444
   66MOL   H36123891   4.477   2.590   4.064 -0.3683 -0.7257  0.1215
   66MOL   H36223892   4.628   1.958   4.337  0.6805 -2.0511  0.0932
   67MOL     C123893   7.393   2.028   3.969 -0.6859  1.0155  0.6799
   67MOL     C223894   7.264   2.087   4.025  0.1032 -0.4355  0.2538
   67MOL     C323895   7.168   2.130   3.911  0.1133 -0.3204  0.8508
   67MOL     O423896   7.078   2.060   3.870  0.3279 -0.9887 -0.6234
   67MOL     O523897   7.187   2.250   3.867 -0.0506 -0.2412  0.3372
   67MOL     C623898   7.120   2.304   3.754  0.3624 -0.1565 -0.0148
   67MOL     C723899   7.219   2.376   3.667 -0.0368  0.6297  0.1976
   67MOL     C823900   7.308   2.279   3.585  0.2089  0.0069 -0.2433
   67MOL     H923901   7.472   2.035   4.044 -1.5050 -1.8914  1.8774
   67MOL    H1023902   7.388   1.921   3.948  1.0076  0.9244  0.6669
   67MOL    H1123903   7.284   2.174   4.087 -0.6554 -0.4295  0.4956
   67MOL    H1223904   7.058   2.232   3.700 -2.8015  3.5293 -1.4892
   67MOL    H1323905   7.052   2.383   3.784 -0.0180 -0.4464 -0.0995
   67MOL    H1423906   7.154   2.427   3.596 -0.3769 -0.0077  0.0392
   67MOL    H1523907   7.272   2.451   3.725  0.0386 -0.0167  0.9748
   67MOL    H1623908   7.330   2.189   3.643  0.4740 -0.1427 -0.5763
   67MOL    H1723909   7.240   2.248   3.506  0.5673  1.4091 -1.1243
   67MOL    H1823910   7.401   2.325   3.553  1.2509 -1.5140  0.5530
   67MOL    H1923911   7.424   2.069   3.872  0.8666  2.2921  1.6806
   67MOL    C2023912   7.207   1.985   4.121 -0.2519 -0.0344 -0.1372
   67MOL    C2123913   7.285   1.972   4.255  0.5333  0.0786  0.8203
   67MOL    C2223914   7.253   2.084   4.352 -0.2112  0.3066  0.1245
   67MOL    O2323915   7.323   2.185   4.363  0.4236  0.2291 -0.2971
   67MOL    O2423916   7.135   2.065   4.419  0.0432 -0.0348  0.5750
   67MOL    C2523917   7.077   2.169   4.499 -0.3473 -0.3231  0.1602
   67MOL    C2623918   7.127   2.139   4.649 -0.0362 -0.6995 -0.1510
   67MOL    C2723919   7.048   2.021   4.717  0.5052 -0.6297 -0.2493
   67MOL    H2823920   7.204   1.890   4.068  2.6184 -0.4734  0.3822
   67MOL    H2923921   7.105   2.019   4.134 -0.5573 -0.8588 -0.3515
   67MOL    H3023922   7.392   1.977   4.236  0.2721 -0.0845 -0.8556
   67MOL    H3123923   7.098   2.274   4.479 -0.4311 -0.1972  0.7232
   67MOL    H3223924   6.969   2.157   4.501 -0.5927  1.7967 -0.1946
   67MOL    H3323925   7.232   2.113   4.658  0.0060 -0.0072  1.5097
   67MOL    H3423926   7.112   2.228   4.710  1.0662 -0.5730 -0.0508
   67MOL    H3523927   7.066   1.929   4.661  1.4524 -0.3711 -0.3614
   67MOL    H3623928   6.942   2.049   4.716  0.3179 -1.2886 -3.1344
   67MOL    H3723929   7.077   2.003   4.821 -3.3407  0.2346  1.0757
   67MOL    C3823930   7.265   1.828   4.313  0.4349 -0.0468 -0.2131
   67MOL    C3923931   7.336   1.791   4.448  0.1456  0.1102  0.8465
   67MOL    C4023932   7.242   1.690   4.516  0.6048 -0.6000 -1.2459
   67MOL    O4123933   7.192   1.718   4.624 -0.0149  1.1201 -0.2806
   67MOL    O4223934   7.231   1.572   4.451 -0.0179 -0.0681  0.1239
   67MOL    C4323935   7.130   1.484   4.491  0.7838 -0.7966  0.1257
   67MOL    C4423936   6.984   1.520   4.439  0.2715 -0.1580  0.3283
   67MOL    C4523937   6.853   1.448   4.494  0.1112  0.1938  0.8371
   67MOL    H4623938   7.283   1.753   4.236 -2.4469 -0.6109 -0.4144
   67MOL    H4723939   7.156   1.818   4.315  0.1219  3.0317  0.4716
   67MOL    H4823940   7.347   1.876   4.515 -1.2999 -0.4846  1.8583
   67MOL    H4923941   7.151   1.381   4.460 -1.3288 -0.8804 -1.1610
   67MOL    H5023942   7.131   1.488   4.600  2.3297 -1.4735  0.1440
   67MOL    H5123943   6.969   1.627   4.449  1.4270 -0.2132  3.2165
   67MOL    H5223944   6.979   1.503   4.331 -1.1824  3.7822 -0.2818
   67MOL    H5323945   6.847   1.341   4.472  1.4768 -0.0931  1.7910
   67MOL    H5423946   6.768   1.492   4.442  0.0603  0.9011  1.4993
   67MOL    H5523947   6.848   1.457   4.603  2.1311  4.4148  0.6856
   67MOL    C5623948   7.478   1.732   4.418 -0.2572  0.1463  0.6542
   67MOL    C5723949   7.600   1.829   4.425  0.0669  0.0141 -0.2282
   67MOL    C5823950   7.604   1.900   4.561  0.2053 -0.3816 -0.6008
   67MOL    O5923951   7.600   2.018   4.562 -0.7735  0.5114 -0.0766
   67MOL    O6023952   7.576   1.823   4.664 -0.5170 -0.3110  0.2163
   67MOL    C6123953   7.560   1.880   4.796  0.0784  0.0781 -0.3702
   67MOL    C6223954   7.410   1.876   4.829 -0.0401  0.1882  0.6980
   67MOL    C6323955   7.358   1.959   4.947  0.0498 -0.1109  0.2268
   67MOL    H6423956   7.470   1.706   4.312 -0.3312 -0.1436  0.7293
   67MOL    H6523957   7.480   1.636   4.470  0.9795 -0.1523  0.0641
   67MOL    H6623958   7.573   1.904   4.350  0.6480  2.0593  1.5443
   67MOL    H6723959   7.624   1.829   4.868 -0.7722 -0.4921 -0.0142
   67MOL    H6823960   7.599   1.981   4.800 -0.0700  0.1149  0.0786
   67MOL    H6923961   7.364   1.908   4.736  4.1819 -0.8887 -1.9454
   67MOL    H7023962   7.378   1.774   4.852  0.3217  0.4564  2.4819
   67MOL    H7123963   7.356   2.066   4.926  0.3501 -0.0324  0.6150
   67MOL    H7223964   7.413   1.943   5.039  1.4539 -0.7258 -0.7123
   67MOL    H7323965   7.258   1.918   4.961 -0.0994 -0.5215 -1.8232
   67MOL    C7423966   7.737   1.763   4.393  0.1660 -0.2813  0.3853
   67MOL    C7523967   7.759   1.707   4.251  0.4321 -0.3604 -0.4297
   67MOL    C7623968   7.719   1.803   4.142 -0.4299 -0.5642  0.0564
   67MOL    O7723969   7.611   1.789   4.081 -0.6619  0.0212  0.0886
   67MOL    O7823970   7.794   1.912   4.150  0.1193 -0.6345 -0.1315
   67MOL    C7923971   7.770   2.035   4.078 -0.2008  0.2417  0.8795
   67MOL    C8023972   7.794   2.152   4.177 -0.7908  0.3443  0.4814
   67MOL    C8123973   7.677   2.169   4.268  0.4118  0.9497 -0.3352
   67MOL    H8223974   7.732   1.675   4.457 -1.1485 -0.7443 -0.3194
   67MOL    H8323975   7.821   1.832   4.407  0.5169 -0.7955  0.8319
   67MOL    H8423976   7.691   1.621   4.246  2.5048 -2.0273 -0.5100
   67MOL    H8523977   7.842   2.027   3.997  0.5068  1.9205  1.3112
   67MOL    H8623978   7.671   2.038   4.031 -0.4197  2.2101  1.4034
   67MOL    H8723979   0.007   2.155   4.232 -0.3089 -0.8166 -0.2682
   67MOL    H8823980   7.797   2.241   4.114 -0.6755 -0.4076 -0.5797
   67MOL    H8923981   7.676   2.262   4.325 -3.3646  0.5222  0.4386
   67MOL    H9023982   7.680   2.091   4.344  2.9416 -1.0661 -2.4036
   67MOL    H9123983   7.574   2.158   4.232  1.1056  0.5671 -2.2520
   67MOL    C9223984   0.021   1.639   4.237 -0.5282  0.0284  0.4274
   67MOL    C9323985   0.024   1.489   4.273  0.1466 -0.1349  0.2598
   67MOL    C9423986   7.828   1.397   4.183 -0.0300 -0.1636  0.1943
   67MOL    O9523987   7.769   1.441   4.081 -0.4559 -0.5903  0.1046
   67MOL    O9623988   7.812   1.269   4.225 -0.2041 -0.2524 -0.1876
   67MOL    C9723989   7.729   1.185   4.145 -0.0941  0.1031  0.2772
   67MOL    C9823990   7.805   1.120   4.025  0.4670  0.4487 -0.1993
   67MOL    C9923991   0.025   1.013   4.073  0.7261 -0.4595  0.0268
   67MOL   H10023992   0.096   1.694   4.294  0.4933 -0.5544 -0.3424
   67MOL   H10123993   0.051   1.646   4.132  0.3022 -1.8123  0.5230
   67MOL   H10223994   7.861   1.472   4.371  0.8634  4.8897  1.6300
   67MOL   H10323995   7.683   1.103   4.200 -0.9833 -0.1699 -0.8554
   67MOL   H10423996   7.649   1.251   4.112  0.6359  0.6478 -0.4345
   67MOL   H10523997   7.728   1.075   3.962 -0.3301 -2.3517  2.6280
   67MOL   H10623998   7.856   1.201   3.973  1.1571 -1.6477 -2.9560
   67MOL   H10723999   0.113   1.059   4.118 -1.0442  1.8995  1.2074
   67MOL   H10824000   0.059   0.961   3.984 -1.2101 -0.2274 -0.8758
   67MOL   H10924001   7.872   0.937   4.144 -2.0035  1.9934  1.4655
   67MOL   C11024002   0.167   1.418   4.254 -0.2884 -0.0484 -0.5280
   67MOL   C11124003   0.261   1.465   4.372  0.0178  0.8185 -0.0503
   67MOL   C11224004   0.228   1.392   4.503  0.3276  0.0992  0.2577
   67MOL   O11324005   0.219   1.266   4.506  0.3748 -0.2945 -0.0421
   67MOL   O11424006   0.200   1.483   4.592  0.1544 -0.3601  0.8649
   67MOL   C11524007   0.172   1.433   4.717  0.1911  0.3639  0.2505
   67MOL   C11624008   0.173   1.559   4.809  0.0911  0.5246  0.4938
   67MOL   C11724009   0.131   1.514   4.951 -0.4729  0.4086 -0.0211
   67MOL   H11824010   0.203   1.454   4.158  0.0365 -0.7791 -0.6766
   67MOL   H11924011   0.166   1.309   4.257  1.4312 -0.0491  0.9565
   67MOL   H12024012   0.271   1.573   4.382  2.3899  0.5475  0.8272
   67MOL   H12124013   0.079   1.376   4.728 -1.2223  2.6301  0.3069
   67MOL   H12224014   0.243   1.366   4.765  1.0124 -0.1407 -1.6267
   67MOL   H12324015   0.271   1.607   4.816 -0.5195  1.6899  1.2187
   67MOL   H12424016   0.103   1.634   4.774  1.1723  0.6878 -1.3648
   67MOL   H12524017   0.142   1.590   5.029 -0.5879  1.5206 -1.0831
   67MOL   H12624018   0.189   1.434   4.998 -0.2065 -0.3584 -1.6417
   67MOL   H12724019   0.029   1.478   4.949 -0.6517  0.9616 -1.7837
   67MOL   C12824020   0.403   1.424   4.332  0.6091  0.1034 -0.0838
   67MOL   C12924021   0.514   1.451   4.439  0.4551  0.4714  0.8206
   67MOL   C13024022   0.637   1.363   4.407  0.4180  0.0015  0.3029
   67MOL   O13124023   0.688   1.288   4.490 -0.5059  0.5129  0.4190
   67MOL   O13224024   0.683   1.385   4.277  0.2083  0.1507  0.0574
   67MOL   C13324025   0.813   1.342   4.237 -0.1205  0.4413 -0.2204
   67MOL   C13424026   0.905   1.450   4.169  0.2873 -0.3918 -0.0627
   67MOL   C13524027   0.954   1.551   4.278 -0.3166 -0.3702 -0.3414
   67MOL   H13624028   0.430   1.491   4.251  0.6175  1.2422  0.8589
   67MOL   H13724029   0.403   1.322   4.293  0.0821  0.3872 -0.8446
   67MOL   H13824030   0.481   1.425   4.540 -1.4850 -1.7413 -0.3085
   67MOL   H13924031   0.874   1.323   4.325 -1.0676  0.0145  0.3535
   67MOL   H14024032   0.810   1.257   4.168 -1.5201  1.4747 -1.4633
   67MOL   H14124033   0.992   1.402   4.125 -0.0520 -2.0658  1.0404
   67MOL   H14224034   0.838   1.498   4.097  0.9758  2.7555  1.3208
   67MOL   H14324035   0.999   1.500   4.363 -0.1414 -0.3414 -0.4158
   67MOL   H14424036   0.871   1.610   4.317 -1.2892 -0.4111 -2.2982
   67MOL   H14524037   1.036   1.610   4.236 -0.2161 -1.4961 -1.7535
   67MOL   C14624038   0.556   1.602   4.445 -0.5499 -0.1240 -0.4486
   67MOL   C14724039   0.521   1.680   4.576  0.3036  0.6688  0.0155
   67MOL   C14824040   0.585   1.624   4.695 -0.3218  1.0547 -0.7140
   67MOL   O14924041   0.535   1.643   4.803 -0.1279 -0.3633  0.3819
   67MOL   O15024042   0.698   1.556   4.674 -0.2213 -0.0902  0.0821
   67MOL   C15124043   0.767   1.497   4.785  0.5374  0.3833  0.5531
   67MOL   C15224044   0.919   1.513   4.777  0.4762 -0.1233  0.8532
   67MOL   C15324045   0.971   1.445   4.651  0.2830 -0.7599 -0.1402
   67MOL   H15424046   0.504   1.645   4.360  0.1929  0.7071 -0.4922
   67MOL   H15524047   0.659   1.611   4.410  0.1070  0.2551  1.4958
   67MOL   H15624048   0.417   1.648   4.585  0.4948 -0.1202 -0.4680
   67MOL   H15724049   0.732   1.545   4.877  0.8982 -0.3035  1.0589
   67MOL   H15824050   0.732   1.395   4.799 -0.5081  0.9849  2.4802
   67MOL   H15924051   0.940   1.620   4.776  0.3929 -0.1149 -1.5203
   67MOL   H16024052   0.960   1.468   4.868  0.5124  0.5130  1.1566
   67MOL   H16124053   1.078   1.442   4.632  0.3003  0.0730 -0.2122
   67MOL   H16224054   0.922   1.477   4.559  2.9698 -0.9800 -1.6744
   67MOL   H16324055   0.947   1.339   4.654 -0.2633 -0.6294  4.7653
   67MOL   C16424056   0.552   1.831   4.548 -0.0222  0.1227  0.1058
   67MOL   C16524057   0.429   1.930   4.546  0.0435 -0.0852  0.2311
   67MOL   C16624058   0.319   1.879   4.442 -0.1101  0.6896 -0.0423
   67MOL   O16724059   0.201   1.853   4.470 -0.3639 -0.0657  0.2996
   67MOL   O16824060   0.356   1.895   4.306  0.1638  0.5934 -0.5029
   67MOL   C16924061   0.271   1.882   4.193 -0.2120 -0.2798  0.3957
   67MOL   C17024062   0.309   1.990   4.089  0.5788 -0.6724 -0.3859
   67MOL   C17124063   0.315   2.131   4.153  0.0693 -0.2089 -0.0795
   67MOL   H17224064   0.599   1.845   4.451  0.6409  1.1519  0.5616
   67MOL   H17324065   0.632   1.867   4.614  0.9122 -0.5005 -0.6716
   67MOL   H17424066   0.473   2.025   4.519 -0.3695  0.7313  2.3285
   67MOL   H17524067   0.270   1.784   4.146  1.2830  0.1872 -0.6340
   67MOL   H17624068   0.172   1.899   4.236  0.2517 -0.5152  1.5788
   67MOL   H17724069   0.408   1.956   4.059  0.7835 -0.5200  0.1259
   67MOL   H17824070   0.241   1.991   4.003  0.8290  1.0997 -0.5781
   67MOL   H17924071   0.372   2.139   4.246 -0.1542  1.7530 -0.0902
   67MOL   H18024072   0.211   2.160   4.159 -0.4973 -1.9390 -1.1858
   67MOL   H18124073   0.355   2.199   4.078 -0.1760  0.6838  0.5914
   67MOL   C18224074   0.375   1.947   4.687 -0.0163 -0.2197 -0.0164
   67MOL   C18324075   0.371   2.095   4.736 -0.4258 -0.4131 -0.0212
   67MOL   C18424076   0.295   2.189   4.641  0.0754  0.1456 -0.4472
   67MOL   O18524077   0.352   2.284   4.590 -0.4241  0.0462 -0.1663
   67MOL   O18624078   0.165   2.148   4.618  0.5218  0.1092  0.3198
   67MOL   C18724079   0.084   2.209   4.525 -0.2511  0.2061 -0.7649
   67MOL   C18824080   7.845   2.276   4.600  0.2603  0.1627 -0.0189
   67MOL   C18924081   7.876   2.370   4.709 -0.3141  0.1846 -0.2201
   67MOL   H19024082   0.448   1.902   4.754  1.1289  1.6192 -0.0162
   67MOL   H19124083   0.280   1.896   4.707 -0.4050  1.1779  1.7726
   67MOL   H19224084   0.478   2.113   4.735 -0.8050  1.9746 -1.5312
   67MOL   H19324085   0.137   2.291   4.475  0.8796  0.1004  0.2398
   67MOL   H19424086   0.070   2.128   4.454 -0.2437 -0.7904  0.3680
   67MOL   H19524087   7.785   2.328   4.525 -1.4690 -1.6635  0.0443
   67MOL   H19624088   7.778   2.198   4.636 -0.1691  0.1282 -0.8775
   67MOL   H19724089   0.040   2.457   4.661 -2.5369  0.9204 -1.0155
   67MOL   H19824090   0.068   2.322   4.774  0.4477 -0.1144 -1.2875
   67MOL   H19924091   7.789   2.397   4.769 -0.1605 -2.0260  1.0306
   67MOL   C20024092   0.318   2.096   4.886 -0.4298 -0.3207 -0.5463
   67MOL   C20124093   0.337   2.228   4.961  1.0442 -0.6026 -0.4494
   67MOL   C20224094   0.242   2.248   5.081 -1.4082  0.1695 -0.1722
   67MOL   O20324095   0.284   2.277   5.196 -0.0136 -0.0447 -0.2170
   67MOL   O20424096   0.113   2.257   5.049 -0.3410 -0.5029  0.0974
   67MOL   C20524097   0.011   2.246   5.147  0.5656  0.1374 -0.3213
   67MOL   C20624098   7.879   2.101   5.195 -0.1698 -0.2079  0.1645
   67MOL   C20724099   7.833   2.007   5.084 -0.1221 -0.3531  0.0602
   67MOL   H20824100   0.372   2.014   4.931  0.6702  0.2938 -0.7357
   67MOL   H20924101   0.215   2.061   4.883 -0.5736 -0.2870  2.6899
   67MOL   H21024102   0.305   2.312   4.900 -2.2364 -0.2463  1.6608
   67MOL   H21124103   0.030   2.323   5.222  0.2112  1.4229 -1.5140
   67MOL   H21224104   7.798   2.274   5.099 -0.0444 -1.8746 -0.3210
   67MOL   H21324105   0.096   2.081   5.241 -0.5722 -0.4861  0.8944
   67MOL   H21424106   7.806   2.087   5.274  1.7074 -0.0976  1.9809
   67MOL   H21524107   0.028   1.999   5.006 -1.0773  0.7015 -1.0092
   67MOL   H21624108   7.747   2.051   5.033  0.3059  1.3857  0.7934
   67MOL   H21724109   7.797   1.914   5.126 -1.1379  0.1853  0.4055
   67MOL   C21824110   0.487   2.261   5.000  0.1842 -0.3505  0.0931
   67MOL   C21924111   0.570   2.195   5.113 -0.3198 -0.1356 -0.1416
   67MOL   C22024112   0.609   2.048   5.089  0.1052 -0.2157 -0.1951
   67MOL   O22124113   0.558   1.957   5.162  0.2760  0.4492  0.1478
   67MOL   O22224114   0.697   2.047   4.988 -0.1273  0.5308  0.3081
   67MOL   C22324115   0.771   1.925   4.968 -0.4150 -0.0198  0.1020
   67MOL   C22424116   0.896   1.913   5.057  0.5296  0.4704  0.4428
   67MOL   C22524117   0.995   1.802   4.996 -0.5270  0.4179 -0.1633
   67MOL   H22624118   0.480   2.365   5.031  0.5779 -0.0185 -0.9184
   67MOL   H22724119   0.551   2.252   4.912  0.3897 -1.5319  0.3492
   67MOL   H22824120   0.507   2.190   5.203  0.7236  0.6118  0.6451
   67MOL   H22924121   0.699   1.843   4.965  0.0768 -0.4232 -1.5217
   67MOL   H23024122   0.797   1.930   4.862  1.4801 -1.6284  0.4422
   67MOL   H23124123   0.946   2.009   5.044 -0.5791  1.0132  0.0919
   67MOL   H23224124   0.880   1.903   5.164  2.3389 -0.2340  0.6697
   67MOL   H23324125   0.952   1.704   5.017 -1.2748  0.9802  0.9902
   67MOL   H23424126   1.092   1.795   5.046  0.0212  1.7662 -0.9956
   67MOL   H23524127   1.014   1.825   4.891 -0.6385 -1.5157 -0.6214
   67MOL   C23624128   0.691   2.285   5.161 -0.2374  0.1738  0.1318
   67MOL   C23724129   0.757   2.268   5.300 -0.2413 -0.5425  0.2187
   67MOL   C23824130   0.656   2.276   5.414 -0.3921 -0.0894 -0.5660
   67MOL   O23924131   0.634   2.177   5.494  0.9715 -0.4625  0.3261
   67MOL   O24024132   0.581   2.390   5.415 -0.1382 -0.3593  0.6042
   67MOL   C24124133   0.477   2.404   5.509 -0.3127 -0.2012  0.2814
   67MOL   C24224134   0.514   2.494   5.629  0.3346  0.3447 -0.2898
   67MOL   C24324135   0.618   2.433   5.728  0.1878 -0.5224  0.3093
   67MOL   H24424136   0.656   2.388   5.163  2.1611  1.0628 -1.4137
   67MOL   H24524137   0.767   2.291   5.083  0.2821  2.8497  0.7965
   67MOL   H24624138   0.823   2.355   5.305  2.8452 -2.7263 -1.1074
   67MOL   H24724139   0.385   2.452   5.474 -0.5056  0.0538  1.1396
   67MOL   H24824140   0.438   2.305   5.530 -0.0826 -0.5055 -0.6937
   67MOL   H24924141   0.553   2.587   5.587 -0.3607  1.2650  1.0594
   67MOL   H25024142   0.422   2.502   5.687  0.4710 -1.7534  0.2426
   67MOL   H25124143   0.704   2.424   5.662 -2.2045  0.0678 -2.9980
   67MOL   H25224144   0.585   2.335   5.761  2.0156 -1.1077  0.4257
   67MOL   H25324145   0.641   2.502   5.809 -0.1342  0.1251 -0.1440
   67MOL   C25424146   0.851   2.146   5.319 -1.1739  0.2047  0.0938
   67MOL   C25524147   0.958   2.175   5.429 -0.0296 -0.1221 -0.3737
   67MOL   C25624148   1.010   2.044   5.500 -0.1105 -0.4756 -0.1064
   67MOL   O25724149   1.062   1.950   5.431  0.3309  0.2637  0.0165
   67MOL   O25824150   0.994   2.039   5.637 -0.5224 -0.5895  0.9730
   67MOL   C25924151   1.047   1.926   5.712 -0.4482 -0.4056  0.6257
   67MOL   C26024152   1.167   1.978   5.797  0.5569  0.4693  0.0965
   67MOL   C26124153   1.301   2.012   5.725 -0.2824 -0.4223 -0.0884
   67MOL   H26224154   0.890   2.107   5.225  1.3051  0.4713  0.9727
   67MOL   H26324155   0.795   2.062   5.359 -0.1187 -0.3559  0.4021
   67MOL   H26424156   0.910   2.230   5.510 -0.7023 -1.0401 -0.1365
   67MOL   H26524157   0.975   1.878   5.778 -1.2889  0.4594  0.3497
   67MOL   H26624158   1.076   1.840   5.652  0.0831 -0.1335  0.4934
   67MOL   H26724159   1.127   2.054   5.864 -2.5799 -1.1440  0.1538
   67MOL   H26824160   1.190   1.890   5.856  1.8087 -0.7613 -2.1581
   67MOL   H26924161   1.321   1.940   5.645  1.5735  0.7238 -0.6796
   67MOL   H27024162   1.389   2.024   5.787 -1.5317  0.8558  1.4793
   67MOL   H27124163   1.296   2.111   5.680 -3.7380 -1.4485 -2.2072
   67MOL   C27224164   1.071   2.250   5.368 -0.6012 -0.0664 -0.0046
   67MOL   C27324165   1.142   2.344   5.471 -0.1528  0.2551  0.5359
   67MOL   C27424166   1.272   2.386   5.410 -0.2524 -0.3844  0.3014
   67MOL   O27524167   1.375   2.322   5.436  0.0944  0.5784 -0.2313
   67MOL   O27624168   1.255   2.481   5.319 -0.2767 -0.7396 -0.5429
   67MOL   C27724169   1.364   2.532   5.237 -0.3117  0.0022  0.4734
   67MOL   C27824170   1.375   2.442   5.114  0.0397  0.0834 -0.9256
   67MOL   C27924171   1.246   2.414   5.035 -0.1115 -0.7917  0.0880
   67MOL   H28024172   1.042   2.308   5.281 -0.9006  2.2594  1.5818
   67MOL   H28124173   1.148   2.181   5.335 -0.6931  0.1502 -0.6753
   67MOL   H28224174   1.154   2.280   5.558 -2.1250  2.1085  2.2054
   67MOL   H28324175   1.330   2.629   5.201 -0.4879 -0.1412  0.2501
   67MOL   H28424176   1.457   2.540   5.294 -1.3107  1.0408  1.9986
   67MOL   H28524177   1.446   2.484   5.043 -0.5108 -0.1704 -1.6422
   67MOL   H28624178   1.410   2.342   5.137 -0.5075  0.3382  1.1413
   67MOL   H28724179   1.165   2.384   5.101 -0.0593  0.0958  0.5707
   67MOL   H28824180   1.266   2.330   4.969 -0.0318 -0.6860 -0.0233
   67MOL   H28924181   1.207   2.498   4.977 -0.0366  0.1599  1.3895
   67MOL   C29024182   1.062   2.469   5.515 -1.3135  0.4502  0.4308
   67MOL   C29124183   1.091   2.529   5.654 -0.3291  0.1444  0.0102
   67MOL   C29224184   1.047   2.679   5.663 -0.4976 -0.6375  0.1190
   67MOL   O29324185   0.949   2.722   5.600  0.2575 -0.5622 -0.1098
   67MOL   O29424186   1.113   2.751   5.753 -0.2424 -1.0064  0.4811
   67MOL   C29524187   1.078   2.894   5.775  0.5342  0.1865 -0.0541
   67MOL   C29624188   1.185   2.956   5.867 -0.3923  0.6459  0.4509
   67MOL   C29724189   1.142   3.099   5.912 -0.5175  0.4871  0.0209
   67MOL   H29824190   0.956   2.448   5.503 -0.7741 -2.4562  0.3818
   67MOL   H29924191   1.066   2.551   5.443  2.0497 -0.6069 -0.6950
   67MOL   H30024192   1.199   2.538   5.655 -0.3815  0.8850  1.4116
   67MOL   H30124193   1.063   2.955   5.686 -2.2763 -2.1904 -1.3054
   67MOL   H30224194   0.977   2.888   5.816  0.3501 -0.2327 -0.5488
   67MOL   H30324195   1.192   2.893   5.956  1.0014 -2.3989 -1.7208
   67MOL   H30424196   1.278   2.948   5.810 -1.6580  0.2055 -1.5835
   67MOL   H30524197   1.041   3.091   5.953 -0.0969  0.1184  0.9939
   67MOL   H30624198   1.133   3.175   5.834 -1.6668  0.1823 -0.1534
   67MOL   H30724199   1.202   3.133   5.997 -0.8169  0.5763  0.1964
   67MOL   C30824200   1.035   2.433   5.758  0.3553 -0.0623  0.2932
   67MOL   C30924201   1.037   2.472   5.902 -0.4541  0.0933 -0.2775
   67MOL   C31024202   0.940   2.375   5.979  0.0605  0.2227 -0.1564
   67MOL   O31124203   0.947   2.253   5.974  0.1987 -0.1652  0.1281
   67MOL   O31224204   0.855   2.452   6.056 -0.8711 -0.3976  0.3745
   67MOL   C31324205   0.750   2.395   6.129 -0.6052  0.4070 -0.0449
   67MOL   C31424206   0.753   2.446   6.275 -1.3424 -0.2031  0.4103
   67MOL   C31524207   0.650   2.371   6.364 -0.1349  0.7358  0.0554
   67MOL   H31624208   1.086   2.337   5.749  0.1934 -0.1939  0.7486
   67MOL   H31724209   0.930   2.415   5.732  0.7496  0.2460 -1.5314
   67MOL   H31824210   0.994   2.572   5.912  0.6053  0.6981 -1.7016
   67MOL   H31924211   0.655   2.413   6.079  0.2885 -0.6614 -2.1879
   67MOL   H32024212   0.764   2.287   6.126  1.2071  0.6194 -0.4090
   67MOL   H32124213   0.853   2.421   6.311 -0.9525  1.2915  0.4174
   67MOL   H32224214   0.746   2.554   6.286  1.1129  0.0133  0.1506
   67MOL   H32324215   0.627   2.400   6.467  3.5120 -0.9338  1.4173
   67MOL   H32424216   0.562   2.360   6.300  1.8945 -4.6700 -2.0783
   67MOL   H32524217   0.683   2.269   6.383  1.2245  1.1881  0.1784
   67MOL   C32624218   1.177   2.483   5.960 -0.4858  0.2567 -0.3573
   67MOL   C32724219   1.199   2.540   6.108  0.8870  0.0927  0.1504
   67MOL   C32824220   1.347   2.529   6.154  0.1390  0.0462  0.5930
   67MOL   O32924221   1.433   2.616   6.146 -0.1343 -0.2350  0.2170
   67MOL   O33024222   1.367   2.405   6.194 -0.7678  0.3743  0.0421
   67MOL   C33124223   1.501   2.359   6.209  0.4573  0.3284 -0.1400
   67MOL   C33224224   1.507   2.234   6.295 -0.0786  0.2049  0.4059
   67MOL   C33324225   1.469   2.105   6.223  0.0827 -0.0481  0.2400
   67MOL   H33424226   1.252   2.518   5.889 -0.8104  1.0994 -0.2953
   67MOL   H33524227   1.220   2.383   5.959 -0.8588  0.0910 -0.0408
   67MOL   H33624228   1.135   2.479   6.173  0.6213  1.3797  1.1044
   67MOL   H33724229   1.539   2.339   6.108  0.6776 -0.8964  0.1795
   67MOL   H33824230   1.566   2.438   6.247 -2.8330  2.5747  0.9785
   67MOL   H33924231   1.613   2.223   6.317  0.1530  1.2459 -0.1482
   67MOL   H34024232   1.447   2.243   6.386  1.0331 -1.0053  1.2742
   67MOL   H34124233   1.488   2.022   6.292  0.2669  1.5359  2.1113
   67MOL   H34224234   1.362   2.111   6.205  0.0337 -1.7064 -0.1991
   67MOL   H34324235   1.523   2.093   6.129 -0.6579 -0.6311 -0.1180
   67MOL   C34424236   1.148   2.683   6.117 -0.0427 -0.6295 -0.0500
   67MOL   C34524237   1.054   2.707   6.229  0.4907  0.1093 -0.2455
   67MOL   C34624238   1.018   2.849   6.251 -0.1265 -0.8366 -0.3012
   67MOL   O34724239   0.917   2.902   6.194  0.4754  0.1448  0.0630
   67MOL   O34824240   1.107   2.920   6.343  0.7258  0.2014  0.6841
   67MOL   C34924241   1.069   3.050   6.384 -0.4131 -0.0183 -0.7851
   67MOL   C35024242   1.175   3.112   6.480 -1.1917  0.3937 -0.0576
   67MOL   C35124243   1.166   3.271   6.476  0.4913  0.1845  0.2517
   67MOL   H35224244   1.104   2.720   6.024  1.4973  0.0550 -0.5231
   67MOL   H35324245   1.237   2.743   6.136 -0.9265  0.7809 -0.3726
   67MOL   H35424246   1.078   2.666   6.327  1.4996 -1.6806 -1.2282
   67MOL   H35524247   1.064   3.111   6.294 -1.6802  1.5770  0.3468
   67MOL   H35624248   0.982   3.055   6.448  0.6558  0.5129  0.6591
   67MOL   H35724249   1.159   3.078   6.582  3.0256 -0.1896  0.5060
   67MOL   H35824250   1.271   3.068   6.453 -0.8619  1.8064 -1.2761
   67MOL   H35924251   1.216   3.303   6.385 -0.0018  1.6126  0.4764
   67MOL   H36024252   1.061   3.297   6.490  0.6779  0.0949  1.9255
   67MOL   H36124253   1.235   3.310   6.552  0.0539  1.4213  0.0205
   67MOL   H36224254   0.958   2.659   6.209 -0.6708  1.7505  1.2037
   68MOL     C124255   7.580   5.765   1.672 -0.0347  0.4623  0.7310
   68MOL     C224256   7.493   5.665   1.760 -0.0498 -0.7584 -0.4930
   68MOL     C324257   7.434   5.738   1.881 -0.3709  0.2877 -0.4217
   68MOL     O424258   7.329   5.792   1.869 -0.6422 -0.5749  0.0039
   68MOL     O524259   7.514   5.741   1.988  0.2486 -0.3190 -0.1878
   68MOL     C624260   7.480   5.836   2.086 -0.6139 -0.1976  0.0028
   68MOL     C724261   7.605   5.867   2.170  0.1720 -0.4433 -0.6332
   68MOL     C824262   7.637   5.753   2.272 -0.1171 -0.3592 -0.6733
   68MOL     H924263   7.624   5.737   1.577  0.5680 -0.3060  1.2292
   68MOL    H1024264   7.512   5.838   1.627  0.5376  0.5558  0.0090
   68MOL    H1124265   7.561   5.591   1.802 -0.3326 -0.9731 -0.4179
   68MOL    H1224266   7.446   5.928   2.040 -1.0554 -0.9438 -1.1740
   68MOL    H1324267   7.406   5.789   2.152 -1.2794  0.0409 -0.5770
   68MOL    H1424268   7.693   5.891   2.110  1.0291 -2.1205 -0.0808
   68MOL    H1524269   7.590   5.953   2.235 -2.3517 -0.8977 -0.5597
   68MOL    H1624270   7.729   5.773   2.327 -1.5642 -0.7208  1.9631
   68MOL    H1724271   7.560   5.742   2.348  1.1970  1.6584  0.9893
   68MOL    H1824272   7.651   5.663   2.213  0.3589  0.6551 -2.1660
   68MOL    H1924273   7.650   5.818   1.738  0.3659  2.8450 -1.5486
   68MOL    C2024274   7.395   5.594   1.670 -0.1278 -0.0416 -0.5222
   68MOL    C2124275   7.328   5.472   1.730  0.1607 -0.2170 -0.0654
   68MOL    C2224276   7.185   5.459   1.683  0.5001  0.0338 -0.2622
   68MOL    O2324277   7.091   5.517   1.738  0.3907  0.3207 -0.1378
   68MOL    O2424278   7.166   5.392   1.569  0.4729  0.2135 -0.0074
   68MOL    C2524279   7.032   5.350   1.536 -0.9036  0.3354  0.3944
   68MOL    C2624280   7.040   5.252   1.417 -0.3365 -0.1100 -0.4038
   68MOL    C2724281   6.903   5.212   1.375 -0.0755 -0.3018  0.3498
   68MOL    H2824282   7.452   5.562   1.582 -1.5376  0.7926 -1.7758
   68MOL    H2924283   7.328   5.663   1.618  1.1201  2.2820  0.8800
   68MOL    H3024284   7.313   5.501   1.835 -0.8896 -1.1505  0.0491
   68MOL    H3124285   7.006   5.285   1.620 -0.6725  0.0728  0.2626
   68MOL    H3224286   6.961   5.432   1.519 -1.4622  0.1476  1.7380
   68MOL    H3324287   7.091   5.293   1.330  1.3860 -0.9861  0.1747
   68MOL    H3424288   7.087   5.157   1.440  1.1078  0.4470 -1.0640
   68MOL    H3524289   6.845   5.300   1.351  0.7531 -0.2251 -1.4750
   68MOL    H3624290   6.857   5.156   1.457 -0.6051 -3.5920 -2.0660
   68MOL    H3724291   6.910   5.147   1.288  1.1202 -0.5300  0.5952
   68MOL    C3824292   7.416   5.345   1.718 -0.3960  0.5260  0.0103
   68MOL    C3924293   7.405   5.223   1.817 -0.6995  0.4983  0.4540
   68MOL    C4024294   7.257   5.190   1.857  0.8221  0.2099  0.6610
   68MOL    O4124295   7.213   5.208   1.966 -0.4003 -0.3599 -0.0066
   68MOL    O4224296   7.195   5.122   1.762 -0.2621 -0.6939  0.8453
   68MOL    C4324297   7.073   5.065   1.795  0.8006  0.9291  0.4729
   68MOL    C4424298   7.045   4.949   1.694 -0.1034 -0.1187  0.4989
   68MOL    C4524299   7.153   4.844   1.699  0.8876  0.6607 -0.9226
   68MOL    H4624300   7.520   5.376   1.732 -0.2792  0.5745 -0.9493
   68MOL    H4724301   7.393   5.318   1.616  0.6674 -0.3023 -0.0158
   68MOL    H4824302   7.446   5.266   1.908  0.7185  1.7813 -0.7454
   68MOL    H4924303   7.073   5.017   1.893 -0.2134 -0.9734 -0.4361
   68MOL    H5024304   7.000   5.146   1.795  1.1359  1.3093 -2.4599
   68MOL    H5124305   6.945   4.912   1.719 -1.9008  2.9456 -1.7840
   68MOL    H5224306   7.029   4.987   1.593 -0.8539  1.6574  1.2724
   68MOL    H5324307   7.148   4.780   1.611 -2.0430 -0.2926 -0.1267
   68MOL    H5424308   7.129   4.776   1.781 -4.2846  2.1648 -0.9510
   68MOL    H5524309   7.257   4.873   1.710  1.4246 -1.7153  0.5802
   68MOL    C5624310   7.482   5.103   1.767  0.1474 -0.0160 -0.4931
   68MOL    C5724311   7.637   5.114   1.775  0.1040  0.4373  0.4090
   68MOL    C5824312   7.696   5.130   1.912  0.1555 -0.5852  0.1649
   68MOL    O5924313   7.793   5.204   1.933 -0.4655  0.1382  0.1990
   68MOL    O6024314   7.627   5.060   1.997 -0.3495 -0.0555  0.4235
   68MOL    C6124315   7.669   5.048   2.135  0.0373  0.1798  0.2148
   68MOL    C6224316   7.713   4.897   2.153 -0.0815 -0.1851 -0.4873
   68MOL    C6324317   7.771   4.851   2.290  0.1083  0.2034 -0.0210
   68MOL    H6424318   7.465   5.099   1.659  1.4427  1.6724 -0.7867
   68MOL    H6524319   7.433   5.010   1.794  0.1904  0.3548  0.8766
   68MOL    H6624320   7.647   5.210   1.726  2.0623 -0.4086 -0.9146
   68MOL    H6724321   7.734   5.129   2.168  1.4599  0.3775 -2.8848
   68MOL    H6824322   7.579   5.066   2.193 -0.4731  0.6288 -0.7112
   68MOL    H6924323   7.640   4.821   2.124 -1.2912 -0.1051  2.1685
   68MOL    H7024324   7.794   4.890   2.081  0.7287  1.2437  0.2780
   68MOL    H7124325   7.782   4.743   2.276 -1.8230  0.0780 -0.7650
   68MOL    H7224326   7.703   4.868   2.373 -0.9196  0.2870 -0.8741
   68MOL    H7324327   7.871   4.892   2.304 -0.4303  0.4906  3.1498
   68MOL    C7424328   7.715   5.017   1.692  0.0828  0.7563  0.5927
   68MOL    C7524329   7.704   4.869   1.727 -0.4118 -0.2605 -0.3319
   68MOL    C7624330   7.582   4.807   1.668  0.4218  0.2713 -0.2533
   68MOL    O7724331   7.487   4.762   1.734 -0.1383  0.4019 -0.4172
   68MOL    O7824332   7.587   4.808   1.533 -0.6602  0.1538  0.0340
   68MOL    C7924333   7.473   4.763   1.462 -0.1683  0.1988 -0.3153
   68MOL    C8024334   7.442   4.845   1.352 -0.3656  1.0711  0.2379
   68MOL    C8124335   7.376   4.981   1.390 -0.4508  0.0699  0.7629
   68MOL    H8224336   7.820   5.048   1.691  0.2088  0.4833  2.9320
   68MOL    H8324337   7.694   5.025   1.585 -2.2388 -0.8106  0.8917
   68MOL    H8424338   7.701   4.858   1.836 -0.4811 -0.0929 -0.3177
   68MOL    H8524339   7.502   4.667   1.419  0.7997  0.0066  0.7491
   68MOL    H8624340   7.382   4.752   1.520  1.8029  0.0322  2.9092
   68MOL    H8724341   7.530   4.870   1.293  0.0083  0.5029  0.5555
   68MOL    H8824342   7.378   4.795   1.279  1.6178 -1.8300  0.3790
   68MOL    H8924343   7.298   4.998   1.316  1.3420 -0.7148 -1.3826
   68MOL    H9024344   7.452   5.060   1.387 -1.0036  0.5625 -1.3391
   68MOL    H9124345   7.327   4.983   1.487 -1.0623  1.0110  0.4491
   68MOL    C9224346   7.828   4.788   1.695 -0.9971  0.1013  0.6214
   68MOL    C9324347   7.830   4.640   1.729 -0.2631  0.3912 -0.0708
   68MOL    C9424348   0.024   4.564   1.618 -0.1244 -1.0533 -0.1072
   68MOL    O9524349   7.838   4.492   1.534  0.4220 -0.2299  0.0464
   68MOL    O9624350   0.155   4.585   1.621 -0.3549  0.2910 -0.2637
   68MOL    C9724351   0.231   4.520   1.527  0.2027 -0.2714 -0.0594
   68MOL    C9824352   0.374   4.572   1.515 -0.0212 -0.1234 -0.0832
   68MOL    C9924353   0.379   4.711   1.446 -0.3711  0.1551  0.4312
   68MOL   H10024354   0.034   4.829   1.747  0.5211 -2.6942  0.3924
   68MOL   H10124355   7.851   4.807   1.591  0.5806 -0.8153  0.7970
   68MOL   H10224356   7.729   4.599   1.730  0.2187 -0.8486 -0.7824
   68MOL   H10324357   0.236   4.414   1.553  1.7161 -0.9092 -2.8326
   68MOL   H10424358   0.181   4.531   1.431 -0.3230  1.5138  0.3976
   68MOL   H10524359   0.418   4.560   1.614 -2.4033  0.4924  1.0749
   68MOL   H10624360   0.418   4.498   1.448  1.0107 -0.9825  1.4884
   68MOL   H10724361   0.482   4.745   1.437 -0.9018  1.7042 -0.0038
   68MOL   H10824362   0.320   4.788   1.497 -0.5182 -2.8419  5.1418
   68MOL   H10924363   0.344   4.692   1.345 -3.8556 -0.2205  1.6156
   68MOL   C11024364   7.880   4.621   1.879  0.4780  0.0436 -0.3147
   68MOL   C11124365   7.832   4.477   1.926 -0.4590  0.4398 -0.3376
   68MOL   C11224366   0.071   4.389   1.951 -0.6542 -0.3442  0.4342
   68MOL   O11324367   0.094   4.282   1.896  0.5826 -0.1242  0.1694
   68MOL   O11424368   0.152   4.455   2.038 -0.0598  0.1324  0.6065
   68MOL   C11524369   0.277   4.413   2.065 -0.6515 -0.5374 -0.1743
   68MOL   C11624370   0.387   4.445   1.962  0.3913 -0.7027 -0.6172
   68MOL   C11724371   0.390   4.357   1.837 -0.1360  0.2816  0.0585
   68MOL   H11824372   7.843   4.700   1.945  0.5452 -1.3558  1.4273
   68MOL   H11924373   0.108   4.638   1.876  0.1487  3.0869  2.1877
   68MOL   H12024374   7.776   4.427   1.847  2.5831 -0.4999 -1.9996
   68MOL   H12124375   0.310   4.472   2.150  1.8242 -2.2290  0.0729
   68MOL   H12224376   0.264   4.310   2.098 -1.3254 -0.9413 -1.6588
   68MOL   H12324377   0.384   4.551   1.936 -0.6453 -0.7754 -0.8269
   68MOL   H12424378   0.477   4.443   2.022  0.9257  2.8702 -1.1687
   68MOL   H12524379   0.318   4.402   1.768  1.1130  1.5887 -0.4083
   68MOL   H12624380   0.366   4.253   1.858 -1.0527  0.7804  1.5483
   68MOL   H12724381   0.490   4.362   1.794 -0.8281  2.3877 -1.4224
   68MOL   C12824382   7.737   4.496   2.053 -0.6398 -0.2687  0.7467
   68MOL   C12924383   7.666   4.370   2.111 -0.5088  0.2086 -0.2914
   68MOL   C13024384   7.636   4.398   2.261  0.8749  0.3610  0.8041
   68MOL   O13124385   7.665   4.320   2.353 -0.2650 -0.6558 -0.2339
   68MOL   O13224386   7.582   4.517   2.279 -0.2708  0.4032 -0.0213
   68MOL   C13324387   7.562   4.567   2.414  0.3288  1.2373  0.2146
   68MOL   C13424388   7.428   4.518   2.461  0.3920  0.2568 -0.4615
   68MOL   C13524389   7.385   4.603   2.586  0.4695 -0.9114 -0.5392
   68MOL   H13624390   7.654   4.560   2.023 -0.7999 -0.7100  0.2345
   68MOL   H13724391   7.802   4.547   2.124 -1.2499  1.5743  0.0168
   68MOL   H13824392   7.751   4.302   2.116  1.0227  2.1813  1.1098
   68MOL   H13924393   7.637   4.536   2.487 -1.1010  2.3672  2.2302
   68MOL   H14024394   7.563   4.676   2.414  2.5483  1.2508  1.7083
   68MOL   H14124395   7.357   4.532   2.379 -1.0503  0.8490  0.8580
   68MOL   H14224396   7.435   4.414   2.490  1.2229  0.0493 -1.3925
   68MOL   H14324397   7.293   4.557   2.620  0.7017 -1.1649 -0.2627
   68MOL   H14424398   7.370   4.709   2.566 -0.1902 -1.0783 -0.9344
   68MOL   H14524399   7.461   4.601   2.664  0.4656  0.8681 -0.4570
   68MOL   C14624400   7.546   4.321   2.022  1.0109 -0.0253 -0.6856
   68MOL   C14724401   7.517   4.168   2.028  0.1959 -0.1251  0.3170
   68MOL   C14824402   7.440   4.129   2.154 -0.1346 -0.3841 -0.0734
   68MOL   O14924403   7.478   4.032   2.219  0.1314  0.3663 -0.0830
   68MOL   O15024404   7.342   4.212   2.187 -0.3402  0.5470  0.2965
   68MOL   C15124405   7.236   4.162   2.263 -0.7453  0.2812 -0.5823
   68MOL   C15224406   7.179   4.262   2.365  0.2389 -0.4339  0.9220
   68MOL   C15324407   7.058   4.201   2.432  0.5167 -0.2607 -0.1495
   68MOL   H15424408   7.557   4.351   1.918 -1.3229  0.5800 -0.7907
   68MOL   H15524409   7.462   4.380   2.060  0.9497 -1.3143  1.2552
   68MOL   H15624410   7.610   4.112   2.040  1.0357  1.2308  0.2456
   68MOL   H15724411   7.152   4.134   2.200 -0.1127 -1.5784 -0.6234
   68MOL   H15824412   7.265   4.080   2.329 -0.4939  2.4612  2.0642
   68MOL   H15924413   7.258   4.279   2.438  2.0282 -2.2536 -0.5068
   68MOL   H16024414   7.157   4.345   2.299  1.0388  0.0301  1.2365
   68MOL   H16124415   7.089   4.113   2.488  0.5432  1.4107  2.5105
   68MOL   H16224416   6.981   4.168   2.363  0.6259 -2.0047  0.5431
   68MOL   H16324417   7.017   4.272   2.503  0.9296  0.4518 -0.6183
   68MOL   C16424418   7.447   4.130   1.897 -0.0571  0.3430 -0.4069
   68MOL   C16524419   7.418   3.971   1.875 -0.0435  0.8140  0.1454
   68MOL   C16624420   7.287   3.939   1.799  0.8695 -0.5305 -0.1652
   68MOL   O16724421   7.284   3.922   1.677  0.1835 -0.1351  0.4203
   68MOL   O16824422   7.181   3.937   1.880  0.2340 -0.1122  0.1470
   68MOL   C16924423   7.053   3.960   1.825  0.0017  0.3191  0.4358
   68MOL   C17024424   6.963   3.844   1.870 -0.9663 -0.0170 -0.0458
   68MOL   C17124425   7.022   3.705   1.832 -0.6400 -0.3389  0.5142
   68MOL   H17224426   7.516   4.162   1.818 -0.0602  0.6723 -0.2760
   68MOL   H17324427   7.358   4.191   1.889 -2.7282 -3.5831 -2.1422
   68MOL   H17424428   7.402   3.929   1.974 -2.5472  3.0101  0.7191
   68MOL   H17524429   7.016   4.048   1.877  2.1338 -0.5269  3.5492
   68MOL   H17624430   7.057   3.972   1.717  0.6612 -0.3781  0.3828
   68MOL   H17724431   6.938   3.849   1.976  1.3080  0.2189  0.4976
   68MOL   H17824432   6.870   3.857   1.815 -0.4601 -1.8355 -1.4104
   68MOL   H17924433   7.106   3.694   1.900  0.7010  0.3575 -1.0069
   68MOL   H18024434   7.051   3.699   1.728  1.1989  0.5479  0.9589
   68MOL   H18124435   6.948   3.631   1.861 -0.8346 -0.3462 -0.0057
   68MOL   C18224436   7.547   3.899   1.810  0.5961  0.0277 -0.4331
   68MOL   C18324437   7.562   3.751   1.855 -0.2892 -0.2192  0.2449
   68MOL   C18424438   7.475   3.650   1.784 -0.3990  0.7881 -0.9345
   68MOL   O18524439   7.445   3.543   1.837  0.1358  0.1494 -0.4808
   68MOL   O18624440   7.450   3.688   1.660 -0.6257 -0.4056  0.5587
   68MOL   C18724441   7.358   3.615   1.571  0.1368  0.1667  0.1138
   68MOL   C18824442   7.322   3.700   1.443 -0.0285 -0.1275  0.8114
   68MOL   C18924443   7.441   3.709   1.347  0.2726  0.3208 -0.5569
   68MOL   H19024444   7.637   3.956   1.831  0.7898 -0.4282 -0.0016
   68MOL   H19124445   7.542   3.908   1.701 -1.0228 -0.6258 -0.4202
   68MOL   H19224446   7.533   3.742   1.960  1.3194  0.6971  0.7650
   68MOL   H19324447   7.394   3.515   1.546  0.7883 -0.2720  2.6102
   68MOL   H19424448   7.272   3.595   1.635  1.1712  1.1349  1.8671
   68MOL   H19524449   7.235   3.666   1.388 -0.6698  2.6719  0.0355
   68MOL   H19624450   7.289   3.797   1.479 -2.3133  0.1300 -1.8971
   68MOL   H19724451   7.517   3.770   1.395  0.3440  0.5843 -1.0064
   68MOL   H19824452   7.402   3.763   1.261  1.2074 -0.1287 -1.2715
   68MOL   H19924453   7.479   3.613   1.311  1.0402  0.2680  0.3598
   68MOL   C20024454   7.707   3.708   1.870  0.2915 -0.3833 -0.4714
   68MOL   C20124455   7.800   3.702   1.742 -0.6496 -0.5628  0.6114
   68MOL   C20224456   0.017   3.818   1.730 -0.1567  0.1115  0.2113
   68MOL   O20324457   0.133   3.808   1.773  0.1450  0.4625  0.3716
   68MOL   O20424458   7.837   3.923   1.677 -0.0553 -0.5557 -0.1198
   68MOL   C20524459   0.011   4.051   1.689 -0.4570  0.2343 -0.6944
   68MOL   C20624460   7.875   4.127   1.553  0.0471 -0.1529 -0.6027
   68MOL   C20724461   7.725   4.154   1.519  0.0906  0.1499  0.8107
   68MOL   H20824462   7.709   3.608   1.915 -0.5277  0.0038  0.4413
   68MOL   H20924463   7.752   3.775   1.942  0.2666  1.4730 -2.1593
   68MOL   H21024464   7.735   3.708   1.655  0.9903 -2.1266 -0.7465
   68MOL   H21124465   7.839   4.104   1.769  0.5931 -0.6305  0.5827
   68MOL   H21224466   0.114   4.056   1.724 -0.2739  0.2115 -1.2247
   68MOL   H21324467   0.059   4.214   1.563  3.0643 -2.4070  0.3478
   68MOL   H21424468   0.043   4.076   1.470  0.3160 -1.6072  0.4153
   68MOL   H21524469   7.704   4.260   1.506 -0.1546 -0.0838 -0.8172
   68MOL   H21624470   7.657   4.128   1.601 -0.4280 -3.0536 -0.5362
   68MOL   H21724471   7.701   4.109   1.422  1.4974 -1.8247  1.3372
   68MOL   C21824472   7.875   3.566   1.742 -0.0324 -0.2337  0.0209
   68MOL   C21924473   7.783   3.444   1.713  0.0802 -0.8728  0.0764
   68MOL   C22024474   7.774   3.421   1.561 -0.5841  0.4022 -0.0946
   68MOL   O22124475   7.675   3.458   1.496 -0.0515  0.3460 -0.1498
   68MOL   O22224476   7.879   3.358   1.505 -0.1833 -0.4456  0.3634
   68MOL   C22324477   7.879   3.331   1.366 -0.4966  0.8909  0.3710
   68MOL   C22424478   0.131   3.276   1.320  0.0123  0.4556  0.6984
   68MOL   C22524479   0.139   3.205   1.184  0.0588 -0.3371  0.3300
   68MOL   H22624480   0.058   3.564   1.831 -0.5884  0.7995  0.4508
   68MOL   H22724481   0.067   3.564   1.661 -0.1645  1.1023 -0.1403
   68MOL   H22824482   7.680   3.471   1.739  0.3716  1.4435 -1.0193
   68MOL   H22924483   7.806   3.252   1.347  0.1580  0.0948  1.0904
   68MOL   H23024484   7.856   3.407   1.292 -3.6388 -1.8838 -1.6957
   68MOL   H23124485   0.215   3.345   1.328 -0.4186  0.9978  0.5673
   68MOL   H23224486   0.159   3.197   1.389  0.2932 -0.9497 -0.9853
   68MOL   H23324487   0.094   3.266   1.106 -1.5358  0.3402  1.7532
   68MOL   H23424488   0.088   3.109   1.178 -1.4009  0.1564  3.7652
   68MOL   H23524489   0.244   3.181   1.168  0.3935  1.1781  0.1522
   68MOL   C23624490   7.832   3.319   1.787  0.2459 -1.0178  0.1094
   68MOL   C23724491   7.827   3.315   1.941 -0.1268  0.2112 -0.2089
   68MOL   C23824492   7.679   3.309   1.972  0.1140 -0.2083 -0.7754
   68MOL   O23924493   7.595   3.245   1.908  0.5981 -0.2285 -0.6355
   68MOL   O24024494   7.645   3.373   2.078  0.2444 -0.4999  0.0769
   68MOL   C24124495   7.518   3.373   2.140  0.9838 -0.5802 -0.1515
   68MOL   C24224496   7.501   3.309   2.278 -0.5105  0.0551  0.0042
   68MOL   C24324497   7.538   3.161   2.291  0.3950 -0.7608  0.3830
   68MOL   H24424498   0.051   3.304   1.745  0.0775 -0.8091 -0.3664
   68MOL   H24524499   7.779   3.234   1.744  0.6295 -0.7330 -0.9526
   68MOL   H24624500   7.865   3.412   1.971  0.6714 -0.5585  1.3744
   68MOL   H24724501   7.486   3.477   2.145  0.8724 -0.6855  1.5292
   68MOL   H24824502   7.440   3.326   2.080  1.0325  0.3146 -0.9188
   68MOL   H24924503   7.558   3.382   2.335 -2.6681  1.6083  0.2441
   68MOL   H25024504   7.398   3.330   2.305  0.0621 -0.5349  2.8123
   68MOL   H25124505   7.453   3.105   2.251 -1.6895  0.3743  3.0869
   68MOL   H25224506   7.552   3.127   2.393  0.9767 -2.1226 -0.1368
   68MOL   H25324507   7.628   3.140   2.233 -0.4782 -0.8810 -0.9399
   68MOL   C25424508   0.036   3.206   2.004  0.6928 -0.1443  0.0009
   68MOL   C25524509   0.188   3.213   1.969 -0.2320  0.5450  0.3028
   68MOL   C25624510   0.258   3.325   2.051 -0.6047 -0.1013  0.0383
   68MOL   O25724511   0.349   3.303   2.125 -0.4322  0.2153  0.9935
   68MOL   O25824512   0.215   3.449   2.018  0.1167  0.3044  0.4172
   68MOL   C25924513   0.255   3.560   2.102  0.0091 -0.0672  0.7582
   68MOL   C26024514   0.347   3.652   2.024 -0.4619 -0.0273  0.1574
   68MOL   C26124515   0.480   3.585   1.967  0.1770  0.2279  0.7059
   68MOL   H26224516   0.004   3.111   1.962  0.9628  0.5100 -1.7256
   68MOL   H26324517   0.015   3.203   2.111 -1.2856  0.7385 -0.3535
   68MOL   H26424518   0.201   3.237   1.863  0.3062 -3.7018 -0.6620
   68MOL   H26524519   0.163   3.608   2.136 -0.2307  0.2769 -0.3777
   68MOL   H26624520   0.317   3.520   2.182  0.1386  0.4780  0.9380
   68MOL   H26724521   0.290   3.703   1.946 -0.6599  1.8284  1.5027
   68MOL   H26824522   0.389   3.727   2.091  0.9929 -0.9642  0.3189
   68MOL   H26924523   0.554   3.663   1.952  0.8304 -0.3836  0.7440
   68MOL   H27024524   0.468   3.515   1.884 -0.2424  0.0169  0.9435
   68MOL   H27124525   0.514   3.525   2.051  2.8021  0.2077 -0.3125
   68MOL   C27224526   0.248   3.066   1.984  0.4104 -0.0495 -0.3415
   68MOL   C27324527   0.382   3.037   1.915 -0.0321  0.1675  0.0328
   68MOL   C27424528   0.481   2.944   1.980 -0.3130  0.7002 -0.3817
   68MOL   O27524529   0.603   2.943   1.967 -0.4443 -0.5387 -1.1128
   68MOL   O27624530   0.417   2.866   2.064 -0.0426 -0.8175 -0.8237
   68MOL   C27724531   0.486   2.765   2.135 -0.2533  0.1983 -0.2064
   68MOL   C27824532   0.404   2.633   2.127 -0.0303  0.0896  0.2130
   68MOL   C27924533   0.366   2.591   1.988  0.6722 -0.5169  0.3437
   68MOL   H28024534   0.191   2.981   1.945  1.4030  0.2066 -2.4141
   68MOL   H28124535   0.255   3.051   2.092 -0.2466 -0.3878 -0.3391
   68MOL   H28224536   0.439   3.131   1.908  0.9331 -0.4867 -0.9577
   68MOL   H28324537   0.585   2.747   2.093  0.1172  0.7622  0.4068
   68MOL   H28424538   0.493   2.782   2.242 -2.6603 -2.4068  0.4224
   68MOL   H28524539   0.464   2.559   2.181  0.9357  0.0848 -0.8457
   68MOL   H28624540   0.315   2.635   2.190  0.2465 -1.4282  0.6887
   68MOL   H28724541   0.276   2.638   1.949  0.8849 -1.4136 -1.2613
   68MOL   H28824542   0.350   2.484   1.976 -1.9837  0.0281 -1.2324
   68MOL   H28924543   0.451   2.619   1.925 -0.2114 -0.7777 -0.9920
   68MOL   C29024544   0.352   2.965   1.778 -0.1025  0.7019  0.3311
   68MOL   C29124545   0.257   3.042   1.681 -0.4626 -0.5323 -0.9367
   68MOL   C29224546   0.325   3.167   1.623 -0.1663  0.0366  0.3204
   68MOL   O29324547   0.299   3.277   1.674  0.4203  0.2202  0.2602
   68MOL   O29424548   0.426   3.142   1.534 -0.6165 -0.6282 -0.0495
   68MOL   C29524549   0.516   3.248   1.499 -0.1385  0.1099  1.0482
   68MOL   C29624550   0.663   3.203   1.482 -0.1192  0.0817  0.7730
   68MOL   C29724551   0.714   3.121   1.596  0.0998  0.0886  0.3240
   68MOL   H29824552   0.325   2.861   1.797  1.3926  0.0737 -0.8720
   68MOL   H29924553   0.446   2.963   1.723  0.8375 -0.9841  1.9191
   68MOL   H30024554   0.167   3.071   1.735  0.7477  0.6090  0.4965
   68MOL   H30124555   0.486   3.300   1.408 -1.0083 -0.8023  0.8081
   68MOL   H30224556   0.521   3.313   1.586 -0.8161  1.1795  0.2986
   68MOL   H30324557   0.671   3.146   1.390 -0.3904  1.7645 -0.3282
   68MOL   H30424558   0.741   3.279   1.481  1.9465 -2.0109  0.0157
   68MOL   H30524559   0.821   3.100   1.590 -0.0781 -0.2187 -1.8128
   68MOL   H30624560   0.654   3.031   1.606 -1.3446  0.9889 -0.0986
   68MOL   H30724561   0.702   3.177   1.689  2.2487 -2.4357  2.1952
   68MOL   C30824562   0.201   2.954   1.572 -0.0624 -0.1401 -0.8816
   68MOL   C30924563   0.139   2.817   1.612 -0.5825  0.0671 -0.3162
   68MOL   C31024564   0.025   2.840   1.717 -0.7744 -0.1448 -0.5417
   68MOL   O31124565   0.035   2.791   1.826  0.2791  0.1381  0.4119
   68MOL   O31224566   7.800   2.918   1.668 -0.4654 -0.1407 -0.4824
   68MOL   C31324567   7.708   2.974   1.761  0.7293  0.5480  0.0114
   68MOL   C31424568   7.600   2.865   1.792  0.1318  0.0683  0.3039
   68MOL   C31524569   7.519   2.920   1.907  0.1104 -1.2198  0.2717
   68MOL   H31624570   0.281   2.934   1.501 -1.6559  1.3403 -3.1447
   68MOL   H31724571   0.127   3.012   1.517 -2.5095 -0.1184  2.2440
   68MOL   H31824572   0.211   2.757   1.666 -0.4792 -0.1185 -0.6564
   68MOL   H31924573   7.749   2.991   1.861 -1.6163  2.0483  0.7697
   68MOL   H32024574   7.663   3.063   1.716 -0.6471 -0.6630 -1.0413
   68MOL   H32124575   7.533   2.843   1.708  0.2504 -0.2594  0.2931
   68MOL   H32224576   7.644   2.769   1.817  1.1188  1.2220  3.0648
   68MOL   H32324577   7.451   2.846   1.949 -0.2602 -0.4532  1.0440
   68MOL   H32424578   7.581   2.959   1.988  1.9305 -1.8727 -0.7842
   68MOL   H32524579   7.467   3.010   1.875  0.3817 -0.5786  1.5866
   68MOL   C32624580   0.087   2.736   1.488  0.3372  0.0894  0.0485
   68MOL   C32724581   0.202   2.657   1.421 -0.3797  0.1674 -0.0931
   68MOL   C32824582   0.262   2.551   1.509 -0.0580  0.6924  0.4894
   68MOL   O32924583   0.197   2.511   1.606  0.1829  0.1387 -0.1940
   68MOL   O33024584   0.388   2.499   1.467  0.3343 -0.3019  0.2326
   68MOL   C33124585   0.467   2.429   1.561  0.5292 -0.1855 -0.0930
   68MOL   C33224586   0.607   2.408   1.503  0.6474  0.1607  0.1971
   68MOL   C33324587   0.713   2.342   1.594  0.5925  0.9918  0.1417
   68MOL   H33424588   0.028   2.801   1.424  0.2133 -1.1237 -1.0643
   68MOL   H33524589   0.016   2.662   1.525 -0.4280  2.0597  2.7359
   68MOL   H33624590   0.283   2.727   1.402  0.3133 -0.6381 -0.1416
   68MOL   H33724591   0.463   2.493   1.648 -2.9504  0.7458 -0.8934
   68MOL   H33824592   0.428   2.331   1.589 -0.6440 -0.3488 -2.1523
   68MOL   H33924593   0.594   2.338   1.420  1.4559 -1.2496  1.2306
   68MOL   H34024594   0.637   2.510   1.478 -1.2577  1.1166  1.7168
   68MOL   H34124595   0.716   2.402   1.685 -0.3035 -0.1638  0.9452
   68MOL   H34224596   0.681   2.246   1.634  0.3982 -0.5630 -3.5804
   68MOL   H34324597   0.807   2.331   1.541 -0.1182 -1.2715 -0.7069
   68MOL   C34424598   0.161   2.606   1.279  0.0804 -0.5555 -0.5709
   68MOL   C34524599   0.124   2.697   1.164 -0.1316  0.1836  0.3408
   68MOL   C34624600   0.249   2.744   1.093  0.1784  0.7143 -0.7145
   68MOL   O34724601   0.270   2.720   0.975 -0.3536 -0.0457 -0.2257
   68MOL   O34824602   0.319   2.819   1.169  0.4068  0.5050  0.0311
   68MOL   C34924603   0.435   2.881   1.109  0.1341  0.0976 -0.9246
   68MOL   C35024604   0.524   2.950   1.219  0.9021 -0.1732  0.2071
   68MOL   C35124605   0.571   2.847   1.322  0.2081  0.5903 -0.0100
   68MOL   H35224606   0.083   2.533   1.298  0.8872 -0.6618  2.6211
   68MOL   H35324607   0.241   2.539   1.245  1.0998  1.7157 -2.8411
   68MOL   H35424608   0.070   2.781   1.210 -1.0401 -0.3025  0.1791
   68MOL   H35524609   0.493   2.804   1.059  1.5769  0.0851  0.7224
   68MOL   H35624610   0.405   2.959   1.039 -3.0115  0.6465  0.9207
   68MOL   H35724611   0.605   2.995   1.162  0.3604  0.4606 -0.0669
   68MOL   H35824612   0.464   3.029   1.264  2.0223  0.7006  0.2140
   68MOL   H35924613   0.493   2.805   1.385 -2.0241  1.2916 -2.2558
   68MOL   H36024614   0.602   2.764   1.259 -2.3564  0.8149 -1.6242
   68MOL   H36124615   0.655   2.878   1.384 -0.0314  1.5749 -0.1733
   68MOL   H36224616   0.058   2.650   1.091  0.2941 -0.2662  0.2479
   69MOL     C124617   6.037   6.315   3.789 -0.4147  0.2698  0.0158
   69MOL     C224618   6.085   6.384   3.664  0.1008 -0.1678 -0.5622
   69MOL     C324619   6.226   6.337   3.614 -0.1762  0.1778  0.0926
   69MOL     O424620   6.328   6.384   3.661 -0.5347 -0.2386 -0.0865
   69MOL     O524621   6.218   6.240   3.522  0.2205 -0.1746 -0.4773
   69MOL     C624622   6.330   6.208   3.444  0.1099  0.6670  0.1973
   69MOL     C724623   6.322   6.077   3.373 -0.2926  0.3435  0.0023
   69MOL     C824624   6.348   5.959   3.469 -0.2238 -0.0007  0.7612
   69MOL     H924625   5.942   6.353   3.828  1.1247  1.2851  2.8970
   69MOL    H1024626   6.016   6.212   3.761  1.4621  0.1769 -1.1176
   69MOL    H1124627   6.117   6.484   3.693  1.4017 -1.0646  1.2324
   69MOL    H1224628   6.329   6.286   3.368 -1.6679  1.4736  1.0063
   69MOL    H1324629   6.421   6.200   3.503  0.0161 -0.5566  0.1836
   69MOL    H1424630   6.231   6.076   3.313 -0.6866  4.1655  0.4389
   69MOL    H1524631   6.406   6.068   3.304  1.1231 -4.0892  2.0498
   69MOL    H1624632   6.439   5.979   3.525  0.2791 -0.8475  0.2649
   69MOL    H1724633   6.278   5.918   3.541  1.3605 -0.0779  2.2921
   69MOL    H1824634   6.360   5.869   3.409  2.4412 -0.1129  1.3710
   69MOL    H1924635   6.118   6.311   3.861 -1.3610  1.5202  1.1881
   69MOL    C2024636   5.975   6.371   3.549  0.1201 -0.3006  0.2469
   69MOL    C2124637   6.009   6.462   3.425  0.8957  0.3760 -0.6241
   69MOL    C2224638   5.912   6.419   3.310 -0.0454 -0.1577  0.5701
   69MOL    O2324639   5.811   6.352   3.330  0.4306  0.1772  0.7521
   69MOL    O2424640   5.959   6.462   3.191 -0.5361 -0.4197  0.6056
   69MOL    C2524641   5.898   6.409   3.073  0.1726 -0.1646 -0.4369
   69MOL    C2624642   5.956   6.462   2.941  0.1056  0.2900 -0.0337
   69MOL    C2724643   5.907   6.383   2.815 -0.8393  0.0109  0.0478
   69MOL    H2824644   5.879   6.404   3.589  0.0207  1.3856 -1.3358
   69MOL    H2924645   5.961   6.270   3.510  0.9081  0.2429 -1.4785
   69MOL    H3024646   6.107   6.435   3.386  0.6820  1.2911 -1.8283
   69MOL    H3124647   5.920   6.302   3.081 -2.7347 -0.8074 -0.3071
   69MOL    H3224648   5.789   6.404   3.077  0.2273 -1.0126  0.1370
   69MOL    H3324649   5.925   6.566   2.931 -1.1506  0.1021  1.6962
   69MOL    H3424650   6.065   6.459   2.938  0.0440 -1.7697 -2.2399
   69MOL    H3524651   5.812   6.429   2.791 -1.5879 -1.8107 -0.5538
   69MOL    H3624652   5.908   6.276   2.836 -0.7380  0.2276  1.1851
   69MOL    H3724653   5.968   6.399   2.726  0.3335  2.2861  1.2038
   69MOL    C3824654   6.009   6.617   3.458  0.0311  0.3002  0.0651
   69MOL    C3924655   6.137   6.698   3.459  0.0695 -0.6225  0.2952
   69MOL    C4024656   6.198   6.715   3.318  0.1382 -0.1207 -0.7001
   69MOL    O4124657   6.299   6.653   3.291 -0.4141  0.3744  0.0939
   69MOL    O4224658   6.133   6.794   3.243  0.2315 -0.6172 -0.2791
   69MOL    C4324659   6.168   6.797   3.105  0.0913  0.1127 -0.1098
   69MOL    C4424660   6.077   6.918   3.040 -0.0941 -0.2179 -0.0202
   69MOL    C4524661   5.927   6.879   3.033  0.0538  0.5558  0.8016
   69MOL    H4624662   5.974   6.622   3.561  0.4639  0.3563  0.2139
   69MOL    H4724663   5.934   6.665   3.395  1.1351  0.9518 -0.7760
   69MOL    H4824664   6.205   6.624   3.501 -1.5032 -1.3023  1.7263
   69MOL    H4924665   6.275   6.814   3.092 -0.1423  1.3400 -0.4781
   69MOL    H5024666   6.144   6.707   3.047 -0.5047  0.1005  0.1515
   69MOL    H5124667   6.092   7.009   3.099  0.2126 -0.2295 -0.0791
   69MOL    H5224668   6.128   6.942   2.947  1.4621  0.5545  1.0180
   69MOL    H5324669   5.920   6.792   2.968 -3.1112  0.9410  0.5593
   69MOL    H5424670   5.869   6.962   2.992  0.4873  0.8246  0.7318
   69MOL    H5524671   5.899   6.856   3.135 -0.2281 -0.8103  0.4175
   69MOL    C5624672   6.142   6.817   3.557 -0.2437 -0.1906 -0.1145
   69MOL    C5724673   6.057   6.946   3.527  0.7357 -0.8385  1.2158
   69MOL    C5824674   5.906   6.918   3.519  0.1895  0.6815 -0.5581
   69MOL    O5924675   5.847   6.866   3.616 -0.1110  0.2630 -0.5601
   69MOL    O6024676   5.857   6.948   3.394  0.5889 -0.7029  0.3933
   69MOL    C6124677   5.717   6.945   3.369 -0.7695 -0.0837 -0.2122
   69MOL    C6224678   5.665   6.808   3.329  1.1432  0.1729  0.0319
   69MOL    C6324679   5.513   6.822   3.304  0.6148 -0.1952 -0.0174
   69MOL    H6424680   6.243   6.856   3.570 -0.4639 -0.1216  1.5042
   69MOL    H6524681   6.114   6.786   3.658  3.5876  2.3998  1.8641
   69MOL    H6624682   6.083   6.974   3.424  1.7366  0.3778  1.7889
   69MOL    H6724683   5.666   6.981   3.458 -1.4826  0.4696 -0.8327
   69MOL    H6824684   5.694   7.019   3.292  1.1015 -0.0992 -0.8024
   69MOL    H6924685   5.712   6.778   3.235  1.3712  0.4357  0.0626
   69MOL    H7024686   5.675   6.731   3.405  0.5750  1.2828  1.2414
   69MOL    H7124687   5.501   6.887   3.218  3.0437  1.9425  1.1626
   69MOL    H7224688   5.456   6.847   3.393  1.9889 -0.8122  1.0523
   69MOL    H7324689   5.493   6.719   3.275  0.4864 -0.3007  0.4489
   69MOL    C7424690   6.083   7.060   3.627  0.4471  0.0740 -0.3357
   69MOL    C7524691   6.181   7.156   3.559 -0.4013  0.0741  0.6885
   69MOL    C7624692   6.124   7.222   3.433 -0.0111  0.2392  0.0640
   69MOL    O7724693   6.005   7.238   3.413  0.8594 -0.0561  0.4346
   69MOL    O7824694   6.214   7.255   3.339  0.5960 -0.2400  0.0121
   69MOL    C7924695   6.167   7.338   3.230 -0.4909 -0.1131  0.0634
   69MOL    C8024696   6.289   7.404   3.162  0.2319  0.6885 -0.5106
   69MOL    C8124697   6.390   7.305   3.101 -0.8053 -0.0613  0.8930
   69MOL    H8224698   6.128   7.021   3.718  1.2745  0.7193 -0.4651
   69MOL    H8324699   5.989   7.111   3.644 -0.5074 -0.6601 -3.0545
   69MOL    H8424700   6.271   7.105   3.527  0.3360  1.3893  0.6153
   69MOL    H8524701   6.107   7.280   3.159 -0.6955 -0.0160  0.1565
   69MOL    H8624702   6.101   7.418   3.264 -0.5637 -0.9514  1.9361
   69MOL    H8724703   6.236   7.456   3.082  1.7328  2.5132 -0.3456
   69MOL    H8824704   6.325   7.475   3.235 -2.0636  0.8447  0.5033
   69MOL    H8924705   6.446   7.342   3.015  0.7900 -0.5189  1.7143
   69MOL    H9024706   6.348   7.208   3.076 -0.6036 -0.4391  2.0100
   69MOL    H9124707   6.463   7.277   3.176 -0.6276 -0.3007  0.6312
   69MOL    C9224708   6.233   7.261   3.657 -0.4213  0.1258 -0.1124
   69MOL    C9324709   6.338   7.216   3.763 -0.3984  0.7959  0.0472
   69MOL    C9424710   6.451   7.142   3.695 -0.2554 -0.2585  0.4126
   69MOL    O9524711   6.463   7.021   3.704  0.1746 -0.2820  0.4348
   69MOL    O9624712   6.512   7.212   3.608  0.3061  0.6970 -0.2271
   69MOL    C9724713   6.595   7.144   3.511  0.4582  0.1790 -0.6174
   69MOL    C9824714   6.522   7.076   3.396  0.0731  0.0231  1.1361
   69MOL    C9924715   6.628   7.010   3.297 -0.4313  0.7314 -0.5714
   69MOL   H10024716   6.142   7.294   3.707 -0.0462 -0.5409  1.0037
   69MOL   H10124717   6.267   7.348   3.599 -2.4143  0.5717 -0.6656
   69MOL   H10224718   6.282   7.139   3.815  0.6382 -1.6431 -2.2809
   69MOL   H10324719   6.669   7.215   3.474  1.2403 -1.8752 -3.1632
   69MOL   H10424720   6.659   7.080   3.572 -0.2427  0.0121 -0.0547
   69MOL   H10524721   6.462   7.001   3.448 -2.1833  0.6366 -0.5240
   69MOL   H10624722   6.462   7.138   3.331  0.7458 -1.8830 -1.3647
   69MOL   H10724723   6.594   6.952   3.212  1.1414  0.0003 -0.7138
   69MOL   H10824724   6.705   6.961   3.356 -1.5364  1.1720  1.3177
   69MOL   H10924725   6.688   7.091   3.258  0.0579  1.1938  1.0968
   69MOL   C11024726   6.391   7.321   3.861 -0.5258 -0.0900  0.4936
   69MOL   C11124727   6.494   7.266   3.965  0.1669 -0.3195 -0.4696
   69MOL   C11224728   6.542   7.367   4.075 -0.1306  0.4911  0.0215
   69MOL   O11324729   6.653   7.415   4.074  0.0275  0.5377  0.9791
   69MOL   O11424730   6.448   7.407   4.153 -0.4543  0.2162  0.4239
   69MOL   C11524731   6.481   7.489   4.265 -0.3349 -0.5879  0.0791
   69MOL   C11624732   6.392   7.449   4.378  0.2676  0.7504  0.1363
   69MOL   C11724733   6.409   7.528   4.508  0.3030  0.0006  0.3095
   69MOL   H11824734   6.303   7.349   3.919  0.4613 -0.3015  2.1116
   69MOL   H11924735   6.438   7.407   3.813  0.8929 -1.3170 -0.3655
   69MOL   H12024736   6.586   7.237   3.913 -0.4583 -1.0838 -1.1604
   69MOL   H12124737   6.581   7.462   4.299 -0.3375 -1.3868 -0.5302
   69MOL   H12224738   6.476   7.590   4.223  0.3454 -1.6308 -2.6479
   69MOL   H12324739   6.289   7.470   4.349 -0.0358 -1.0757 -0.1619
   69MOL   H12424740   6.402   7.345   4.408 -0.9764  0.6856  0.3104
   69MOL   H12524741   6.348   7.487   4.589 -0.0357  0.7464  0.4410
   69MOL   H12624742   6.370   7.627   4.486 -1.8159 -0.8363  0.1012
   69MOL   H12724743   6.508   7.547   4.547 -0.4824  0.2209  2.2453
   69MOL   C12824744   6.455   7.138   4.043  0.1442 -0.1308  0.1282
   69MOL   C12924745   6.563   7.060   4.113  0.3550  0.3044 -0.2327
   69MOL   C13024746   6.510   6.970   4.220 -0.0762 -0.6132 -0.0128
   69MOL   O13124747   6.392   6.977   4.258  0.2289 -0.0824 -0.2730
   69MOL   O13224748   6.606   6.886   4.268 -0.6524  0.2842  0.0366
   69MOL   C13324749   6.576   6.811   4.384  0.3990 -0.0958 -0.5469
   69MOL   C13424750   6.696   6.729   4.415 -0.2556  0.1497  0.0580
   69MOL   C13524751   6.689   6.650   4.543 -0.5232  0.2339 -0.4863
   69MOL   H13624752   6.408   7.063   3.979 -0.5812  0.0050  0.5006
   69MOL   H13724753   6.369   7.167   4.103 -0.6873 -0.5154 -0.8552
   69MOL   H13824754   6.623   7.131   4.170  2.0296 -1.7274  0.5889
   69MOL   H13924755   6.548   6.886   4.457 -0.5336 -2.6480  1.8123
   69MOL   H14024756   6.490   6.746   4.366  0.5047  0.2445 -2.3862
   69MOL   H14124757   6.714   6.671   4.325  0.1410 -0.6025  0.6159
   69MOL   H14224758   6.787   6.790   4.422 -0.7192  0.8093  0.3840
   69MOL   H14324759   6.658   6.727   4.614 -1.7982  0.6986 -1.5257
   69MOL   H14424760   6.785   6.623   4.586 -0.6811  2.2195  1.1730
   69MOL   H14524761   6.625   6.563   4.555 -0.9888  0.6125 -0.2032
   69MOL   C14624762   6.644   6.983   4.007  0.5462  0.6184 -0.1977
   69MOL   C14724763   6.792   6.946   4.051 -0.4851 -0.6421 -0.1529
   69MOL   C14824764   6.840   6.820   3.977 -0.5677 -0.5333 -0.7141
   69MOL   O14924765   6.926   6.817   3.891 -1.0687 -0.0574  0.0639
   69MOL   O15024766   6.772   6.713   4.016  0.4979  0.4837 -0.0995
   69MOL   C15124767   6.801   6.586   3.956  0.2601  0.8235  0.4538
   69MOL   C15224768   6.802   6.478   4.066  0.0635 -0.2097 -0.8117
   69MOL   C15324769   6.907   6.371   4.041  0.6241  1.2406 -0.4191
   69MOL   H15424770   6.641   7.037   3.912  1.7474  3.1583  1.1478
   69MOL   H15524771   6.585   6.896   3.978 -0.1081  1.0062 -0.0322
   69MOL   H15624772   6.801   6.918   4.156  0.0812 -0.8852 -0.2631
   69MOL   H15724773   6.715   6.563   3.893 -0.6238  0.7136  1.6783
   69MOL   H15824774   6.889   6.579   3.892 -0.3544  1.9600 -0.5234
   69MOL   H15924775   6.816   6.520   4.165 -1.8134 -0.6822 -0.3322
   69MOL   H16024776   6.708   6.424   4.060  0.0846 -0.2874 -0.4580
   69MOL   H16124777   7.013   6.398   4.045  0.3729  2.5023 -1.6715
   69MOL   H16224778   6.897   6.317   3.946  0.2296  1.4519 -0.4986
   69MOL   H16324779   6.887   6.302   4.123 -2.8255  0.5933 -1.7091
   69MOL   C16424780   6.879   7.074   4.029 -0.3750 -0.7966 -0.2329
   69MOL   C16524781   6.995   7.081   4.131 -0.6861  0.9802 -0.7306
   69MOL   C16624782   7.120   7.001   4.084 -0.0330  0.3621  0.1937
   69MOL   O16724783   7.201   7.052   4.006  0.5707 -0.2293 -0.5594
   69MOL   O16824784   7.133   6.884   4.145 -0.0240  0.3042  0.2023
   69MOL   C16924785   7.231   6.788   4.096  0.4339  0.4031 -0.5054
   69MOL   C17024786   7.182   6.640   4.093  0.4190  0.2315 -0.0394
   69MOL   C17124787   7.171   6.569   4.228 -0.6579 -0.5800  0.0431
   69MOL   H17224788   6.809   7.156   4.048  1.7366  0.7133  1.2272
   69MOL   H17324789   6.908   7.092   3.926  1.1981 -0.3570  0.2747
   69MOL   H17424790   6.963   7.042   4.228 -1.0459  2.1181 -0.3859
   69MOL   H17524791   7.270   6.813   3.997  1.1989  0.1713 -0.2703
   69MOL   H17624792   7.318   6.791   4.161  0.5878 -0.3224 -0.6730
   69MOL   H17724793   7.088   6.645   4.037  1.5466 -0.5560 -2.0357
   69MOL   H17824794   7.240   6.580   4.024 -0.2175  0.5989 -0.9094
   69MOL   H17924795   7.083   6.598   4.286  0.8050 -1.1166  2.6416
   69MOL   H18024796   7.261   6.588   4.286  0.3934 -0.5002 -1.5851
   69MOL   H18124797   7.174   6.460   4.220 -0.8784 -0.4866 -1.4671
   69MOL   C18224798   7.033   7.225   4.165 -0.0476 -0.2515  0.5056
   69MOL   C18324799   6.935   7.307   4.234  0.0980 -0.4320  0.5360
   69MOL   C18424800   6.877   7.241   4.364 -0.4050  0.0302 -0.3748
   69MOL   O18524801   6.766   7.187   4.376 -0.5105 -0.1115  0.1234
   69MOL   O18624802   6.967   7.257   4.462  0.2062 -0.2426 -0.0656
   69MOL   C18724803   6.960   7.178   4.581  0.0340 -0.0324  0.1831
   69MOL   C18824804   7.000   7.032   4.551 -0.0182 -0.2370 -0.9311
   69MOL   C18924805   6.976   6.926   4.664  0.0602 -0.7135  0.1308
   69MOL   H19024806   7.059   7.281   4.076 -2.3157 -2.4727 -1.6500
   69MOL   H19124807   7.126   7.219   4.222  0.9118 -2.3580 -1.2019
   69MOL   H19224808   6.848   7.320   4.170  0.9153 -0.0377 -0.5050
   69MOL   H19324809   7.018   7.226   4.660 -1.0844  3.4067 -0.9533
   69MOL   H19424810   6.856   7.180   4.613  0.2390  3.9304  0.9203
   69MOL   H19524811   6.957   6.998   4.456 -1.5923 -0.6996 -0.0795
   69MOL   H19624812   7.101   7.040   4.512 -0.0121 -1.8575 -1.3029
   69MOL   H19724813   7.044   6.841   4.655  0.9648  0.2218 -2.4513
   69MOL   H19824814   6.871   6.901   4.652 -0.4282  0.9110  0.9837
   69MOL   H19924815   6.988   6.967   4.764  0.6251  0.8749 -0.5733
   69MOL   C20024816   6.979   7.461   4.255 -0.4106  0.4073 -0.8892
   69MOL   C20124817   6.870   7.554   4.306  0.0016  0.6834 -0.8185
   69MOL   C20224818   6.879   7.544   4.464 -0.2272  0.3670 -0.5146
   69MOL   O20324819   6.790   7.496   4.528 -0.4531  0.1567 -0.9324
   69MOL   O20424820   6.991   7.599   4.512  0.0970 -0.2553  0.3555
   69MOL   C20524821   7.011   7.605   4.652 -0.1477  0.2906  0.1019
   69MOL   C20624822   7.157   7.646   4.685  0.1278  0.0767  0.1359
   69MOL   C20724823   7.196   7.783   4.618 -0.1415  0.3811  0.2209
   69MOL   H20824824   7.006   7.493   4.154 -0.7295  1.2364 -0.7111
   69MOL   H20924825   7.065   7.458   4.322 -1.0840  2.1039  0.0704
   69MOL   H21024826   6.777   7.521   4.258 -1.2790  0.5964  1.6086
   69MOL   H21124827   6.955   7.683   4.703  0.7380  0.3481  1.0041
   69MOL   H21224828   6.980   7.511   4.698 -1.7798 -0.4870 -2.4756
   69MOL   H21324829   7.166   7.667   4.792  0.6562 -1.8467  0.4760
   69MOL   H21424830   7.233   7.576   4.653  0.3134 -0.2945  1.3635
   69MOL   H21524831   7.296   7.821   4.640 -0.4795  0.7379  1.1381
   69MOL   H21624832   7.128   7.868   4.628 -0.5461  0.1528 -0.4884
   69MOL   H21724833   7.204   7.763   4.511  0.9231  0.8233  0.2146
   69MOL   C21824834   6.892   7.701   4.258  0.4875  0.4226  0.2971
   69MOL   C21924835   6.801   7.810   4.313 -0.0173 -0.0885 -0.5090
   69MOL   C22024836   6.844   7.876   4.443  0.3207 -0.1642 -0.2442
   69MOL   O22124837   6.958   0.044   4.454  0.4467 -0.2694 -0.0094
   69MOL   O22224838   6.749   0.010   4.531  0.2204 -0.2062  0.1911
   69MOL   C22324839   6.752   0.102   4.637 -0.2157 -0.0507  0.4452
   69MOL   C22424840   6.625   0.201   4.610 -0.3081  0.3186  0.1771
   69MOL   C22524841   6.487   0.142   4.587  0.2848  0.1785  0.5377
   69MOL   H22624842   6.894   7.709   4.149  0.5860 -2.0166  0.0825
   69MOL   H22724843   6.996   7.720   4.284  1.5827 -1.9003 -2.0821
   69MOL   H22824844   6.703   7.763   4.321 -0.5241  1.0590  0.0890
   69MOL   H22924845   6.739   0.045   4.729  2.0844  0.0497  0.8561
   69MOL   H23024846   6.850   0.148   4.647 -0.7081  1.9530 -3.3600
   69MOL   H23124847   6.626   0.261   4.701  4.1553 -0.0415  0.4898
   69MOL   H23224848   6.649   0.249   4.515 -1.7182 -1.8305 -1.3083
   69MOL   H23324849   6.407   0.215   4.575  1.5455  1.5086  0.0692
   69MOL   H23424850   6.451   0.080   4.669 -0.6873  1.1320  0.8538
   69MOL   H23524851   6.486   0.073   4.502  1.9283  0.1626  0.5311
   69MOL   C23624852   6.780   0.046   4.205 -0.4610  0.0703 -0.2874
   69MOL   C23724853   6.695   0.004   4.079 -0.8423 -0.1057 -0.0192
   69MOL   C23824854   6.547   7.852   4.107 -0.1883  0.1795  0.4822
   69MOL   O23924855   6.506   7.864   4.224  0.1468  0.3969 -0.2110
   69MOL   O24024856   6.477   7.795   4.006  0.2895  0.2680  0.6694
   69MOL   C24124857   6.339   7.760   4.016 -0.4052 -0.2913 -0.2783
   69MOL   C24224858   6.288   7.806   3.883 -0.1641  0.1619 -0.1669
   69MOL   C24324859   6.281   0.076   3.858 -0.2183  0.0376 -0.2255
   69MOL   H24424860   6.872   0.094   4.170 -0.0750 -0.8407 -0.5539
   69MOL   H24524861   6.726   0.128   4.250 -1.3789 -0.5165 -0.3163
   69MOL   H24624862   6.746   7.800   4.031 -0.3830 -1.1865  2.3011
   69MOL   H24724863   6.333   7.652   4.033 -1.3922 -0.5427 -2.0960
   69MOL   H24824864   6.292   7.795   4.108  1.1193 -1.9864  1.1840
   69MOL   H24924865   6.340   7.772   3.794 -0.5631 -0.6559 -0.0985
   69MOL   H25024866   6.184   7.774   3.870  0.2174 -0.9173 -0.6248
   69MOL   H25124867   6.210   0.123   3.925 -0.7761 -1.0971 -0.0136
   69MOL   H25224868   6.261   0.092   3.752 -0.9254 -1.4563 -0.3252
   69MOL   H25324869   6.381   0.113   3.880  0.8435 -3.5805  1.5711
   69MOL   C25424870   6.694   0.111   3.971 -0.3195  0.1386  0.6682
   69MOL   C25524871   6.819   0.122   3.891 -0.2713 -0.3346 -0.3253
   69MOL   C25624872   6.827   0.034   3.767  0.2620  0.2563 -0.6539
   69MOL   O25724873   6.917   7.835   3.740  0.4267 -0.3522  0.1412
   69MOL   O25824874   6.718   0.039   3.688 -0.1267 -0.8066 -0.4291
   69MOL   C25924875   6.698   7.830   3.579 -0.6757  0.3250  0.3952
   69MOL   C26024876   6.743   0.015   3.447  0.2266 -0.5341  0.0087
   69MOL   C26124877   6.670   0.143   3.405  0.5740 -0.1998 -0.2043
   69MOL   H26224878   6.672   0.207   4.016  0.6971  0.0866  1.2835
   69MOL   H26324879   6.608   0.079   3.912 -1.4963  0.1925  2.3169
   69MOL   H26424880   6.904   0.104   3.957  0.6139  2.1718 -0.7217
   69MOL   H26524881   6.742   7.732   3.596 -0.8412  0.3412  0.9447
   69MOL   H26624882   6.591   7.809   3.569 -0.3808 -1.0443  0.0001
   69MOL   H26724883   6.851   0.024   3.434  0.5367 -1.8375  1.4657
   69MOL   H26824884   6.717   7.821   3.372  0.9238  0.1159 -0.8968
   69MOL   H26924885   6.694   0.164   3.301 -1.3387 -0.2734 -0.6854
   69MOL   H27024886   6.704   0.224   3.469  1.4027 -1.9902  1.6631
   69MOL   H27124887   6.561   0.134   3.405  0.4799  0.3795 -3.2973
   69MOL   C27224888   6.854   0.265   3.858  0.3966  0.3749  0.7205
   69MOL   C27324889   6.772   0.346   3.752  0.1199  0.5279  0.0456
   69MOL   C27424890   6.627   0.374   3.784  0.1258 -0.8452  0.6674
   69MOL   O27524891   6.598   0.434   3.884 -0.9053  0.4362 -0.1401
   69MOL   O27624892   6.551   0.360   3.679 -0.1017 -0.0973  0.3833
   69MOL   C27724893   6.419   0.398   3.678 -0.6142 -0.0916 -0.0198
   69MOL   C27824894   6.354   0.316   3.568  0.7837  0.4943 -0.3326
   69MOL   C27924895   6.200   0.328   3.574  0.1102 -0.5101 -0.2291
   69MOL   H28024896   6.956   0.271   3.819  1.4104 -2.6236  2.7399
   69MOL   H28124897   6.858   0.324   3.949 -2.2146  1.3820  0.2112
   69MOL   H28224898   6.773   0.289   3.659  1.7565  0.0277  0.3596
   69MOL   H28324899   6.376   0.391   3.778 -0.2436  1.6398  0.2657
   69MOL   H28424900   6.429   0.506   3.668  2.3715 -0.3966 -0.8406
   69MOL   H28524901   6.391   0.347   3.470 -3.1135  1.8003 -1.5041
   69MOL   H28624902   6.381   0.212   3.585 -2.0014  0.0779  1.9259
   69MOL   H28724903   6.156   0.296   3.669 -0.9940  0.2011 -0.4848
   69MOL   H28824904   6.151   0.275   3.493 -0.8375  0.4371 -0.2873
   69MOL   H28924905   6.165   0.430   3.558 -0.5319 -0.6246  0.3998
   69MOL   C29024906   6.840   0.485   3.716 -0.2245 -0.3567 -0.4562
   69MOL   C29124907   6.951   0.475   3.608 -0.1634 -0.5406 -0.5576
   69MOL   C29224908   6.891   0.426   3.477 -0.5760 -0.8955 -0.4747
   69MOL   O29324909   6.930   0.328   3.418 -0.2024  0.8532 -0.5490
   69MOL   O29424910   6.787   0.499   3.435  0.2187 -0.1588 -0.1348
   69MOL   C29524911   6.734   0.475   3.299 -0.8140  0.4986 -0.5020
   69MOL   C29624912   6.708   0.613   3.236  0.6045  0.2834 -0.4089
   69MOL   C29724913   6.677   0.607   3.081 -0.3413 -0.1278  0.3333
   69MOL   H29824914   6.880   0.528   3.808 -1.9974  2.0327 -0.7475
   69MOL   H29924915   6.773   0.563   3.681 -0.9831 -1.5635 -1.7329
   69MOL   H30024916   7.010   0.394   3.652 -1.4704 -0.8309  0.6782
   69MOL   H30124917   6.815   0.426   3.244  1.0207 -0.6816  3.0782
   69MOL   H30224918   6.638   0.425   3.312  0.5918 -2.2798 -0.4551
   69MOL   H30324919   6.620   0.652   3.288  1.5522 -0.6262  1.9395
   69MOL   H30424920   6.785   0.684   3.265 -0.3297  0.8758  0.6475
   69MOL   H30524921   6.585   0.559   3.049 -1.3325  2.4898 -0.8778
   69MOL   H30624922   6.767   0.584   3.024 -0.0823  0.0903  0.6478
   69MOL   H30724923   6.655   0.705   3.039  0.2604 -1.0308 -2.1542
   69MOL   C30824924   7.031   0.607   3.609  1.1613 -0.5421 -0.4662
   69MOL   C30924925   7.171   0.604   3.538  0.3594 -0.0362 -0.5536
   69MOL   C31024926   7.193   0.746   3.480 -0.7256 -0.1127 -0.0953
   69MOL   O31124927   7.170   0.768   3.362  0.0858 -0.5227  0.3152
   69MOL   O31224928   7.249   0.839   3.563  0.2201 -0.6721 -0.0530
   69MOL   C31324929   7.259   0.973   3.527 -0.1386  0.4758 -0.2484
   69MOL   C31424930   7.386   0.997   3.444 -0.1674  0.5536  0.0380
   69MOL   C31524931   7.412   1.144   3.414 -0.2308  1.1478 -0.5044
   69MOL   H31624932   7.031   0.638   3.713 -0.3424 -0.9828 -0.3156
   69MOL   H31724933   6.963   0.681   3.567  0.9821  0.1939  1.1035
   69MOL   H31824934   7.141   0.548   3.449 -2.1272  0.8193 -0.2854
   69MOL   H31924935   7.166   1.012   3.485  0.8013  1.1822 -1.7021
   69MOL   H32024936   7.277   1.026   3.621 -1.1302  0.8849 -0.2825
   69MOL   H32124937   7.469   0.949   3.495 -0.4592  0.6275  0.5844
   69MOL   H32224938   7.387   0.953   3.344  0.3243  1.5352 -0.3947
   69MOL   H32324939   7.344   1.180   3.337 -0.1803 -0.5034 -1.3484
   69MOL   H32424940   7.392   1.211   3.498 -0.7949 -1.1783  1.2595
   69MOL   H32524941   7.509   1.167   3.369 -0.0207 -0.2682 -0.8076
   69MOL   C32624942   7.294   0.554   3.625 -0.1693 -0.3444  0.6632
   69MOL   C32724943   7.294   0.400   3.664  0.7389 -0.3461 -0.0100
   69MOL   C32824944   7.284   0.313   3.536 -0.1730 -0.4222 -0.3548
   69MOL   O32924945   7.341   0.347   3.433 -0.4147 -0.3852  0.4047
   69MOL   O33024946   7.208   0.202   3.546 -0.0180 -0.7739 -0.0416
   69MOL   C33124947   7.189   0.110   3.438  0.0767  0.5993 -0.2640
   69MOL   C33224948   7.197   7.847   3.490  0.4569  0.1198  0.6644
   69MOL   C33324949   7.197   7.750   3.375 -0.1828 -0.2995  1.1557
   69MOL   H33424950   7.302   0.615   3.715  1.6374 -0.2738  0.4796
   69MOL   H33524951   7.390   0.581   3.579 -0.7960  1.4324  0.3470
   69MOL   H33624952   7.208   0.378   3.727  2.3903 -2.7437  1.4976
   69MOL   H33724953   7.105   0.144   3.378 -1.6596 -0.3135  1.5980
   69MOL   H33824954   7.268   0.130   3.365 -1.6101 -1.1360 -2.6336
   69MOL   H33924955   7.289   7.833   3.547  0.9666  0.1518 -0.1371
   69MOL   H34024956   7.109   7.837   3.552  0.3199  2.1033  0.8351
   69MOL   H34124957   7.282   7.772   3.311  0.6437 -0.0678  2.3073
   69MOL   H34224958   7.221   7.649   3.410 -0.0715 -0.7093 -0.0594
   69MOL   H34324959   7.103   7.748   3.320 -0.1449  1.7831  0.9780
   69MOL   C34424960   7.414   0.362   3.753 -0.4216 -0.1142  0.4794
   69MOL   C34524961   7.417   0.210   3.795  0.2369 -0.5769  0.1498
   69MOL   C34624962   7.326   0.175   3.916 -0.7922  0.6259 -0.0431
   69MOL   O34724963   7.269   0.265   3.982 -0.2443  0.2468  0.3125
   69MOL   O34824964   7.311   0.047   3.920  0.3581 -0.1930 -0.3528
   69MOL   C34924965   7.239   7.870   4.027 -0.2687  0.1755 -0.1041
   69MOL   C35024966   7.226   7.721   4.015  0.0993 -0.1939 -0.7544
   69MOL   C35124967   7.147   7.659   3.900  0.2206 -0.4483 -0.5634
   69MOL   H35224968   7.413   0.431   3.837 -0.3692  0.5779 -0.0895
   69MOL   H35324969   7.496   0.385   3.685 -1.9889  2.1191 -0.6887
   69MOL   H35424970   7.518   0.180   3.820  0.6437  2.0087  1.8622
   69MOL   H35524971   7.295   0.006   4.119 -0.5498  0.4676  0.0157
   69MOL   H35624972   7.148   0.046   4.048  0.4078  1.1601  0.1852
   69MOL   H35724973   7.329   7.687   4.006 -0.0614 -0.2555 -2.5780
   69MOL   H35824974   7.184   7.684   4.108  1.4102  1.6945  0.6130
   69MOL   H35924975   7.039   7.680   3.903  0.5035  1.1351 -0.6968
   69MOL   H36024976   7.186   7.707   3.811  1.6131  1.2216  0.9066
   69MOL   H36124977   7.153   7.552   3.883 -3.1872 -1.2399  2.4028
   69MOL   H36224978   7.401   0.139   3.714  0.0433 -0.2426 -0.1065
   70MOL     C124979   2.729   5.242   0.779  0.3283  0.4066 -0.5741
   70MOL     C224980   2.701   5.352   0.887  0.1765 -0.8108 -0.5691
   70MOL     C324981   2.601   5.315   0.993  0.7093 -0.0561 -0.3989
   70MOL     O424982   2.629   5.301   1.110  0.0599  0.1118 -0.8742
   70MOL     O524983   2.484   5.289   0.939 -0.1879 -0.0847  0.4573
   70MOL     C624984   2.364   5.289   1.015 -0.7888  0.4109  0.6936
   70MOL     C724985   2.238   5.307   0.930  0.1540 -0.2304  0.0934
   70MOL     C824986   2.230   5.441   0.864  0.5527  0.2979  0.2807
   70MOL     H924987   2.718   5.138   0.809  0.2809  0.5527 -0.0810
   70MOL    H1024988   2.661   5.247   0.694  0.0763 -2.7757 -0.6276
   70MOL    H1124989   2.666   5.438   0.831 -1.7170 -2.2121 -1.5800
   70MOL    H1224990   2.361   5.192   1.065  2.3439 -0.5306 -0.7923
   70MOL    H1324991   2.374   5.368   1.090  1.4494  2.3028 -1.4966
   70MOL    H1424992   2.240   5.233   0.850  0.6452 -0.0333 -0.0786
   70MOL    H1524993   2.155   5.289   0.999 -0.8235  0.5314 -0.8743
   70MOL    H1624994   2.128   5.464   0.834  0.7546  0.0757 -0.5808
   70MOL    H1724995   2.262   5.528   0.922 -0.0334 -0.5035  1.8568
   70MOL    H1824996   2.295   5.442   0.777  1.5830  3.6672  1.0181
   70MOL    H1924997   2.829   5.253   0.737  0.4749 -1.3501 -0.7417
   70MOL    C2024998   2.834   5.405   0.953 -0.2533  0.1214  0.0363
   70MOL    C2124999   2.825   5.541   1.035  0.1291 -0.5069 -0.1014
   70MOL    C2225000   2.963   5.569   1.090  0.1376  0.1644 -0.0234
   70MOL    O2325001   2.977   5.573   1.216 -0.5942 -0.3970 -0.2444
   70MOL    O2425002   3.056   5.599   0.995 -0.3454 -0.5334  0.1247
   70MOL    C2525003   3.187   5.651   1.037  0.1015 -0.0847  0.2301
   70MOL    C2625004   3.171   5.802   1.052  0.0574  0.2760  0.3022
   70MOL    C2725005   3.134   5.881   0.929  0.3879  0.1907 -0.2743
   70MOL    H2825006   2.912   5.419   0.878  1.4880  0.2574  1.8453
   70MOL    H2925007   2.871   5.325   1.017  1.1747  0.7727  0.0413
   70MOL    H3025008   2.763   5.529   1.123  0.8359 -0.3976  0.4177
   70MOL    H3125009   3.220   5.611   1.132  0.8520 -2.5633 -1.0242
   70MOL    H3225010   3.268   5.635   0.966  0.7817  0.0811  0.9703
   70MOL    H3325011   3.103   5.826   1.133  0.3295 -0.6890  0.8226
   70MOL    H3425012   3.270   5.840   1.075 -0.2496  1.1617  0.2164
   70MOL    H3525013   3.035   5.858   0.889 -0.0802 -1.9798  2.0361
   70MOL    H3625014   3.198   5.860   0.843  1.3804 -2.5107  1.0595
   70MOL    H3725015   3.128   5.987   0.954  2.1889  0.3378 -0.3648
   70MOL    C3825016   2.776   5.669   0.954 -0.8338  0.3683 -0.1667
   70MOL    C3925017   2.620   5.694   0.944  0.1764  0.7732  0.2675
   70MOL    C4025018   2.543   5.695   1.080  0.1256 -0.8643  0.5367
   70MOL    O4125019   2.434   5.635   1.108 -0.2473  0.0577  0.0577
   70MOL    O4225020   2.609   5.771   1.171  0.8243  0.4874  0.0061
   70MOL    C4325021   2.570   5.775   1.307 -0.1176  0.2283  0.2290
   70MOL    C4425022   2.439   5.853   1.321  0.1213  0.2736  0.5086
   70MOL    C4525023   2.464   6.001   1.294  0.3354  0.5524  1.0921
   70MOL    H4625024   2.814   5.674   0.852 -1.3236 -0.6435 -0.4059
   70MOL    H4725025   2.819   5.754   1.007  1.4760 -0.2578 -0.9444
   70MOL    H4825026   2.578   5.620   0.876  2.1744  1.0833 -1.3646
   70MOL    H4925027   2.561   5.677   1.353 -2.5953  0.6797  0.7517
   70MOL    H5025028   2.651   5.815   1.368 -0.2339 -0.8685  1.1107
   70MOL    H5125029   2.358   5.822   1.256 -1.3347  2.4959  1.2100
   70MOL    H5225030   2.409   5.838   1.425  0.2705  1.0035  0.6662
   70MOL    H5325031   2.488   6.006   1.188  0.2738 -2.2325  0.9066
   70MOL    H5425032   2.556   6.035   1.342  2.4420  0.2363 -2.5007
   70MOL    H5525033   2.380   6.061   1.327 -2.5786 -2.4226 -0.5866
   70MOL    C5625034   2.585   5.822   0.875  0.0879  0.0045 -0.2952
   70MOL    C5725035   2.453   5.825   0.794  0.1888  0.8584  0.2967
   70MOL    C5825036   2.353   5.928   0.856 -0.0662  0.3163  0.5809
   70MOL    O5925037   2.317   6.036   0.799 -0.1556  0.1159  0.2844
   70MOL    O6025038   2.310   5.897   0.978  0.1991  0.4462 -0.3651
   70MOL    C6125039   2.207   5.982   1.047 -0.3049 -0.5876  0.2233
   70MOL    C6225040   2.075   5.894   1.049 -0.6912  0.0147  0.0262
   70MOL    C6325041   1.955   5.979   1.094 -0.1899  0.0521  0.0367
   70MOL    H6425042   2.661   5.848   0.801 -1.6499  0.7634 -1.8535
   70MOL    H6525043   2.601   5.899   0.951 -0.9236 -0.9548  0.9044
   70MOL    H6625044   2.404   5.729   0.812  0.4021  1.0835  2.1455
   70MOL    H6725045   2.238   6.015   1.147  0.3364  0.9218 -0.4484
   70MOL    H6825046   2.199   6.070   0.983 -3.5527 -0.3836  0.8372
   70MOL    H6925047   2.048   5.866   0.947 -0.0044 -2.5712  0.5154
   70MOL    H7025048   2.088   5.803   1.108  0.2531  0.2555  0.1908
   70MOL    H7125049   1.912   6.037   1.012  0.0276 -0.5928 -0.5356
   70MOL    H7225050   1.978   6.036   1.185  1.0974 -0.1877 -0.1301
   70MOL    H7325051   1.879   5.909   1.128  0.0228 -0.9211 -1.4502
   70MOL    C7425052   2.476   5.840   0.640 -0.2040 -0.6442 -0.6019
   70MOL    C7525053   2.363   5.803   0.540 -0.2418  0.2608  0.7799
   70MOL    C7625054   2.411   5.849   0.403  0.3314  0.0701 -0.2216
   70MOL    O7725055   2.344   5.935   0.348 -0.0310 -0.4490  0.2374
   70MOL    O7825056   2.525   5.805   0.348 -0.5823  0.6828  0.3488
   70MOL    C7925057   2.555   5.848   0.215  0.5095  0.0901  0.3318
   70MOL    C8025058   2.641   5.745   0.134  0.0867 -0.3462 -0.5513
   70MOL    C8125059   2.557   5.616   0.098  0.0651  0.0640  0.1304
   70MOL    H8225060   2.567   5.785   0.617  1.0489  0.5092  1.4053
   70MOL    H8325061   2.512   5.941   0.621 -0.2081 -0.2351  1.3741
   70MOL    H8425062   2.278   5.861   0.576  0.7756  2.4719 -0.2834
   70MOL    H8525063   2.456   5.848   0.169 -1.0031  0.3808  3.4649
   70MOL    H8625064   2.596   5.949   0.225 -1.3314  0.7929  0.9376
   70MOL    H8725065   2.685   5.801   0.051  1.7706  0.2237  0.7133
   70MOL    H8825066   2.729   5.708   0.185 -1.2680  0.3630  2.4197
   70MOL    H8925067   2.595   5.564   0.010  1.5670  0.8765  0.2946
   70MOL    H9025068   2.451   5.632   0.080 -0.7045 -1.8871  2.6107
   70MOL    H9125069   2.571   5.542   0.177  0.7192 -0.9136 -0.8806
   70MOL    C9225070   2.346   5.650   0.543 -0.3902 -0.6462 -0.8729
   70MOL    C9325071   2.233   5.601   0.450  0.1176  0.3239 -0.9467
   70MOL    C9425072   2.291   5.490   0.363 -0.2603 -0.3649 -0.6815
   70MOL    O9525073   2.291   5.499   0.243  0.1903 -0.4326 -0.0444
   70MOL    O9625074   2.336   5.378   0.435 -0.0997 -0.3316  0.1144
   70MOL    C9725075   2.375   5.258   0.367 -0.1976  0.6622 -0.6028
   70MOL    C9825076   2.252   5.178   0.311 -0.2717  0.0532 -0.0775
   70MOL    C9925077   2.174   5.111   0.418 -0.4611  0.2055 -0.3010
   70MOL   H10025078   2.328   5.618   0.646  0.4231 -1.6501 -1.0312
   70MOL   H10125079   2.445   5.606   0.530  0.5106  0.6687  1.1999
   70MOL   H10225080   2.202   5.692   0.398 -0.7679  0.9610  0.6502
   70MOL   H10325081   2.450   5.279   0.291  0.0640 -1.2598 -0.9085
   70MOL   H10425082   2.436   5.197   0.433  0.9561  0.5227 -1.7715
   70MOL   H10525083   2.183   5.244   0.259 -0.1624  1.4600  1.5059
   70MOL   H10625084   2.285   5.100   0.243  0.0717 -1.9430  2.2874
   70MOL   H10725085   2.145   5.180   0.497 -0.4868  0.4036 -0.4831
   70MOL   H10825086   2.219   5.034   0.480 -2.1584 -0.7387 -0.2050
   70MOL   H10925087   2.079   5.072   0.382  0.2743 -0.5025 -1.5166
   70MOL   C11025088   2.109   5.561   0.535  0.7408  0.2677  0.3528
   70MOL   C11125089   2.000   5.491   0.450  0.3682  0.5056  0.4818
   70MOL   C11225090   1.892   5.438   0.547 -0.9474  0.2922 -0.1775
   70MOL   O11325091   1.880   5.324   0.581 -0.3138  0.2667  0.1937
   70MOL   O11425092   1.816   5.539   0.591 -0.6158  0.2415 -0.9303
   70MOL   C11525093   1.710   5.515   0.682 -0.7506 -0.3624  0.4927
   70MOL   C11625094   1.776   5.488   0.821 -0.1207 -0.0573  0.3327
   70MOL   C11725095   1.847   5.609   0.890  0.1566 -0.4127  0.6798
   70MOL   H11825096   2.067   5.655   0.571  0.5191  0.2570  0.1177
   70MOL   H11925097   2.156   5.511   0.620  2.5783 -0.7120 -1.2143
   70MOL   H12025098   2.048   5.401   0.410 -1.6125 -0.9907  1.3617
   70MOL   H12125099   1.642   5.601   0.685  0.8914  0.9542  0.7788
   70MOL   H12225100   1.656   5.429   0.642 -0.1704 -0.5696  0.1538
   70MOL   H12325101   1.703   5.440   0.887 -0.2315 -0.6202 -0.1975
   70MOL   H12425102   1.852   5.411   0.808  1.0277  1.0339  0.5130
   70MOL   H12525103   1.773   5.689   0.902  2.0180  1.5181 -0.3673
   70MOL   H12625104   1.924   5.656   0.830  0.5398 -3.1969 -1.0957
   70MOL   H12725105   1.915   5.584   0.971  1.1930 -1.9558 -0.6370
   70MOL   C12825106   1.947   5.572   0.330  0.1442  0.9682 -0.1666
   70MOL   C12925107   1.897   5.481   0.215 -0.1255  0.0612  0.5330
   70MOL   C13025108   1.766   5.407   0.242 -0.0565 -1.0521 -0.8489
   70MOL   O13125109   1.767   5.287   0.249  0.4696  0.1192  0.3473
   70MOL   O13225110   1.668   5.482   0.279  0.4712 -0.0660  0.4020
   70MOL   C13325111   1.558   5.420   0.346  0.2727 -0.2271  0.3030
   70MOL   C13425112   1.452   5.527   0.357  0.4778 -0.6326 -0.1077
   70MOL   C13525113   1.483   5.625   0.467  0.4053 -0.0154 -0.0681
   70MOL   H13625114   2.030   5.634   0.293 -1.4964  2.9340 -0.6568
   70MOL   H13725115   1.862   5.633   0.360  0.2722  1.1275 -0.1235
   70MOL   H13825116   1.971   5.402   0.218 -0.0883  0.1357  1.5678
   70MOL   H13925117   1.511   5.338   0.292  0.8566 -0.3269 -0.0597
   70MOL   H14025118   1.582   5.379   0.444 -0.7156 -0.2759  0.5299
   70MOL   H14125119   1.415   5.571   0.265 -0.3334 -0.1341  0.4535
   70MOL   H14225120   1.371   5.476   0.408  0.8305  0.6926  1.8571
   70MOL   H14325121   1.402   5.697   0.478 -0.9619 -1.4474 -0.6886
   70MOL   H14425122   1.579   5.672   0.444 -0.4911  0.4168 -3.1205
   70MOL   H14525123   1.490   5.571   0.561 -1.4241 -1.9541 -1.0147
   70MOL   C14625124   1.885   5.554   0.075 -0.0324 -0.2690 -0.0903
   70MOL   C14725125   2.022   5.578   7.880 -0.0218  0.5366 -0.0413
   70MOL   C14825126   2.097   5.446   7.840  0.0543  0.0578 -0.0052
   70MOL   O14925127   2.059   5.331   7.861  0.3327 -0.7309  0.3098
   70MOL   O15025128   2.222   5.478   7.788 -0.2042  0.4648 -0.4091
   70MOL   C15125129   2.299   5.381   7.722  0.4494  0.6153  0.3208
   70MOL   C15225130   2.384   5.304   7.821  0.1179 -0.2036  0.1067
   70MOL   C15325131   2.450   5.179   7.756  0.6439  0.2200 -0.4899
   70MOL   H15425132   1.827   5.644   0.096 -0.3692 -0.2938 -0.8898
   70MOL   H15525133   1.822   5.493   0.010  0.1110 -0.2174 -0.2787
   70MOL   H15625134   2.082   5.638   0.067  0.7746  1.2584 -1.3751
   70MOL   H15725135   2.231   5.310   7.676  3.7191 -0.8222 -2.4325
   70MOL   H15825136   2.359   5.438   7.652 -2.1261  0.0229 -2.4570
   70MOL   H15925137   2.457   5.372   7.864 -0.2500  0.3157 -0.0909
   70MOL   H16025138   2.330   5.273   0.030  1.9844 -1.4104  0.8564
   70MOL   H16125139   2.381   5.109   7.708  3.1570 -1.8112 -1.2527
   70MOL   H16225140   2.489   5.120   7.839  1.3667  0.6119 -0.5527
   70MOL   H16325141   2.542   5.186   7.698  1.0422 -0.2883  0.0724
   70MOL   C16425142   2.000   5.657   7.746 -0.5728  0.2475 -0.1532
   70MOL   C16525143   1.929   5.799   7.758  0.0227  0.0542 -0.5080
   70MOL   C16625144   1.996   5.904   7.850  0.7663  0.0600  0.0974
   70MOL   O16725145   1.931   5.974   0.049 -0.0329  0.4074 -0.2231
   70MOL   O16825146   2.134   5.892   7.845 -0.1125 -0.0798 -0.0286
   70MOL   C16925147   2.205   5.979   0.045 -0.4814 -0.4389  0.2250
   70MOL   C17025148   2.329   6.031   7.851  1.1029  0.0497 -0.7161
   70MOL   C17125149   2.404   6.145   0.043  0.0081  0.0450  0.5957
   70MOL   H17225150   1.936   5.591   7.687 -0.1666 -0.1060 -0.1953
   70MOL   H17325151   2.093   5.673   7.691 -0.9843  0.5674 -0.7669
   70MOL   H17425152   1.828   5.784   7.795  0.0279 -3.0742 -1.6341
   70MOL   H17525153   2.141   6.063   0.072  1.5590  1.9316 -2.0716
   70MOL   H17625154   2.228   5.937   0.144 -0.3086 -0.8658  0.0043
   70MOL   H17725155   2.394   5.944   7.850 -0.7280 -1.3461 -0.6360
   70MOL   H17825156   2.309   6.062   7.748 -0.8964  0.4626 -0.2192
   70MOL   H17925157   2.485   6.177   7.858  0.2810 -0.9892  0.4244
   70MOL   H18025158   2.442   6.108   0.138  0.7228  0.3288  0.4224
   70MOL   H18125159   2.336   6.230   0.056  0.9284  1.0578 -1.1074
   70MOL   C18225160   1.903   5.868   7.613  0.0930  0.3881 -0.1471
   70MOL   C18325161   1.821   5.783   7.517 -0.3873 -0.0588 -0.3657
   70MOL   C18425162   1.672   5.784   7.547  0.0004  0.2825  0.2146
   70MOL   O18525163   1.595   5.837   7.468  0.4422  0.3237 -0.8014
   70MOL   O18625164   1.635   5.716   7.657 -0.1291 -0.0656 -0.0075
   70MOL   C18725165   1.494   5.688   7.686 -0.2571 -0.5307 -0.4333
   70MOL   C18825166   1.501   5.583   7.803  0.0133 -0.7383 -0.0049
   70MOL   C18925167   1.359   5.533   7.837  0.2210  0.0607  0.1144
   70MOL   H19025168   2.001   5.894   7.571  0.1337 -2.5945 -2.0618
   70MOL   H19125169   1.861   5.969   7.618  0.4259  0.5936 -1.2951
   70MOL   H19225170   1.858   5.681   7.522 -1.9306 -0.7941 -2.9546
   70MOL   H19325171   1.450   5.785   7.710  0.4069 -0.1361 -0.7934
   70MOL   H19425172   1.440   5.654   7.597  2.3084  0.6673 -2.5361
   70MOL   H19525173   1.563   5.501   7.770 -0.9768 -1.7087  0.5128
   70MOL   H19625174   1.539   5.623   0.017 -2.0237  0.3154  0.4223
   70MOL   H19725175   1.306   5.508   7.745  0.3235  1.6162 -0.3820
   70MOL   H19825176   1.297   5.603   0.013  0.0353  0.3220 -0.4191
   70MOL   H19925177   1.371   5.447   0.023  1.2284 -0.5582 -0.8508
   70MOL   C20025178   1.840   5.819   7.366  0.4014  0.3186  0.6389
   70MOL   C20125179   1.973   5.804   7.306 -0.7570  0.2579 -0.8440
   70MOL   C20225180   2.057   5.684   7.347  0.3091 -0.4190 -0.9998
   70MOL   O20325181   2.005   5.574   7.337 -0.2166 -0.1508 -0.5165
   70MOL   O20425182   2.186   5.708   7.366  0.1594 -0.1109 -0.1921
   70MOL   C20525183   2.268   5.607   7.429 -0.1551  0.2075  0.2707
   70MOL   C20625184   2.406   5.664   7.460  0.2167 -0.3514 -0.2041
   70MOL   C20725185   2.409   5.804   7.523  0.0394  0.1267  0.0715
   70MOL   H20825186   1.812   5.922   7.345 -2.1614 -0.7897 -1.7965
   70MOL   H20925187   1.776   5.753   7.307 -0.8535 -0.1104  2.4317
   70MOL   H21025188   2.036   5.877   7.357  0.2254 -0.8463 -0.4796
   70MOL   H21125189   2.227   5.580   7.526  1.5795  0.1381  1.0033
   70MOL   H21225190   2.275   5.521   7.363 -0.9497 -0.4364  1.0150
   70MOL   H21325191   2.451   5.596   7.532  3.3582  2.1455  0.2907
   70MOL   H21425192   2.458   5.659   7.364  1.0486  4.0492 -0.0786
   70MOL   H21525193   2.508   5.832   7.559 -0.1146  1.3963 -0.4693
   70MOL   H21625194   2.347   5.823   7.611 -0.0027 -0.4894  0.1768
   70MOL   H21725195   2.363   5.872   7.452 -0.1514 -0.1440 -0.0636
   70MOL   C21825196   1.985   5.823   7.154 -0.0158 -0.2183  0.2148
   70MOL   C21925197   2.033   5.956   7.096 -0.2922  0.4338 -0.0837
   70MOL   C22025198   1.944   6.074   7.148  0.4951 -0.1991  0.1581
   70MOL   O22125199   1.975   6.142   7.239  0.3890 -0.0119 -0.7294
   70MOL   O22225200   1.835   6.082   7.078  0.1716  0.1966 -0.0888
   70MOL   C22325201   1.731   6.164   7.124 -0.2690 -0.7651 -0.6960
   70MOL   C22425202   1.606   6.072   7.122  0.5076  0.2186 -0.0890
   70MOL   C22525203   1.482   6.157   7.134 -0.9370  0.0772 -0.0024
   70MOL   H22625204   1.888   5.801   7.111  0.9794 -2.3636 -1.0159
   70MOL   H22725205   2.050   5.747   7.110  1.3557 -0.0602  1.9024
   70MOL   H22825206   2.007   5.964   6.990  0.8398 -1.2595 -0.4965
   70MOL   H22925207   1.744   6.209   7.222  1.9680 -1.9601 -0.4215
   70MOL   H23025208   1.720   6.245   7.052 -1.9307  0.9152  1.3843
   70MOL   H23125209   1.607   6.025   7.024 -0.3502 -1.6490  0.7787
   70MOL   H23225210   1.623   5.981   7.180  2.1875  2.1744  2.5984
   70MOL   H23325211   1.485   6.237   7.060  2.0496 -0.7600 -0.8572
   70MOL   H23425212   1.482   6.214   7.228 -0.0941 -0.3937  0.2897
   70MOL   H23525213   1.391   6.098   7.122 -0.8753  0.3496 -1.9308
   70MOL   C23625214   2.189   5.964   7.110 -0.5386  0.2360  0.2369
   70MOL   C23725215   2.257   6.081   7.035 -0.1411 -0.1851  0.1847
   70MOL   C23825216   2.384   6.119   7.112 -0.1488 -0.0084  0.1331
   70MOL   O23925217   2.396   6.231   7.161 -0.4195  0.9708  0.0020
   70MOL   O24025218   2.476   6.026   7.114  0.5248  0.0984 -0.1892
   70MOL   C24125219   2.595   6.056   7.172  0.4911  0.3358  0.3633
   70MOL   C24225220   2.627   5.943   7.271  0.1944  0.0624  0.5205
   70MOL   C24325221   2.663   5.811   7.196  0.5829  0.5256 -0.5133
   70MOL   H24425222   2.227   5.871   7.068  2.0332  1.1012  0.5463
   70MOL   H24525223   2.217   5.981   7.214 -0.0287  0.4567  0.0678
   70MOL   H24625224   2.178   6.156   7.037 -1.5955 -1.5926 -1.7915
   70MOL   H24725225   2.665   6.063   7.089  0.5276 -1.5431  0.2330
   70MOL   H24825226   2.600   6.151   7.227  1.6199  1.8823 -2.3057
   70MOL   H24925227   2.706   5.974   7.339  1.9041 -0.7537 -1.0572
   70MOL   H25025228   2.543   5.928   7.338  0.1042  2.2564  0.9348
   70MOL   H25125229   2.710   5.834   7.100 -1.3046  0.1903 -1.5335
   70MOL   H25225230   2.564   5.767   7.182  1.1114 -0.7793 -0.2038
   70MOL   H25325231   2.733   5.749   7.251 -0.5922  0.7779  1.3304
   70MOL   C25425232   2.275   6.045   6.885  0.1574 -0.0377 -0.6161
   70MOL   C25525233   2.260   6.167   6.787 -0.2776 -0.3594 -0.0474
   70MOL   C25625234   2.388   6.245   6.768 -0.0614  0.1179  0.0800
   70MOL   O25725235   2.499   6.192   6.782 -0.3834  0.0195 -0.5192
   70MOL   O25825236   2.367   6.371   6.713  0.4381 -0.2013  0.4339
   70MOL   C25925237   2.471   6.459   6.683  0.3335  0.0920  0.4483
   70MOL   C26025238   2.451   6.503   6.543 -0.3313 -0.0553  0.5739
   70MOL   C26125239   2.304   6.550   6.503  0.1160 -0.2346  0.2814
   70MOL   H26225240   2.207   5.964   6.858  1.9512 -1.4635 -0.9650
   70MOL   H26325241   2.377   6.007   6.880  0.7656  1.2077  1.5691
   70MOL   H26425242   2.204   6.249   6.831 -1.3309 -0.8322 -0.4968
   70MOL   H26525243   2.454   6.547   6.745  1.4057  1.7069 -1.5044
   70MOL   H26625244   2.570   6.414   6.692  0.9934  1.6780  1.1617
   70MOL   H26725245   2.528   6.577   6.521 -0.7035  0.0348 -0.4437
   70MOL   H26825246   2.491   6.428   6.474 -1.1965 -2.6452  2.8216
   70MOL   H26925247   2.263   6.610   6.584 -0.6920  0.1211 -0.3833
   70MOL   H27025248   2.239   6.462   6.505 -0.9800  0.5628  0.0907
   70MOL   H27125249   2.281   6.614   6.419 -1.1937 -1.3256 -0.2111
   70MOL   C27225250   2.204   6.128   6.652 -0.0942  0.1075  0.1535
   70MOL   C27325251   2.046   6.125   6.644 -0.5080 -1.0109 -0.4753
   70MOL   C27425252   1.981   6.262   6.677  0.1168  0.1134 -0.6104
   70MOL   O27525253   2.034   6.371   6.650 -0.8109  0.7829 -0.3322
   70MOL   O27625254   1.863   6.246   6.731 -0.6295  0.0712  0.2548
   70MOL   C27725255   1.785   6.359   6.775  0.1743  0.0661  0.1028
   70MOL   C27825256   1.646   6.309   6.785 -0.1353  0.1391  0.5589
   70MOL   C27925257   1.556   6.433   6.809  0.2434 -0.3692 -0.5348
   70MOL   H28025258   2.251   6.033   6.628 -1.5487 -1.3125  2.6858
   70MOL   H28125259   2.232   6.202   6.577  1.2271 -0.2119  0.3234
   70MOL   H28225260   2.014   6.064   6.728 -0.4271  0.2312  0.4746
   70MOL   H28325261   1.829   6.406   6.863  0.2208 -0.6162  0.4454
   70MOL   H28425262   1.791   6.438   6.701  0.4048 -0.6236 -0.6195
   70MOL   H28525263   1.620   6.261   6.691 -0.0934 -1.3420  1.2949
   70MOL   H28625264   1.631   6.226   6.854 -0.9905 -0.7561 -0.7017
   70MOL   H28725265   1.554   6.463   6.914  0.5606 -0.2989 -0.5486
   70MOL   H28825266   1.454   6.415   6.775 -0.4801 -1.8614  2.2700
   70MOL   H28925267   1.589   6.517   6.747 -0.6807  0.7108  0.3898
   70MOL   C29025268   1.983   6.067   6.513  0.2803  0.3390 -0.6995
   70MOL   C29125269   1.976   5.909   6.503  0.0802  0.1124  0.4516
   70MOL   C29225270   1.907   5.848   6.630 -0.3279  0.2280  0.1277
   70MOL   O29325271   1.973   5.826   6.735 -0.1714 -0.0936 -0.6204
   70MOL   O29425272   1.773   5.850   6.621  0.3290  0.1006  0.8034
   70MOL   C29525273   1.699   5.799   6.732 -0.3908  0.0786  0.2813
   70MOL   C29625274   1.558   5.805   6.686 -0.0999 -0.1518  0.3924
   70MOL   C29725275   1.465   5.754   6.797  0.7424  0.0137  0.1469
   70MOL   H29825276   2.044   6.104   6.431  0.7189 -1.5002 -1.2328
   70MOL   H29925277   1.887   6.108   6.484 -1.0260 -0.9951  1.5499
   70MOL   H30025278   2.072   5.858   6.514 -0.6562 -0.9220  2.5431
   70MOL   H30125279   1.729   5.697   6.757 -0.8989  0.0534  0.7912
   70MOL   H30225280   1.716   5.867   6.815 -2.4423  0.7337  0.1839
   70MOL   H30325281   1.534   5.902   6.644 -2.2706 -1.2360 -0.9563
   70MOL   H30425282   1.546   5.734   6.604  0.9501  0.2111 -0.0772
   70MOL   H30525283   1.457   5.827   6.878 -0.8869 -0.3986  0.3746
   70MOL   H30625284   1.493   5.655   6.833 -2.0772 -0.0419  2.3410
   70MOL   H30725285   1.365   5.748   6.753  1.2609  1.7891 -1.3343
   70MOL   C30825286   1.900   5.871   6.373 -0.0919 -0.0333 -0.5046
   70MOL   C30925287   1.959   5.934   6.248 -0.6195 -0.1813  0.5058
   70MOL   C31025288   2.084   5.860   6.205  0.4631 -0.6504  0.1638
   70MOL   O31125289   2.091   5.801   6.103 -0.2733  0.2806  0.6101
   70MOL   O31225290   2.184   5.878   6.289 -0.5883  0.1211 -0.7018
   70MOL   C31325291   2.316   5.827   6.261 -0.3226  0.7163  0.2315
   70MOL   C31425292   2.409   5.874   6.382  0.0576  0.2173  0.4065
   70MOL   C31525293   2.396   6.032   6.395 -0.2572 -0.3034  0.1195
   70MOL   H31625294   1.795   5.900   6.378 -0.3926 -0.7433 -2.3998
   70MOL   H31725295   1.911   5.764   6.358 -3.8488 -0.5460  0.0262
   70MOL   H31825296   1.996   6.035   6.269 -2.1305  0.8218 -1.4398
   70MOL   H31925297   2.316   5.720   6.240 -1.7929  0.6032  0.7076
   70MOL   H32025298   2.338   5.881   6.169 -2.3360  0.1084 -0.6388
   70MOL   H32125299   2.362   5.840   6.475 -2.1252 -0.8628 -1.0545
   70MOL   H32225300   2.514   5.848   6.367 -0.2098 -1.5102  1.3814
   70MOL   H32325301   2.438   6.086   6.310  0.1526  2.0604  1.8041
   70MOL   H32425302   2.294   6.069   6.411 -0.1389  0.1068 -0.0796
   70MOL   H32525303   2.445   6.075   6.482  1.5040 -1.9211 -0.0372
   70MOL   C32625304   1.859   5.939   6.136 -0.0845  0.1924 -0.1206
   70MOL   C32725305   1.756   6.052   6.140 -0.0835 -0.2716 -0.1854
   70MOL   C32825306   1.822   6.188   6.088  0.1025 -0.2710  0.6474
   70MOL   O32925307   1.781   6.251   5.996  0.6616 -0.5491 -0.3620
   70MOL   O33025308   1.920   6.224   6.177  0.6368 -0.2163 -0.1235
   70MOL   C33125309   1.990   6.351   6.158 -0.1532  0.7617  0.3096
   70MOL   C33225310   2.130   6.323   6.098  1.2758  0.0547 -0.0361
   70MOL   C33325311   2.239   6.300   6.203 -0.0897 -0.4834  0.4511
   70MOL   H33425312   1.804   5.845   6.137  1.3060 -0.7002 -2.3036
   70MOL   H33525313   1.911   5.945   6.040 -0.7142  1.1226 -0.4127
   70MOL   H33625314   1.728   6.063   6.244 -2.0898 -0.9825 -0.6289
   70MOL   H33725315   1.933   6.414   6.090 -0.9339  1.2386  1.3976
   70MOL   H33825316   1.992   6.408   6.251 -0.5068  0.0898  0.7355
   70MOL   H33925317   2.135   6.242   6.026 -2.7173 -1.2974  1.0973
   70MOL   H34025318   2.159   6.415   6.046 -0.5593 -0.4067 -1.9664
   70MOL   H34125319   2.330   6.270   6.151  1.6260  5.5777 -0.4825
   70MOL   H34225320   2.258   6.391   6.260  0.4417 -0.0536 -0.4066
   70MOL   H34325321   2.194   6.218   6.259  0.5892 -1.2970 -0.1926
   70MOL   C34425322   1.618   6.013   6.069  0.1732 -0.0806 -0.7916
   70MOL   C34525323   1.498   6.108   6.088  0.0447  0.4675 -0.4284
   70MOL   C34625324   1.435   6.117   6.230  0.8327  0.0095  0.5398
   70MOL   O34725325   1.455   6.028   6.313  0.2653  0.3069  0.0328
   70MOL   O34825326   1.366   6.231   6.245 -0.3815 -0.6012  0.1803
   70MOL   C34925327   1.289   6.245   6.363 -0.0646  0.3239  0.5832
   70MOL   C35025328   1.253   6.390   6.377  0.2106 -1.1107 -0.3337
   70MOL   C35125329   1.135   6.409   6.476 -0.3742 -0.4891  0.1147
   70MOL   H35225330   1.598   5.908   6.089  1.8628 -0.2236  0.2096
   70MOL   H35325331   1.646   6.012   5.963 -0.3077 -1.2219 -0.9128
   70MOL   H35425332   1.417   6.072   6.025  1.8539  0.1756 -2.6714
   70MOL   H35525333   1.202   6.179   6.357  1.2529 -1.4445  0.3997
   70MOL   H35625334   1.341   6.201   6.448 -0.6913 -1.4884  0.0570
   70MOL   H35725335   1.328   6.465   6.402 -0.0812 -0.8764 -0.1530
   70MOL   H35825336   1.228   6.428   6.278  0.5008 -3.0771 -1.1675
   70MOL   H35925337   1.090   6.507   6.495 -1.7421 -1.0009 -0.4645
   70MOL   H36025338   1.049   6.343   6.465 -1.8342  1.4775 -0.7022
   70MOL   H36125339   1.164   6.393   6.580  0.7141  0.8764  0.0322
   70MOL   H36225340   1.517   6.211   6.057 -1.8507  0.5642 -1.3681
   71MOL     C125341   7.331   7.110   3.407  0.6247  0.9347 -0.5870
   71MOL     C225342   7.223   7.213   3.382  0.7404 -0.2865  0.5999
   71MOL     C325343   7.162   7.259   3.509  0.0537  0.0510  0.2592
   71MOL     O425344   7.204   7.357   3.568  0.3538 -0.1813 -0.2096
   71MOL     O525345   7.077   7.174   3.558  0.4708 -0.3985  0.0152
   71MOL     C625346   7.014   7.196   3.678  0.2246 -0.2964 -0.8509
   71MOL     C725347   6.920   7.317   3.670 -0.3580  0.5974 -0.3162
   71MOL     C825348   6.840   7.329   3.802 -0.0628 -0.7692 -0.2912
   71MOL     H925349   7.359   7.062   3.314 -0.2852 -0.9072  0.0731
   71MOL    H1025350   7.421   7.138   3.462  0.9328 -0.4410 -0.3934
   71MOL    H1125351   7.145   7.158   3.330  2.0838 -0.8762 -0.7983
   71MOL    H1225352   6.963   7.100   3.685 -0.4523 -0.0371 -2.0624
   71MOL    H1325353   7.081   7.214   3.762  0.0664 -1.6636 -0.4212
   71MOL    H1425354   6.980   7.408   3.669 -0.9382  0.9713 -1.2215
   71MOL    H1525355   6.858   7.312   3.580  0.2637  0.1344 -0.7188
   71MOL    H1625356   6.907   7.344   3.887  1.2764  1.8912 -1.7332
   71MOL    H1725357   6.781   7.420   3.807 -0.1822 -0.9795  3.2287
   71MOL    H1825358   6.777   7.240   3.803 -1.7177  0.3777 -0.3689
   71MOL    H1925359   7.290   7.027   3.464 -1.6189  1.0849 -1.9116
   71MOL    C2025360   7.266   7.338   3.288  1.0444  0.2290 -0.5581
   71MOL    C2125361   7.223   7.322   3.142  0.0465 -0.3090  0.6048
   71MOL    C2225362   7.072   7.316   3.147 -0.7956 -0.5629  0.2703
   71MOL    O2325363   7.012   7.213   3.121  0.1485  0.4254  0.6693
   71MOL    O2425364   7.010   7.435   3.189  0.0033 -0.5760  0.2114
   71MOL    C2525365   6.873   7.452   3.191  0.6739  0.1197  0.0157
   71MOL    C2625366   6.847   7.491   3.339 -0.9683 -0.7023  0.0116
   71MOL    C2725367   6.694   7.489   3.357  0.0780 -0.3485 -0.2976
   71MOL    H2825368   7.374   7.345   3.299  1.1195  2.5535 -2.4350
   71MOL    H2925369   7.248   7.434   3.336  0.1826 -0.9879  1.6279
   71MOL    H3025370   7.258   7.226   3.104  0.4939 -0.7459  2.0946
   71MOL    H3125371   6.849   7.537   3.127 -1.3950 -0.0455  0.5379
   71MOL    H3225372   6.813   7.368   3.156  0.2591  0.7036 -0.6982
   71MOL    H3325373   6.879   7.410   3.404  1.6057  0.2426 -0.0144
   71MOL    H3425374   6.901   7.584   3.351 -0.7892 -0.9817  1.4203
   71MOL    H3525375   6.663   7.570   3.290 -1.7940 -0.6482  0.1820
   71MOL    H3625376   6.662   7.526   3.455  1.6797 -2.0631  0.9134
   71MOL    H3725377   6.648   7.394   3.330  2.0637 -0.8609 -1.9659
   71MOL    C3825378   7.283   7.432   3.041  0.4836  0.4985  0.0536
   71MOL    C3925379   7.225   7.446   2.898 -0.1454 -0.7246 -0.1524
   71MOL    C4025380   7.243   7.317   2.819  0.0536 -0.3794 -0.2390
   71MOL    O4125381   7.160   7.225   2.826  0.1335  0.1692  0.0023
   71MOL    O4225382   7.356   7.319   2.748 -0.5627  0.0863 -0.2892
   71MOL    C4325383   7.370   7.207   2.652  0.1635 -0.0413  0.0482
   71MOL    C4425384   7.484   7.118   2.684 -0.4164  0.0366 -0.7255
   71MOL    C4525385   7.612   7.201   2.675  0.2146  0.0457 -0.0123
   71MOL    H4625386   7.390   7.413   3.037  0.2660 -0.7769  0.1598
   71MOL    H4725387   7.260   7.529   3.084 -1.7398 -0.1621  0.4600
   71MOL    H4825388   7.286   7.524   2.853 -0.9926 -0.8223 -1.5001
   71MOL    H4925389   7.278   7.150   2.642 -1.0105  2.1055 -2.0436
   71MOL    H5025390   7.389   7.258   2.557 -0.3508 -0.4858 -0.3026
   71MOL    H5125391   7.479   7.071   2.782  0.1878 -1.1604 -1.2644
   71MOL    H5225392   7.497   7.036   2.613 -0.7953 -0.5258 -0.1498
   71MOL    H5325393   7.707   7.149   2.664 -0.5451 -1.3853  0.1068
   71MOL    H5425394   7.611   7.271   2.758 -1.3321 -0.2039  0.1980
   71MOL    H5525395   7.604   7.257   2.582  1.7408 -0.9763 -0.7844
   71MOL    C5625396   7.081   7.505   2.879  0.3365 -0.1628  0.2980
   71MOL    C5725397   7.038   7.571   2.744 -0.8658  0.8290 -0.8546
   71MOL    C5825398   6.890   7.605   2.763  0.2384 -0.5529  0.5013
   71MOL    O5925399   6.804   7.567   2.680 -0.2351  0.1928  0.3205
   71MOL    O6025400   6.860   7.688   2.871 -0.2874  0.1537 -0.2183
   71MOL    C6125401   6.731   7.727   2.892  0.6630  0.0044  0.2991
   71MOL    C6225402   6.725   7.819   3.013 -0.4057 -0.4293  0.0500
   71MOL    C6325403   6.583   7.823   3.070  0.7811  0.1365 -0.0764
   71MOL    H6425404   7.067   7.578   2.958 -1.0425 -3.5149  3.3048
   71MOL    H6525405   7.000   7.438   2.908  1.2353 -1.6801 -0.6034
   71MOL    H6625406   7.039   7.493   2.668 -0.7875 -1.1913  1.1765
   71MOL    H6725407   6.688   7.758   2.796 -0.4254  0.3882  0.9006
   71MOL    H6825408   6.675   7.634   2.904  1.1396 -0.1686  1.1824
   71MOL    H6925409   6.803   7.805   3.088 -1.5095  1.3504  1.5424
   71MOL    H7025410   6.743   0.036   2.967 -1.5528  0.3209  1.1647
   71MOL    H7125411   6.562   7.720   3.098 -2.1718  0.9745  0.8885
   71MOL    H7225412   6.504   7.863   3.008  0.9034 -1.3564 -1.2165
   71MOL    H7325413   6.590   0.006   3.159 -0.4863  0.6589 -0.3478
   71MOL    C7425414   7.122   7.684   2.686 -0.1713 -0.2077 -0.2561
   71MOL    C7525415   7.132   7.825   2.762  0.4971  0.3396  0.4189
   71MOL    C7625416   7.222   7.812   2.883 -0.5171 -0.7302  0.3672
   71MOL    O7725417   7.177   7.817   2.999  0.1607 -0.0960 -0.3075
   71MOL    O7825418   7.352   7.794   2.855 -0.2493 -0.1289  0.2114
   71MOL    C7925419   7.447   7.813   2.961 -0.3431  0.2953  0.0869
   71MOL    C8025420   7.500   0.075   2.971 -0.6414 -0.0504  0.2163
   71MOL    C8125421   7.590   0.115   2.854 -0.1817 -0.1117 -0.3589
   71MOL    H8225422   7.077   7.701   2.588 -0.3047 -1.1601 -0.3558
   71MOL    H8325423   7.219   7.645   2.657 -0.2210  1.1270 -2.3218
   71MOL    H8425424   7.034   7.850   2.803  0.7893 -1.2085  2.1147
   71MOL    H8525425   7.401   7.776   3.052 -0.4885  3.2014  1.2618
   71MOL    H8625426   7.523   7.738   2.937  0.1732  0.6939  0.4643
   71MOL    H8725427   7.424   0.151   2.991 -0.6157 -0.0940  0.4929
   71MOL    H8825428   7.558   0.085   3.063 -0.4152  0.5555  0.0120
   71MOL    H8925429   7.531   0.119   2.762  1.7328  0.9679 -1.5880
   71MOL    H9025430   7.678   0.053   2.836 -2.7502 -3.7951 -0.8299
   71MOL    H9125431   7.626   0.217   2.870  1.5055 -0.0437 -3.9677
   71MOL    C9225432   7.183   0.050   2.664 -0.0850 -0.1149 -0.7435
   71MOL    C9325433   7.217   0.185   2.712  0.0662 -0.8688 -0.5176
   71MOL    C9425434   7.340   0.247   2.640 -0.4469  0.6196 -0.0994
   71MOL    O9525435   7.383   0.211   2.531  0.3311  0.6299 -0.0374
   71MOL    O9625436   7.383   0.360   2.711  0.5074 -0.5215 -0.2743
   71MOL    C9725437   7.488   0.440   2.665  0.4309  0.2920 -0.0013
   71MOL    C9825438   7.499   0.556   2.754 -0.5260 -0.0569  0.2001
   71MOL    C9925439   7.373   0.644   2.737  0.3781 -0.3271 -0.1186
   71MOL   H10025440   7.114   0.050   2.580 -2.1707 -0.1449  0.9110
   71MOL   H10125441   7.278   0.013   2.625 -0.7529 -2.1406 -0.4980
   71MOL   H10225442   7.236   0.180   2.819 -0.5007  2.1303 -0.2160
   71MOL   H10325443   7.582   0.386   2.678  1.0918  1.6310  0.8863
   71MOL   H10425444   7.479   0.460   2.558 -1.1205  1.7530  0.3821
   71MOL   H10525445   7.508   0.528   2.858  0.0586 -0.1903  0.1158
   71MOL   H10625446   7.586   0.618   2.730  0.2486  0.3040  3.7406
   71MOL   H10725447   7.291   0.579   2.766 -0.5667  0.4986 -0.8991
   71MOL   H10825448   7.354   0.696   2.643  2.1881  0.8632  0.1417
   71MOL   H10925449   7.381   0.726   2.808  1.2662  0.1658 -0.7674
   71MOL   C11025450   7.087   0.283   2.693  0.3163  0.3801  0.3702
   71MOL   C11125451   6.972   0.255   2.795  0.1601 -0.2395 -0.4340
   71MOL   C11225452   7.008   0.257   2.944  0.3822 -0.2199  0.0082
   71MOL   O11325453   6.972   0.167   3.022 -0.5875 -0.2910  0.4628
   71MOL   O11425454   7.077   0.363   2.988 -0.0943  0.1697  0.2865
   71MOL   C11525455   7.110   0.369   3.128  0.2164  0.0758 -0.3164
   71MOL   C11625456   7.175   0.503   3.156 -0.6724  0.4822  0.4950
   71MOL   C11725457   7.316   0.514   3.099  0.0023  0.3749  0.0620
   71MOL   H11825458   7.038   0.282   2.595  1.1961 -0.8355 -0.0721
   71MOL   H11925459   7.128   0.380   2.719  1.7462 -0.1078 -0.0097
   71MOL   H12025460   6.928   0.160   2.767 -0.7520 -0.2159  0.8850
   71MOL   H12125461   7.010   0.378   3.172 -0.1173 -0.7927 -0.8836
   71MOL   H12225462   7.160   0.284   3.174  0.0444  0.7107  1.0948
   71MOL   H12325463   7.130   0.593   3.115  0.1527  1.1757  1.0827
   71MOL   H12425464   7.180   0.532   3.261 -0.0477 -0.2110  0.6661
   71MOL   H12525465   7.363   0.610   3.122 -1.9648  1.6903 -1.2363
   71MOL   H12625466   7.313   0.510   2.990 -1.4123 -0.2355  0.1201
   71MOL   H12725467   7.380   0.429   3.125  0.1776  0.7506  0.8703
   71MOL   C12825468   6.867   0.362   2.780 -0.2982 -0.4670  0.1056
   71MOL   C12925469   6.774   0.352   2.662  0.0510 -0.0602 -0.5164
   71MOL   C13025470   6.703   0.215   2.651  0.0608 -0.0772  0.6084
   71MOL   O13125471   6.633   0.161   2.738 -0.2842 -0.0447 -0.8010
   71MOL   O13225472   6.741   0.154   2.536  0.2832 -0.6498  0.5345
   71MOL   C13325473   6.736   0.013   2.519 -0.0795 -0.4859  0.3667
   71MOL   C13425474   6.805   7.844   2.395  0.3036 -0.4440  0.1969
   71MOL   C13525475   6.811   7.687   2.399 -0.1858  0.1633 -0.1760
   71MOL   H13625476   6.904   0.465   2.778 -1.8865  0.1215 -0.5727
   71MOL   H13725477   6.803   0.351   2.868  1.0649  0.9510  1.3085
   71MOL   H13825478   6.834   0.370   2.573 -0.8201  2.3217 -0.6539
   71MOL   H13925479   6.786   7.846   2.604 -1.3619  0.0280  1.4279
   71MOL   H14025480   6.635   7.852   2.522 -0.4125  0.3169  0.2760
   71MOL   H14125481   6.750   0.002   2.309 -0.6390 -1.4994  0.3129
   71MOL   H14225482   6.908   7.877   2.382  0.1643  0.6408  1.7373
   71MOL   H14325483   6.847   7.654   2.301 -1.2551  0.7876 -0.7920
   71MOL   H14425484   6.716   7.640   2.423  0.6571 -1.0126  0.9275
   71MOL   H14525485   6.885   7.658   2.474 -0.8640  0.6972  0.7104
   71MOL   C14625486   6.661   0.461   2.683 -0.4845  0.4761 -0.3050
   71MOL   C14725487   6.615   0.535   2.554  0.3143  0.0414 -0.6177
   71MOL   C14825488   6.723   0.619   2.486  0.1914 -0.8322 -0.3248
   71MOL   O14925489   6.839   0.633   2.534  0.5031  0.2393  0.1219
   71MOL   O15025490   6.671   0.685   2.378 -0.2851 -0.0735  0.3172
   71MOL   C15125491   6.747   0.765   2.300 -0.5757  0.4296 -0.4471
   71MOL   C15225492   6.678   0.899   2.298 -0.0293  0.4583  0.4769
   71MOL   C15325493   6.705   0.968   2.430 -1.0640 -0.5022  0.2726
   71MOL   H15425494   6.687   0.535   2.758 -0.0631  1.2871 -1.2266
   71MOL   H15525495   6.569   0.422   2.727  0.9077 -2.4453  0.0822
   71MOL   H15625496   6.550   0.617   2.586 -1.0769 -1.2305 -0.1321
   71MOL   H15725497   6.847   0.790   2.334 -0.0840 -1.8961 -0.0626
   71MOL   H15825498   6.752   0.714   2.204  0.7567  0.9618 -0.6747
   71MOL   H15925499   6.725   0.954   2.217  0.6752 -0.7466  0.0458
   71MOL   H16025500   6.571   0.894   2.278  0.4634  1.5193 -2.6944
   71MOL   H16125501   6.661   1.068   2.435 -1.0617 -0.4312 -1.0171
   71MOL   H16225502   6.812   0.970   2.450 -0.8312 -1.6467 -0.8265
   71MOL   H16325503   6.665   0.914   2.516 -1.0227 -0.0917  0.5521
   71MOL   C16425504   6.542   0.439   2.450 -0.5836  0.7131 -0.1946
   71MOL   C16525505   6.398   0.403   2.493 -0.6427  0.3654  0.1728
   71MOL   C16625506   6.321   0.541   2.517 -0.3500  0.1285  0.1438
   71MOL   O16725507   6.288   0.623   2.429  0.5944  0.2326  0.0765
   71MOL   O16825508   6.301   0.563   2.649 -0.7402 -0.0694  0.3100
   71MOL   C16925509   6.263   0.692   2.702  0.3032 -0.1979 -0.2814
   71MOL   C17025510   6.372   0.735   2.793  0.4977  0.2807  0.1279
   71MOL   C17125511   6.318   0.817   2.921  0.2155  0.3583 -0.5273
   71MOL   H17225512   6.594   0.344   2.439 -0.4663  0.7251  0.2605
   71MOL   H17325513   6.537   0.487   2.352 -0.9431  0.9170 -0.0787
   71MOL   H17425514   6.403   0.350   2.588 -0.9454  1.3925  0.7710
   71MOL   H17525515   6.242   0.771   2.630  0.5338 -0.3798 -0.5480
   71MOL   H17625516   6.172   0.678   2.761  0.2068 -4.1880 -1.2870
   71MOL   H17725517   6.420   0.645   2.834 -1.2623  0.0504  1.7683
   71MOL   H17825518   6.445   0.788   2.733  1.3306 -1.8862 -0.8445
   71MOL   H17925519   6.260   0.907   2.902 -2.6943 -1.2965  0.2108
   71MOL   H18025520   6.400   0.844   2.987  0.9648 -1.3671 -0.7221
   71MOL   H18125521   6.270   0.745   2.987  1.3236 -0.1059 -0.2281
   71MOL   C18225522   6.324   0.314   2.393 -0.1749  0.1662 -0.0595
   71MOL   C18325523   6.245   0.189   2.443  0.6481  0.2327 -0.1561
   71MOL   C18425524   6.183   0.115   2.323 -0.8892 -0.3238 -0.5110
   71MOL   O18525525   6.065   0.129   2.290 -0.7553 -0.3629  0.2498
   71MOL   O18625526   6.276   0.049   2.258 -0.1689  0.9404 -0.5389
   71MOL   C18725527   6.249   7.847   2.142 -0.2634 -0.8537 -0.1089
   71MOL   C18825528   6.369   7.814   2.055 -0.4794  0.1217 -0.3422
   71MOL   C18925529   6.492   7.761   2.129  0.7869 -0.5325  0.2055
   71MOL   H19025530   6.382   0.288   2.304 -0.0874 -1.9104  0.5618
   71MOL   H19125531   6.243   0.369   2.344 -0.6348  0.5207  1.0928
   71MOL   H19225532   6.166   0.249   2.488  1.9183  1.7350  0.1263
   71MOL   H19325533   6.182   7.764   2.163 -0.3694 -1.2359 -1.8297
   71MOL   H19425534   6.184   0.034   2.086  1.7090  0.1554 -1.2386
   71MOL   H19525535   6.338   7.745   1.976  0.3516 -0.0397 -0.5331
   71MOL   H19625536   6.394   0.027   2.004 -1.0456  0.6713  0.3628
   71MOL   H19725537   6.534   7.848   2.182  1.5109 -1.4424  1.1473
   71MOL   H19825538   6.563   7.724   2.055 -0.3601  1.3046 -1.8489
   71MOL   H19925539   6.473   7.676   2.194  0.4265 -0.9981 -0.5057
   71MOL   C20025540   6.315   0.101   2.552 -0.2267 -0.0380 -0.2970
   71MOL   C20125541   6.225   0.081   2.686  0.2091 -0.1663 -0.1723
   71MOL   C20225542   6.210   0.201   2.762  0.7616 -0.6496 -0.7015
   71MOL   O20325543   6.182   0.306   2.708  0.2967 -0.0978  0.5893
   71MOL   O20425544   6.221   0.184   2.895 -0.0397  0.4462  0.1567
   71MOL   C20525545   6.173   0.288   2.983  0.6071 -0.0046 -0.3763
   71MOL   C20625546   6.298   0.359   3.037 -0.6550 -0.2981 -0.5536
   71MOL   C20725547   6.368   0.273   3.147 -0.1740  0.2572  0.0405
   71MOL   H20825548   6.409   0.154   2.562 -0.8734  0.9627  0.5744
   71MOL   H20925549   6.331   0.003   2.508  0.8388 -0.6867  1.4974
   71MOL   H21025550   6.279   0.015   2.754 -0.1482  0.3743  0.6422
   71MOL   H21125551   6.118   0.366   2.929 -1.0999 -0.2147  0.9950
   71MOL   H21225552   6.116   0.242   3.063  0.1624  0.9499 -0.1394
   71MOL   H21325553   6.361   0.404   2.960 -1.1347  1.6480  0.1640
   71MOL   H21425554   6.257   0.449   3.083 -1.8852 -0.6674 -0.9292
   71MOL   H21525555   6.434   0.193   3.112 -0.0167  0.2304  0.3960
   71MOL   H21625556   6.304   0.217   3.214 -0.6315  0.8240  0.0801
   71MOL   H21725557   6.437   0.342   3.196  2.0269 -1.9904  0.1968
   71MOL   C21825558   6.085   0.019   2.660 -0.8489  0.4637 -0.0699
   71MOL   C21925559   6.076   7.748   2.618 -0.1815  0.0559 -0.2265
   71MOL   C22025560   6.155   7.659   2.714  0.3786  0.1470 -0.9449
   71MOL   O22125561   6.095   7.613   2.814  0.3619  0.6265 -0.0814
   71MOL   O22225562   6.282   7.649   2.682 -0.3383  0.2420 -0.5128
   71MOL   C22325563   6.359   7.571   2.768  0.1120  0.1385 -0.3791
   71MOL   C22425564   6.469   7.506   2.693 -0.4214 -0.4363  0.3956
   71MOL   C22525565   6.426   7.424   2.571  0.3223 -0.2171  0.9454
   71MOL   H22625566   6.029   0.084   2.593  1.3582  0.3999 -2.0123
   71MOL   H22725567   6.050   0.019   2.764 -0.9864  2.5478 -0.1083
   71MOL   H22825568   6.123   7.718   2.524  3.7730 -1.8055  2.2177
   71MOL   H22925569   6.410   7.635   2.840 -1.8772  2.5439 -1.0257
   71MOL   H23025570   6.305   7.489   2.815  0.6372  0.2582  0.4459
   71MOL   H23125571   6.545   7.578   2.665 -2.2055  1.8070  1.1554
   71MOL   H23225572   6.514   7.448   2.775 -1.9485  0.5641  1.9817
   71MOL   H23325573   6.401   7.478   2.480 -1.3558  0.3764  1.7227
   71MOL   H23425574   6.338   7.369   2.605  0.7024 -1.0863  0.5102
   71MOL   H23525575   6.500   7.350   2.543  0.9577  1.0289 -0.7359
   71MOL   C23625576   5.923   7.700   2.623  0.0141  0.4257  0.1447
   71MOL   C23725577   5.854   7.751   2.498  0.4540  0.5996 -0.1524
   71MOL   C23825578   5.837   7.640   2.392  0.3349  0.7510 -0.4815
   71MOL   O23925579   5.727   7.597   2.359 -0.3235  0.0507  0.2448
   71MOL   O24025580   5.955   7.593   2.361 -0.7685  0.4424  0.5351
   71MOL   C24125581   5.963   7.477   2.274  0.4841 -0.1527 -1.0148
   71MOL   C24225582   6.100   7.455   2.225 -0.5066  0.0468 -0.0774
   71MOL   C24325583   6.193   7.441   2.338 -0.3228 -0.3983 -0.8934
   71MOL   H24425584   5.890   7.756   2.711  2.2862  3.3156 -0.7398
   71MOL   H24525585   5.914   7.593   2.641  2.3093  0.4702  1.6709
   71MOL   H24625586   5.911   7.831   2.452  0.7990 -0.0401 -0.8453
   71MOL   H24725587   5.931   7.383   2.320 -1.7513  1.1856  0.2139
   71MOL   H24825588   5.906   7.491   2.182 -0.5135  1.0493 -0.2198
   71MOL   H24925589   6.098   7.370   2.156 -1.8644  2.6434 -3.3798
   71MOL   H25025590   6.120   7.547   2.170  0.9018 -1.4469 -2.1522
   71MOL   H25125591   6.296   7.430   2.306  0.1515 -0.3396  0.5929
   71MOL   H25225592   6.163   7.365   2.410  1.1553 -0.2551 -0.1171
   71MOL   H25325593   6.188   7.533   2.395 -3.0848 -1.8871  1.4099
   71MOL   C25425594   5.710   7.817   2.527 -0.8495  0.7921  0.0629
   71MOL   C25525595   5.718   0.082   2.560  0.4771 -0.1467  0.2195
   71MOL   C25625596   5.759   0.167   2.437  0.8113  0.1610 -0.5982
   71MOL   O25725597   5.725   0.138   2.323 -0.4495 -0.3372  0.0204
   71MOL   O25825598   5.830   0.270   2.475  0.0450 -0.4019  0.0100
   71MOL   C25925599   5.858   0.371   2.379  0.6489 -0.0743 -0.5391
   71MOL   C26025600   5.954   0.478   2.435 -0.1626  0.1310  0.3278
   71MOL   C26125601   5.891   0.568   2.543 -0.6016  0.0355  0.2689
   71MOL   H26225602   5.657   7.773   2.612  2.4800 -0.9209  1.3517
   71MOL   H26325603   5.651   7.806   2.436  1.9559  0.6632 -1.7914
   71MOL   H26425604   5.806   0.085   2.625 -0.7913  2.5400  1.8771
   71MOL   H26525605   5.902   0.320   2.294 -2.1121 -1.2338 -1.3382
   71MOL   H26625606   5.765   0.414   2.340  0.8568 -0.0863 -1.0540
   71MOL   H26725607   6.041   0.421   2.465  0.7137  0.5889 -1.2645
   71MOL   H26825608   5.987   0.547   2.357  2.9962 -1.2067  0.4502
   71MOL   H26925609   5.958   0.643   2.585 -0.6478  0.3728 -0.2467
   71MOL   H27025610   5.847   0.507   2.621 -1.0187  2.5096  2.0186
   71MOL   H27125611   5.820   0.638   2.500  0.8776  1.4475  0.0614
   71MOL   C27225612   5.600   0.132   2.638 -0.2731 -0.0043 -0.2288
   71MOL   C27325613   5.617   0.088   2.785 -0.2778 -0.0355  0.1886
   71MOL   C27425614   5.731   0.159   2.863  0.1603  0.4151 -0.6058
   71MOL   O27525615   5.838   0.108   2.883 -0.3413 -0.0422  0.2375
   71MOL   O27625616   5.701   0.280   2.896  0.1743 -0.5338  0.0258
   71MOL   C27725617   5.801   0.367   2.948 -0.3141  0.7382 -0.6328
   71MOL   C27825618   5.747   0.513   2.965  0.3254 -0.0361 -0.5333
   71MOL   C27925619   5.869   0.607   2.988 -0.5233 -0.2166  1.1015
   71MOL   H28025620   5.510   0.090   2.594 -1.3458  2.0162  0.0147
   71MOL   H28125621   5.594   0.241   2.640 -0.8423 -0.0314 -0.5805
   71MOL   H28225622   5.664   7.871   2.777 -2.0868 -0.8769 -0.3611
   71MOL   H28325623   5.850   0.327   3.036  0.3321  0.9568 -0.8878
   71MOL   H28425624   5.877   0.374   2.869 -2.0519 -2.4447 -2.7129
   71MOL   H28525625   5.699   0.553   2.876 -1.0258 -0.1895  0.1081
   71MOL   H28625626   5.669   0.516   3.041  0.5599  2.8105 -0.3469
   71MOL   H28725627   5.938   0.552   3.051  1.1280  1.6343  0.9608
   71MOL   H28825628   5.839   0.698   3.040  0.0380  1.1961 -0.9627
   71MOL   H28925629   5.917   0.622   2.891 -1.2966  0.2405  0.7807
   71MOL   C29025630   5.490   0.079   2.871  0.1997 -0.2352  0.7323
   71MOL   C29125631   5.509   0.016   3.012 -0.1501 -0.3168 -0.1933
   71MOL   C29225632   5.396   0.057   3.108 -0.1353  0.1067 -0.6840
   71MOL   O29325633   5.418   0.142   3.191 -0.1477  0.2621 -0.0849
   71MOL   O29425634   5.275   0.001   3.081 -0.0703  0.2085 -0.0331
   71MOL   C29525635   5.178   0.012   3.186  0.6062 -0.1870  0.2542
   71MOL   C29625636   5.090   0.144   3.176 -0.8891  0.0674  0.1316
   71MOL   C29725637   5.051   0.176   3.030  0.8642 -0.1436  0.0647
   71MOL   H29825638   5.416   0.017   2.819  1.0199 -1.6701  1.2684
   71MOL   H29925639   5.457   0.183   2.875  0.4879 -0.1035 -0.1649
   71MOL   H30025640   5.603   0.046   3.058  1.5968 -3.3652 -1.5923
   71MOL   H30125641   5.106   7.810   3.178  0.9156 -0.6933  2.4458
   71MOL   H30225642   5.228   0.010   3.283  0.0479 -0.6534  0.5393
   71MOL   H30325643   4.999   0.116   3.229 -1.2402 -1.6913 -1.3454
   71MOL   H30425644   5.135   0.231   3.224 -0.6496  0.9386 -1.6375
   71MOL   H30525645   4.992   0.096   2.986 -0.0025 -0.1463  1.2074
   71MOL   H30625646   5.141   0.208   2.977 -0.2975  1.7682 -0.7837
   71MOL   H30725647   4.978   0.256   3.025 -0.9878 -1.8991 -1.7074
   71MOL   C30825648   5.522   7.739   2.990  0.1980 -0.1833  0.5649
   71MOL   C30925649   5.565   7.656   3.115  0.1966  0.3023  0.0610
   71MOL   C31025650   5.494   7.521   3.125  0.2678 -1.0164  0.1097
   71MOL   O31125651   5.437   7.482   3.229 -0.2569  0.1714  0.7334
   71MOL   O31225652   5.500   7.443   3.020 -0.0086 -0.1901 -0.3603
   71MOL   C31325653   5.421   7.324   3.009 -0.1873 -0.1860  0.2864
   71MOL   C31425654   5.500   7.203   3.052 -0.1617 -0.3232 -0.0946
   71MOL   C31525655   5.646   7.181   2.986  0.4715  0.4786  0.4821
   71MOL   H31625656   5.593   7.723   2.908  0.6508 -0.6304  1.0413
   71MOL   H31725657   5.428   7.696   2.954  0.8656 -0.6293 -0.7101
   71MOL   H31825658   5.530   7.711   3.202 -2.3176 -0.5618 -0.3697
   71MOL   H31925659   5.342   7.331   3.084 -0.4467  2.0914 -0.1552
   71MOL   H32025660   5.383   7.319   2.907  3.1146  0.5756 -1.0537
   71MOL   H32125661   5.505   7.203   3.161 -1.9392 -1.9398  0.0284
   71MOL   H32225662   5.444   7.113   3.027 -1.0424  0.0868  0.3907
   71MOL   H32325663   5.648   7.219   2.884 -2.3228  1.6450  0.8055
   71MOL   H32425664   5.714   7.224   3.059  0.6976 -1.3573  1.3847
   71MOL   H32525665   5.672   7.075   2.987 -3.7492 -0.6844 -1.3563
   71MOL   C32625666   5.718   7.629   3.132 -0.4002  0.2027  0.8626
   71MOL   C32725667   5.805   7.753   3.147  0.0355  0.0857 -0.4841
   71MOL   C32825668   5.760   7.837   3.265  0.1967 -0.4625  0.3614
   71MOL   O32925669   5.708   7.783   3.361 -0.2572  0.9168 -0.2855
   71MOL   O33025670   5.782   0.085   3.249 -0.0475  0.0266 -0.4488
   71MOL   C33125671   5.739   0.168   3.359  0.5502 -0.5033  0.1156
   71MOL   C33225672   5.719   0.317   3.310 -0.2071 -0.4271  0.1194
   71MOL   C33325673   5.702   0.426   3.423 -0.1411  0.8337 -0.4668
   71MOL   H33425674   5.755   7.584   3.040 -1.4144 -0.5162  0.7956
   71MOL   H33525675   5.735   7.558   3.213  2.1657 -0.3239 -0.0913
   71MOL   H33625676   5.808   7.812   3.056  3.5698 -0.9396 -1.1438
   71MOL   H33725677   5.653   0.132   3.414  0.5118  1.1954  1.2102
   71MOL   H33825678   5.822   0.176   3.429  2.2600  1.3646 -2.0382
   71MOL   H33925679   5.810   0.344   3.256 -0.2220 -1.2567 -0.3358
   71MOL   H34025680   5.629   0.328   3.250 -0.1588 -2.4656 -0.3924
   71MOL   H34125681   5.699   0.521   3.369  0.7189  0.0518 -1.9628
   71MOL   H34225682   5.610   0.398   3.473 -0.0912 -0.7675 -1.2260
   71MOL   H34325683   5.778   0.425   3.501 -1.0196 -0.1176  0.3813
   71MOL   C34425684   5.954   7.705   3.155 -0.5527 -0.0418  0.3313
   71MOL   C34525685   6.065   7.809   3.118 -0.5050 -0.5604 -0.2748
   71MOL   C34625686   6.149   7.864   3.232 -0.5321  0.2713  0.1875
   71MOL   O34725687   6.116   0.093   3.288 -0.0260 -0.1391 -0.1420
   71MOL   O34825688   6.262   7.793   3.255 -0.1894 -0.6016 -0.2916
   71MOL   C34925689   6.358   7.844   3.352  0.3846 -0.3709  0.4364
   71MOL   C35025690   6.329   7.775   3.491  0.5158  0.5370 -0.5190
   71MOL   C35125691   6.329   7.620   3.490 -0.1562  0.6319  0.6846
   71MOL   H35225692   5.958   7.618   3.090 -0.5439  1.6193 -1.9484
   71MOL   H35325693   5.958   7.677   3.260 -0.3871  1.0175  0.6215
   71MOL   H35425694   6.022   0.008   3.057 -2.2214  1.0207  2.8405
   71MOL   H35525695   6.458   7.815   3.319  0.1786  0.0784 -0.6069
   71MOL   H35625696   6.350   0.072   3.364  2.9443  0.0295 -1.1683
   71MOL   H35725697   6.403   7.814   3.560 -0.2138  0.4480  0.3111
   71MOL   H35825698   6.229   7.792   3.530  0.2222 -1.2083 -0.4487
   71MOL   H35925699   6.308   7.581   3.590  0.9847 -1.3397  0.1926
   71MOL   H36025700   6.252   7.596   3.417 -0.2221 -1.7307  1.4903
   71MOL   H36125701   6.426   7.574   3.471 -0.9900 -0.9108  0.0902
   71MOL   H36225702   6.134   7.766   3.046  0.7375 -0.9539  1.1185
   72MOL     C125703   0.251   4.995   5.407  0.1742  1.0462 -0.2800
   72MOL     C225704   0.098   4.984   5.414 -0.7137  0.6843 -0.3690
   72MOL     C325705   0.034   5.078   5.316 -0.0034 -0.3770  0.1772
   72MOL     O425706   0.089   5.117   5.213 -0.0295  0.9154  0.4393
   72MOL     O525707   7.789   5.101   5.337  0.0115 -0.0753 -0.4266
   72MOL     C625708   7.710   5.193   5.262  0.3082 -0.4529 -0.2869
   72MOL     C725709   7.566   5.164   5.310  0.4003  0.3503  0.2611
   72MOL     C825710   7.469   5.223   5.204 -0.0866  0.9287 -0.0598
   72MOL     H925711   0.298   5.085   5.447 -0.4753  1.3819 -0.2528
   72MOL    H1025712   0.304   4.908   5.448  0.6307  0.5273 -1.9476
   72MOL    H1125713   0.064   5.021   5.510  1.1285 -0.1526  0.6344
   72MOL    H1225714   7.743   5.296   5.275  0.2165 -0.4691  0.0937
   72MOL    H1325715   7.715   5.185   5.154  1.6406  0.5854 -0.3201
   72MOL    H1425716   7.541   5.062   5.339  1.4208 -0.4810 -1.6463
   72MOL    H1525717   7.545   5.221   5.400 -2.1611  0.6518 -0.4899
   72MOL    H1625718   7.497   5.325   5.180  0.7715  1.1108  1.6217
   72MOL    H1725719   7.465   5.175   5.107  0.9700 -0.3413  0.5139
   72MOL    H1825720   7.364   5.222   5.233  0.7139 -1.2474  2.9958
   72MOL    H1925721   0.282   4.989   5.303  1.5948 -0.8215  0.2242
   72MOL    C2025722   0.053   4.836   5.392  0.6752  0.6377 -0.8825
   72MOL    C2125723   0.068   4.747   5.522 -0.0301  0.1073  0.7395
   72MOL    C2225724   7.842   4.792   5.621 -0.5346 -0.7260 -0.6482
   72MOL    O2325725   0.001   4.874   5.710  0.1138  0.7009  0.2523
   72MOL    O2425726   7.723   4.754   5.591 -0.6884  0.0619 -0.0820
   72MOL    C2525727   7.611   4.807   5.658  0.3090  0.4117  0.3106
   72MOL    C2625728   7.545   4.916   5.567 -0.3606  0.4342 -0.1402
   72MOL    C2725729   7.407   4.948   5.626 -0.1564 -0.0772 -0.1286
   72MOL    H2825730   0.110   4.798   5.307 -1.8081  2.9888 -3.7097
   72MOL    H2925731   7.829   4.830   5.361  0.6804  0.0993 -0.7923
   72MOL    H3025732   0.166   4.766   5.565  0.1215 -1.3177  1.0254
   72MOL    H3125733   7.532   4.732   5.671  0.1083  0.3965 -0.9934
   72MOL    H3225734   7.634   4.841   5.759  0.4159  0.8855  0.1273
   72MOL    H3325735   7.612   5.002   5.570 -0.4956  0.5319  0.0936
   72MOL    H3425736   7.540   4.885   5.462 -1.2685 -0.7213  0.2376
   72MOL    H3525737   7.443   5.003   5.714 -1.3469  2.3651 -1.1112
   72MOL    H3625738   7.330   4.875   5.648  0.0622  0.1146  1.2885
   72MOL    H3725739   7.360   5.026   5.565  1.4688 -0.8250 -2.3971
   72MOL    C3825740   0.070   4.597   5.485 -0.3252  0.1920 -0.0918
   72MOL    C3925741   0.130   4.508   5.592  0.2029  0.1710 -0.1249
   72MOL    C4025742   0.027   4.477   5.706  0.1478  0.5259  1.1029
   72MOL    O4125743   0.065   4.479   5.820  0.0742 -0.2736  0.2212
   72MOL    O4225744   7.775   4.463   5.667  0.4216  0.3241  0.5512
   72MOL    C4325745   7.677   4.422   5.762 -0.2332 -0.4362 -0.8217
   72MOL    C4425746   7.543   4.428   5.689  0.2019 -0.1352  0.4007
   72MOL    C4525747   7.531   4.316   5.585  0.2768 -1.1442 -0.8300
   72MOL    H4625748   0.118   4.587   5.388 -0.1021  3.1826 -0.3187
   72MOL    H4725749   7.849   4.571   5.453 -0.1121 -0.0181 -0.5889
   72MOL    H4825750   0.211   4.554   5.648 -0.4701  1.4974 -0.2214
   72MOL    H4925751   7.687   4.316   5.788 -2.4349 -0.4109  0.2582
   72MOL    H5025752   7.682   4.483   5.852 -0.8022  2.0563 -2.4265
   72MOL    H5125753   7.468   4.411   5.766  2.4652 -2.4057  2.2337
   72MOL    H5225754   7.525   4.522   5.637 -2.7880  0.4933  2.4729
   72MOL    H5325755   7.563   4.222   5.631 -2.4027 -1.4277  0.5559
   72MOL    H5425756   7.594   4.336   5.498  0.3584 -0.8828 -0.7100
   72MOL    H5525757   7.432   4.299   5.543  0.1093 -1.9359 -0.1215
   72MOL    C5625758   0.189   4.375   5.527 -0.6866 -0.2227 -0.5688
   72MOL    C5725759   0.101   4.299   5.428  0.0820 -0.0433 -0.0203
   72MOL    C5825760   0.203   4.232   5.333  0.7640 -0.2059 -0.0690
   72MOL    O5925761   0.212   4.266   5.217  0.4905 -0.5551  0.1223
   72MOL    O6025762   0.273   4.142   5.400  0.0870 -0.3678  0.1109
   72MOL    C6125763   0.371   4.066   5.340  0.0017 -0.0118 -0.0669
   72MOL    C6225764   0.378   3.924   5.400 -0.0572  0.7494 -0.0182
   72MOL    C6325765   0.256   3.832   5.376  0.4198 -0.2482  0.0367
   72MOL    H6425766   0.221   4.314   5.612  0.5361  0.4516 -0.5264
   72MOL    H6525767   0.284   4.411   5.487 -1.4531  0.8999 -1.4178
   72MOL    H6625768   0.041   4.371   5.372  0.1700  0.1713  0.1626
   72MOL    H6725769   0.360   4.072   5.232  1.9961 -2.4866 -0.4548
   72MOL    H6825770   0.464   4.119   5.362  0.0918 -0.5550  0.9184
   72MOL    H6925771   0.460   3.886   5.339 -0.7716 -0.3726 -0.2852
   72MOL    H7025772   0.412   3.919   5.504  0.6685  0.2947 -0.2685
   72MOL    H7125773   0.282   3.729   5.400 -1.3579 -0.7229 -0.0295
   72MOL    H7225774   0.224   3.843   5.273 -1.0530 -1.0320  0.3993
   72MOL    H7325775   0.172   3.879   5.428 -0.2596 -0.3578 -0.9562
   72MOL    C7425776   7.880   4.201   5.498  0.4903  0.1853  0.1498
   72MOL    C7525777   7.831   4.087   5.403  0.0863 -0.2688  0.2996
   72MOL    C7625778   7.753   3.980   5.476  0.3830 -0.1173  0.4264
   72MOL    O7725779   7.716   3.996   5.593  0.1104 -0.2378  0.5355
   72MOL    O7825780   7.745   3.856   5.408  0.0604  0.9843 -0.2918
   72MOL    C7925781   7.686   3.747   5.473  0.0289  0.5781  0.0103
   72MOL    C8025782   7.717   3.609   5.408 -0.2566 -0.1491 -0.5325
   72MOL    C8125783   7.858   3.579   5.390 -0.4245  0.2433 -0.8034
   72MOL    H8225784   7.793   4.251   5.540  0.2440 -0.3108  0.2294
   72MOL    H8325785   0.054   4.150   5.578  0.9545  0.4031 -0.0215
   72MOL    H8425786   0.039   4.039   5.361  1.2136 -0.6636  3.0507
   72MOL    H8525787   7.683   3.747   5.582 -1.7345  0.4856 -0.0310
   72MOL    H8625788   7.580   3.762   5.455 -0.1232  0.9363  1.1553
   72MOL    H8725789   7.668   3.543   5.480  0.8185 -0.4484 -0.0614
   72MOL    H8825790   7.659   3.604   5.316 -1.7418  0.1036  0.3620
   72MOL    H8925791   0.009   3.477   5.366 -0.3628  0.2989 -0.9628
   72MOL    H9025792   0.016   3.600   5.490 -0.5506 -1.8967 -0.2805
   72MOL    H9125793   0.018   3.641   5.310 -1.5033 -0.7841 -2.1838
   72MOL    C9225794   7.743   4.155   5.297  0.5891  0.4694  0.1118
   72MOL    C9325795   7.794   4.142   5.149 -0.5463 -0.2348  0.7370
   72MOL    C9425796   7.760   4.006   5.087  0.7379  0.3174  0.1758
   72MOL    O9525797   7.847   3.939   5.027  0.3862  0.7877 -0.1014
   72MOL    O9625798   7.630   3.968   5.097  0.3244 -0.6519  0.9656
   72MOL    C9725799   7.592   3.834   5.065  0.2590  0.2794  0.2906
   72MOL    C9825800   7.456   3.794   5.121  1.2812 -0.5683  0.3276
   72MOL    C9925801   7.419   3.640   5.086  0.7655 -0.0849 -0.1458
   72MOL   H10025802   7.719   4.259   5.317  0.3853  0.6903 -1.2465
   72MOL   H10125803   7.640   4.121   5.303  0.5932  0.6650  1.5385
   72MOL   H10225804   0.023   4.137   5.148 -0.5242 -0.0439 -1.0112
   72MOL   H10325805   7.586   3.829   4.956 -1.9992 -0.5852  0.4303
   72MOL   H10425806   7.660   3.757   5.101  1.0172  2.3319  3.4873
   72MOL   H10525807   7.454   3.818   5.227 -0.3536 -0.5331  0.3024
   72MOL   H10625808   7.377   3.859   5.083  3.1034  1.0186 -0.7894
   72MOL   H10725809   7.323   3.608   5.126  0.5516  1.4018  0.5609
   72MOL   H10825810   7.497   3.582   5.135 -0.5869  1.1674  3.6803
   72MOL   H10925811   7.424   3.616   4.979 -2.0838 -3.1759  0.3289
   72MOL   C11025812   7.758   4.256   5.043 -0.0548 -0.3337 -0.4875
   72MOL   C11125813   7.608   4.296   5.048 -0.4316 -0.7193  0.1194
   72MOL   C11225814   7.575   4.420   5.129  0.0224 -0.4424  0.8780
   72MOL   O11325815   7.498   4.415   5.216  0.2307  0.1234  0.1135
   72MOL   O11425816   7.632   4.533   5.083  0.1469 -0.1863 -0.1479
   72MOL   C11525817   7.609   4.654   5.143 -0.1887 -0.1026  0.2838
   72MOL   C11625818   7.679   4.760   5.066  0.5758  0.1836 -0.3084
   72MOL   C11725819   7.628   4.902   5.103  0.2189  0.1028  0.1486
   72MOL   H11825820   7.786   4.224   4.943  1.6958 -1.5060  0.3576
   72MOL   H11925821   7.827   4.338   5.066 -0.7796  0.1968 -0.1889
   72MOL   H12025822   7.564   4.206   5.092  1.1552 -2.2989 -1.4684
   72MOL   H12125823   7.502   4.674   5.150 -0.4289  0.0085 -3.1501
   72MOL   H12225824   7.647   4.653   5.246 -2.2260  0.9382  1.0736
   72MOL   H12325825   7.787   4.766   5.079  0.8525 -3.6639 -0.4489
   72MOL   H12425826   7.670   4.753   4.958  0.9964  0.5282 -0.3698
   72MOL   H12525827   7.658   4.924   5.206 -1.4478  2.3852  0.1773
   72MOL   H12625828   7.522   4.923   5.092 -0.0099 -2.1994 -2.5516
   72MOL   H12725829   7.673   4.986   5.050  2.6767 -2.4055 -1.9496
   72MOL   C12825830   7.550   4.315   4.908 -0.9111  0.1619 -0.4227
   72MOL   C12925831   7.500   4.191   4.835  0.3753  0.3946  0.4072
   72MOL   C13025832   7.378   4.127   4.908 -0.5674  0.0862 -0.4164
   72MOL   O13125833   7.346   4.009   4.886 -0.3291  0.1277 -0.0152
   72MOL   O13225834   7.315   4.210   4.997 -0.3168  0.0092  0.1685
   72MOL   C13325835   7.213   4.149   5.085 -0.3519 -0.0226 -0.0755
   72MOL   C13425836   7.263   4.172   5.230 -0.5648 -0.1008  0.0398
   72MOL   C13525837   7.160   4.140   5.338  0.3951 -0.9077  0.0202
   72MOL   H13625838   7.636   4.345   4.848  0.6659 -2.1827  0.5820
   72MOL   H13725839   7.475   4.393   4.898 -3.1130 -1.9618 -0.7633
   72MOL   H13825840   7.576   4.115   4.854  0.5490  0.0719 -1.4965
   72MOL   H13925841   7.121   4.205   5.072  1.1052  2.0848 -1.7096
   72MOL   H14025842   7.191   4.043   5.076 -0.5722  0.0082  0.0911
   72MOL   H14125843   7.357   4.118   5.241 -1.6832 -2.2449 -0.6905
   72MOL   H14225844   7.288   4.278   5.239 -1.0629  0.0543 -0.4030
   72MOL   H14325845   7.209   4.080   5.414 -1.0409 -1.9615  0.1385
   72MOL   H14425846   7.071   4.091   5.297 -1.3879  1.7533  0.5558
   72MOL   H14525847   7.137   4.232   5.392  1.0582  0.4126 -1.8805
   72MOL   C14625848   7.477   4.189   4.686  0.0154 -0.1537 -0.5204
   72MOL   C14725849   7.365   4.301   4.649  1.8441 -0.1608 -0.1552
   72MOL   C14825850   7.434   4.425   4.588 -0.3113  0.1606  0.0489
   72MOL   O14925851   7.451   4.517   4.661  0.1401  0.2551  0.3550
   72MOL   O15025852   7.456   4.415   4.458 -0.2301 -0.3792 -0.5074
   72MOL   C15125853   7.512   4.531   4.395 -0.1249  0.4189 -0.3031
   72MOL   C15225854   7.449   4.536   4.258 -0.0596 -0.6625  0.2169
   72MOL   C15325855   7.520   4.646   4.171 -0.0501 -0.1802  0.2979
   72MOL   H15425856   7.447   4.090   4.652 -0.1343 -0.4559  0.4849
   72MOL   H15525857   7.566   4.216   4.629 -0.2224 -0.1902 -0.9117
   72MOL   H15625858   7.310   4.328   4.739 -3.2442  2.0263 -3.6970
   72MOL   H15725859   7.511   4.626   4.450  0.4649 -0.7847  1.8478
   72MOL   H15825860   7.615   4.507   4.369  0.3298  1.3684  0.5607
   72MOL   H15925861   7.443   4.436   4.215 -0.9817 -1.4550  2.1221
   72MOL   H16025862   7.347   4.574   4.267  0.6073  1.1609  0.2648
   72MOL   H16125863   7.543   4.743   4.215 -1.8427  0.0817  0.6763
   72MOL   H16225864   7.468   4.659   4.076 -0.3784  0.6705  0.5900
   72MOL   H16325865   7.607   4.590   4.138 -0.0618 -0.6419  1.0328
   72MOL   C16425866   7.251   4.245   4.565 -0.0851 -0.2118  0.5152
   72MOL   C16525867   7.140   4.341   4.521 -0.3992  0.0429 -0.0211
   72MOL   C16625868   7.080   4.292   4.389  0.1362  0.0362  0.3887
   72MOL   O16725869   7.001   4.200   4.389 -0.2078  0.3106 -0.1735
   72MOL   O16825870   7.130   4.356   4.277 -0.4808  0.2698  0.4955
   72MOL   C16925871   7.089   4.319   4.149 -0.7377 -0.0481  0.1651
   72MOL   C17025872   7.212   4.281   4.056  0.4157  0.6708  0.0885
   72MOL   C17125873   7.146   4.236   3.923 -0.3691 -0.4954 -0.2255
   72MOL   H17225874   7.217   4.161   4.626  1.2306 -0.6766  0.6275
   72MOL   H17325875   7.290   4.201   4.473  1.5891 -0.6622  1.4185
   72MOL   H17425876   7.193   4.429   4.484 -0.5078 -0.0202 -0.3292
   72MOL   H17525877   7.012   4.242   4.146 -0.6396 -0.2661  2.4433
   72MOL   H17625878   7.037   4.405   4.108  1.7346  0.6509 -1.6425
   72MOL   H17725879   7.270   4.372   4.042  1.3502 -0.1076 -1.1875
   72MOL   H17825880   7.264   4.198   4.102 -2.5557 -0.1804  2.0963
   72MOL   H17925881   7.103   4.324   3.875  1.7003  0.2228 -0.8312
   72MOL   H18025882   7.071   4.161   3.945 -1.3584  0.8009  0.9347
   72MOL   H18125883   7.225   4.208   3.854  1.9802  1.6847  1.4725
   72MOL   C18225884   7.029   4.379   4.625  0.1411 -0.5775  0.3330
   72MOL   C18325885   6.976   4.525   4.627 -0.1287 -0.0307 -0.4278
   72MOL   C18425886   7.091   4.616   4.677  1.2333  0.3464  0.4897
   72MOL   O18525887   7.180   4.650   4.597  0.4282 -0.1723  0.3797
   72MOL   O18625888   7.089   4.652   4.803  0.0265  0.4333 -0.2882
   72MOL   C18725889   7.195   4.741   4.842  0.9833 -0.0505  0.9049
   72MOL   C18825890   7.200   4.764   4.995  0.9265 -0.1803 -0.5521
   72MOL   C18925891   7.251   4.645   5.070 -0.2304  0.4473  0.0072
   72MOL   H19025892   7.066   4.351   4.723  0.7224  0.2283  0.3535
   72MOL   H19125893   6.950   4.306   4.607 -0.5908  0.5979 -1.4934
   72MOL   H19225894   6.900   4.521   4.704  2.0801  0.9898  1.8959
   72MOL   H19325895   7.292   4.701   4.810  1.1370  0.6719  0.4538
   72MOL   H19425896   7.186   4.835   4.787 -0.5647  0.5040  2.0907
   72MOL   H19525897   7.268   4.846   5.014 -0.1028  1.0760 -2.1124
   72MOL   H19625898   7.102   4.791   5.035  1.0087 -1.3896  0.5032
   72MOL   H19725899   7.348   4.605   5.039 -0.1997  0.0425  0.6098
   72MOL   H19825900   7.194   4.552   5.067  2.2959 -1.2300  2.3836
   72MOL   H19925901   7.264   4.666   5.176  0.0741 -2.1717  0.5162
   72MOL   C20025902   6.901   4.579   4.507  0.5374  0.2892  0.1490
   72MOL   C20125903   6.768   4.519   4.457  0.6232 -0.1385  0.8695
   72MOL   C20225904   6.663   4.521   4.566  0.8435 -0.0040  0.7038
   72MOL   O20325905   6.663   4.601   4.657 -0.1982  0.3446 -0.3460
   72MOL   O20425906   6.574   4.427   4.546 -0.6736 -0.5242  0.1654
   72MOL   C20525907   6.461   4.429   4.635  0.1244 -0.5462  1.2190
   72MOL   C20625908   6.376   4.303   4.615  0.1284 -0.2673  0.1632
   72MOL   C20725909   6.269   4.311   4.513 -0.4152 -0.6533 -0.0419
   72MOL   H20825910   6.971   4.592   4.425 -0.0272  1.1955 -0.2007
   72MOL   H20925911   6.880   4.682   4.535  0.7521 -0.1232  1.8618
   72MOL   H21025912   6.781   4.413   4.435 -0.8468 -0.2405  0.4217
   72MOL   H21125913   6.495   4.426   4.739  0.5057 -1.3228  1.0714
   72MOL   H21225914   6.396   4.516   4.628  0.5700 -0.3282 -0.2997
   72MOL   H21325915   6.446   4.224   4.588 -0.4254 -0.7105  0.0071
   72MOL   H21425916   6.327   4.276   4.709 -0.3611  0.0043 -0.0127
   72MOL   H21525917   6.189   4.383   4.532 -0.3241  0.2396 -2.8329
   72MOL   H21625918   6.229   4.211   4.504 -0.7326 -0.3058 -2.9675
   72MOL   H21725919   6.315   4.348   4.421  2.4865 -0.1479  1.5269
   72MOL   C21825920   6.719   4.587   4.325  0.5906 -0.2164  0.0421
   72MOL   C21925921   6.642   4.493   4.232 -0.0070 -0.6665 -0.4500
   72MOL   C22025922   6.558   4.566   4.124 -0.1175 -0.3687  0.6209
   72MOL   O22125923   6.439   4.540   4.108  0.0205 -0.1956  0.4213
   72MOL   O22225924   6.626   4.659   4.059 -0.2983  0.4398  0.1442
   72MOL   C22325925   6.565   4.725   3.945  0.4081 -0.1581  0.0293
   72MOL   C22425926   6.501   4.853   3.992 -0.6800  0.3578 -0.1784
   72MOL   C22525927   6.426   4.902   3.864 -0.2482 -0.4487 -0.2543
   72MOL   H22625928   6.801   4.628   4.266  1.0344 -0.0691  0.7677
   72MOL   H22725929   6.652   4.669   4.351 -0.9795 -1.5420  0.2629
   72MOL   H22825930   6.565   4.449   4.296  0.4200  1.2394  1.4022
   72MOL   H22925931   6.641   4.755   3.873 -0.3113 -0.7176 -0.9649
   72MOL   H23025932   6.502   4.656   3.889 -1.2101 -0.0435  1.6670
   72MOL   H23125933   6.429   4.823   4.068 -0.3782  0.3371  0.0988
   72MOL   H23225934   6.576   4.919   4.035  0.3622 -2.5616  2.6600
   72MOL   H23325935   6.506   4.925   3.794  0.8532 -1.6637  0.5832
   72MOL   H23425936   6.371   4.996   3.873 -0.4655 -0.4645 -1.3286
   72MOL   H23525937   6.369   4.823   3.816  2.5741 -2.5598 -0.2528
   72MOL   C23625938   6.726   4.368   4.173  0.3950  0.4713 -0.1911
   72MOL   C23725939   6.653   4.236   4.178  0.2027 -0.3582 -0.0252
   72MOL   C23825940   6.547   4.223   4.066 -0.4301 -0.2931 -0.2610
   72MOL   O23925941   6.438   4.174   4.087  0.1335  0.0767  0.4386
   72MOL   O24025942   6.592   4.272   3.942  0.5515 -0.3104 -0.2362
   72MOL   C24125943   6.511   4.260   3.829 -0.0364  0.4457  0.7590
   72MOL   C24225944   6.521   4.115   3.770  0.2386  0.7921  0.0320
   72MOL   C24325945   6.426   4.088   3.648 -0.4486  0.1114  0.6294
   72MOL   H24425946   6.815   4.354   4.235  1.9706  1.5360 -2.1508
   72MOL   H24525947   6.763   4.391   4.073 -0.2528 -0.9468 -0.7566
   72MOL   H24625948   6.592   4.239   4.268 -3.2837  1.2812 -2.3304
   72MOL   H24725949   6.408   4.291   3.848  0.3787  1.6923  1.0447
   72MOL   H24825950   6.542   4.341   3.764  0.8388 -0.1391  0.4547
   72MOL   H24925951   6.626   4.092   3.750 -0.0928  1.1968 -2.3265
   72MOL   H25025952   6.496   4.042   3.847  0.3426  1.0236  0.2876
   72MOL   H25125953   6.423   3.986   3.611  1.1217 -0.1908  1.2732
   72MOL   H25225954   6.454   4.157   3.568 -0.2234  0.0746  0.6776
   72MOL   H25325955   6.322   4.106   3.676 -0.2332  0.0894  1.4557
   72MOL   C25425956   6.745   4.112   4.170  0.2056 -0.7864  0.2885
   72MOL   C25525957   6.681   3.973   4.196 -0.4692 -0.3543 -1.2456
   72MOL   C25625958   6.660   3.904   4.062 -0.9278  0.3302 -0.3545
   72MOL   O25725959   6.552   3.870   4.021  1.1282 -0.0244  0.4010
   72MOL   O25825960   6.774   3.888   3.994 -0.6194  0.0800  0.2356
   72MOL   C25925961   6.770   3.824   3.866 -0.3240 -0.7777 -0.2105
   72MOL   C26025962   6.887   3.883   3.784  0.2658  0.3093  0.4609
   72MOL   C26125963   7.034   3.848   3.839 -0.4727 -0.0212  0.1906
   72MOL   H26225964   6.821   4.126   4.247  0.5367 -1.5452  0.0956
   72MOL   H26325965   6.792   4.118   4.072 -2.9751  1.4384 -1.1949
   72MOL   H26425966   6.584   3.997   4.240  0.5931  1.3166  0.2594
   72MOL   H26525967   6.775   3.715   3.853  1.8777 -0.4988 -1.9765
   72MOL   H26625968   6.680   3.868   3.822  0.2289  0.7316  0.1432
   72MOL   H26725969   6.882   3.834   3.687 -1.0288 -1.0069  1.1661
   72MOL   H26825970   6.889   3.990   3.767  1.0079  0.2116 -0.1377
   72MOL   H26925971   7.057   3.931   3.906  1.2178 -1.5565  1.5505
   72MOL   H27025972   7.101   3.844   3.753  2.1749  0.2640  2.1799
   72MOL   H27125973   7.047   3.755   3.895 -0.7569 -1.6526 -2.3659
   72MOL   C27225974   6.764   3.894   4.297 -0.1178  0.2565 -0.0634
   72MOL   C27325975   6.726   3.910   4.446 -0.2644 -0.0506  0.8857
   72MOL   C27425976   6.603   3.818   4.473 -0.1582  0.0902 -0.6241
   72MOL   O27525977   6.599   3.697   4.440 -0.3613 -0.2141 -0.3240
   72MOL   O27625978   6.510   3.876   4.547 -0.0420  0.2557 -0.5055
   72MOL   C27725979   6.391   3.803   4.583 -0.4224 -0.3489 -0.4885
   72MOL   C27825980   6.264   3.890   4.591  0.5532 -0.2645  0.4057
   72MOL   C27925981   6.185   3.858   4.719  0.3471 -0.2019  0.4228
   72MOL   H28025982   6.868   3.919   4.276  0.4286 -0.6023  1.5483
   72MOL   H28125983   6.764   3.787   4.278  0.9078  0.5126 -1.5747
   72MOL   H28225984   6.691   4.012   4.455 -1.2287 -0.1026 -1.7882
   72MOL   H28325985   6.368   3.718   4.519 -0.8360  0.8900 -1.9945
   72MOL   H28425986   6.408   3.759   4.681 -1.0413  0.8815  0.1826
   72MOL   H28525987   6.280   3.997   4.583 -2.1556  0.1483  0.2501
   72MOL   H28625988   6.204   3.868   4.503 -0.6663  1.1805  0.8626
   72MOL   H28725989   6.232   3.909   4.804 -0.4859  0.6966  0.3607
   72MOL   H28825990   6.176   3.751   4.733 -0.0245  0.1661  3.2761
   72MOL   H28925991   6.084   3.900   4.711 -0.5285 -2.4216 -0.3986
   72MOL   C29025992   6.854   3.893   4.536 -0.2381  1.3582 -0.6575
   72MOL   C29125993   6.836   3.919   4.692 -0.1508  0.1808  0.5741
   72MOL   C29225994   6.978   3.919   4.737 -0.0687  0.7995 -0.1401
   72MOL   O29325995   7.049   4.018   4.743 -0.2951 -0.4672  0.0517
   72MOL   O29425996   7.021   3.792   4.766  0.1770 -0.0602  0.6214
   72MOL   C29525997   7.160   3.767   4.782 -0.3097 -0.2001 -0.3923
   72MOL   C29625998   7.194   3.627   4.737 -0.0288 -0.8338 -0.1554
   72MOL   C29725999   7.156   3.521   4.840  0.0821  0.3251 -0.2688
   72MOL   H29826000   6.924   3.970   4.505  0.6407  0.4453 -0.9719
   72MOL   H29926001   6.913   3.802   4.521 -0.2827  1.5819 -2.2006
   72MOL   H30026002   6.789   3.827   4.727 -1.5974  0.6249 -0.1924
   72MOL   H30126003   7.215   3.836   4.718  1.0179 -0.3927  0.5143
   72MOL   H30226004   7.204   3.774   4.882 -1.2403 -1.3873  0.1179
   72MOL   H30326005   7.133   3.613   4.647  1.1679  0.6418 -1.2243
   72MOL   H30426006   7.299   3.602   4.722  0.2722 -0.8084  1.7379
   72MOL   H30526007   7.182   3.420   4.806  1.0157  0.8404 -1.1170
   72MOL   H30626008   7.051   3.519   4.869  0.1073 -0.0980 -0.1989
   72MOL   H30726009   7.203   3.524   4.939 -0.0566  1.7288 -0.2501
   72MOL   C30826010   6.755   4.050   4.731  0.0329 -0.3363  0.0186
   72MOL   C30926011   6.690   4.051   4.866 -0.0514 -0.6430  0.2974
   72MOL   C31026012   6.660   4.196   4.912 -0.5583  0.2765 -0.4512
   72MOL   O31126013   6.546   4.241   4.940 -0.5541  0.5873  0.4798
   72MOL   O31226014   6.778   4.269   4.916  0.2409 -0.5718 -0.0667
   72MOL   C31326015   6.787   4.404   4.962 -0.2988  0.4760 -0.2004
   72MOL   C31426016   6.910   4.424   5.042 -0.4529  0.2354 -0.0573
   72MOL   C31526017   6.909   4.351   5.175  0.1004  0.2066  1.1119
   72MOL   H31626018   6.684   4.091   4.659 -2.7803 -1.7617  1.8955
   72MOL   H31726019   6.832   4.127   4.731  0.8525 -1.1163 -2.2813
   72MOL   H31826020   6.761   3.999   4.930  0.5630 -1.3483 -0.9390
   72MOL   H31926021   6.786   4.468   4.874 -2.3941 -0.0486 -0.5856
   72MOL   H32026022   6.704   4.420   5.030 -0.4348 -0.2788 -0.1786
   72MOL   H32126023   7.000   4.408   4.984 -0.8041 -1.3108 -0.1881
   72MOL   H32226024   6.918   4.532   5.055  0.4654 -0.0482  1.9665
   72MOL   H32326025   6.991   4.369   5.244  1.2531 -2.3084  0.4457
   72MOL   H32426026   6.813   4.350   5.227 -1.2189  0.9796 -1.2250
   72MOL   H32526027   6.922   4.248   5.141  2.6935  0.5651  0.8995
   72MOL   C32626028   6.560   3.963   4.859 -0.0157  0.3407 -0.2763
   72MOL   C32726029   6.494   3.902   4.991  0.2811 -0.4264 -0.4981
   72MOL   C32826030   6.596   3.870   5.100  0.2974  1.1240  0.0740
   72MOL   O32926031   6.591   3.925   5.208  0.4850  0.0570 -0.4098
   72MOL   O33026032   6.694   3.780   5.079 -0.3962  0.2314  0.1048
   72MOL   C33126033   6.758   3.716   5.188 -0.1627  0.3569 -0.2598
   72MOL   C33226034   6.891   3.783   5.222  0.1859 -0.1801  0.6422
   72MOL   C33326035   7.012   3.728   5.147 -0.0230  0.3726  0.2650
   72MOL   H33426036   6.576   3.883   4.786  1.5515 -1.8860  2.3994
   72MOL   H33526037   6.484   4.023   4.809 -1.6820 -1.1526  0.3954
   72MOL   H33626038   6.456   3.806   4.956 -0.4396  0.2941 -1.7513
   72MOL   H33726039   6.695   3.714   5.277  0.2964  2.2426  0.1058
   72MOL   H33826040   6.774   3.610   5.166 -1.4898 -0.1478  1.1325
   72MOL   H33926041   6.893   3.890   5.200  0.2678 -0.8994 -3.1936
   72MOL   H34026042   6.916   3.749   5.322 -2.0284  0.5430  1.4628
   72MOL   H34126043   7.026   3.620   5.145  0.0391  0.3913 -0.9279
   72MOL   H34226044   6.987   3.746   5.042  0.8812  1.2630  0.2023
   72MOL   H34326045   7.104   3.784   5.164  0.1679  0.0392  0.3234
   72MOL   C34426046   6.372   3.986   5.029  0.4101 -0.4489 -0.0448
   72MOL   C34526047   6.276   3.904   5.114 -0.1535  0.6567  0.4466
   72MOL   C34626048   6.143   3.977   5.134 -0.0720 -0.0021 -0.1235
   72MOL   O34726049   6.099   4.003   5.246 -0.3947  0.1030 -0.0952
   72MOL   O34826050   6.091   4.008   5.013 -0.0267  0.0408 -0.4407
   72MOL   C34926051   5.981   4.089   5.004  1.0818 -0.4644  0.8721
   72MOL   C35026052   5.943   4.129   4.859  0.3446  0.2323 -0.0139
   72MOL   C35126053   6.047   4.215   4.789  0.2119 -0.2626 -0.2184
   72MOL   H35226054   6.327   4.045   4.949  1.5931  2.4046  1.3043
   72MOL   H35326055   6.410   4.071   5.085  2.7949  0.3045 -2.7222
   72MOL   H35426056   6.319   3.870   5.208  1.3276 -0.6202 -0.6776
   72MOL   H35526057   5.899   4.030   5.047 -0.5573  2.0226  1.2680
   72MOL   H35626058   6.003   4.176   5.065  2.5957 -0.4842  0.3649
   72MOL   H35726059   5.921   4.035   4.807 -1.0522 -0.0059  0.9792
   72MOL   H35826060   5.852   4.189   4.859 -0.8823 -1.5567 -1.4772
   72MOL   H35926061   6.135   4.150   4.790 -0.5051 -1.2466 -0.2924
   72MOL   H36026062   6.023   4.240   4.686  0.0398  0.1251 -0.0825
   72MOL   H36126063   6.063   4.302   4.853  0.0907 -0.0117 -0.5310
   72MOL   H36226064   6.239   3.812   5.070  0.5924  0.3472  0.4551
   73MOL     C126065   0.587   7.413   7.134  0.2018  0.7620 -0.2704
   73MOL     C226066   0.560   7.332   7.003  0.2190 -1.1173 -0.1097
   73MOL     C326067   0.539   7.184   7.021  0.0954 -0.1152  0.2211
   73MOL     O426068   0.566   7.101   6.937  0.1865 -0.0625  0.0982
   73MOL     O526069   0.480   7.161   7.129 -0.1411 -0.0317 -0.6200
   73MOL     C626070   0.452   7.025   7.165 -0.4774 -0.4927  0.2102
   73MOL     C726071   0.433   7.021   7.316 -0.4012  0.0277 -0.5531
   73MOL     C826072   0.551   6.935   7.372 -0.5393  0.6894  0.4246
   73MOL     H926073   0.674   7.367   7.182 -2.3490 -2.5127  1.4434
   73MOL    H1026074   0.628   7.513   7.124  1.0827  0.2911 -1.4872
   73MOL    H1126075   0.649   7.332   6.940  1.9527 -1.0490  2.2374
   73MOL    H1226076   0.353   6.991   7.134 -1.0994  0.8564  0.6446
   73MOL    H1326077   0.522   6.948   7.136  0.1934  0.4184 -0.5978
   73MOL    H1426078   0.441   7.115   7.370  0.4285 -0.9998  1.1909
   73MOL    H1526079   0.337   6.971   7.328 -0.5093 -0.6626 -3.8148
   73MOL    H1626080   0.535   6.832   7.342  0.0785  0.7245 -0.0481
   73MOL    H1726081   0.645   6.972   7.331 -1.3047 -1.4198 -3.5188
   73MOL    H1826082   0.559   6.927   7.480 -0.9716  0.8091  0.4642
   73MOL    H1926083   0.498   7.420   7.197 -0.7609  3.6424 -1.8856
   73MOL    C2026084   0.445   7.393   6.917  0.3870  0.2327 -0.0179
   73MOL    C2126085   0.488   7.521   6.835 -0.3097  0.5846 -0.1510
   73MOL    C2226086   0.542   7.464   6.698 -0.5361  0.2032 -0.1802
   73MOL    O2326087   0.459   7.442   6.610  0.5849 -0.3713  0.2419
   73MOL    O2426088   0.666   7.422   6.710  0.2232 -0.3270  0.8197
   73MOL    C2526089   0.726   7.344   6.613 -0.0930 -0.2482  0.3133
   73MOL    C2626090   0.882   7.319   6.653  0.0114  0.6678 -0.2056
   73MOL    C2726091   0.967   7.434   6.603  0.0049 -1.0537  0.2793
   73MOL    H2826092   0.369   7.414   6.991  0.7352 -0.3736  0.5184
   73MOL    H2926093   0.401   7.326   6.842  1.5428 -0.7981  0.1935
   73MOL    H3026094   0.568   7.579   6.881  2.0984  0.5174 -3.9955
   73MOL    H3126095   0.686   7.242   6.618  0.3364 -0.3628  1.5940
   73MOL    H3226096   0.719   7.384   6.512  0.0883  1.2552  0.8963
   73MOL    H3326097   0.904   7.316   6.760  0.2375  0.6826 -0.2529
   73MOL    H3426098   0.924   7.229   6.608 -1.5473  0.3208 -1.0106
   73MOL    H3526099   0.968   7.422   6.494  0.9556  1.6435 -0.0533
   73MOL    H3626100   1.071   7.436   6.635 -0.1479  0.4044  0.7046
   73MOL    H3726101   0.924   7.530   6.631  0.3327 -0.4666 -1.1585
   73MOL    C3826102   0.360   7.615   6.828  0.9058 -0.2330 -0.0084
   73MOL    C3926103   0.395   7.755   6.765 -0.2444  0.4375 -0.5979
   73MOL    C4026104   0.282   7.815   6.686 -0.1315  0.3269 -0.1212
   73MOL    O4126105   0.163   7.800   6.713  0.4026 -0.4916  0.4408
   73MOL    O4226106   0.327   0.002   6.579  0.2212  0.2934  0.4723
   73MOL    C4326107   0.233   0.054   6.497  0.0578  0.5864  0.7604
   73MOL    C4426108   0.301   0.063   6.354  0.7669 -0.2646 -0.4365
   73MOL    C4526109   0.198   0.079   6.246  0.3640  0.5010  0.2905
   73MOL    H4626110   0.295   7.617   6.916  0.3344 -2.2533 -0.3600
   73MOL    H4726111   0.298   7.570   6.751 -0.7438 -0.7144  1.5708
   73MOL    H4826112   0.477   7.744   6.693  0.6762  1.5757  0.2555
   73MOL    H4926113   0.150   7.866   6.481 -0.0623  0.8009  0.4553
   73MOL    H5026114   0.192   0.152   6.522 -2.0070  0.0575 -0.4098
   73MOL    H5126115   0.372   0.145   6.342  0.2508  0.1337 -0.7447
   73MOL    H5226116   0.362   7.856   6.327  0.4578  0.5257 -3.9208
   73MOL    H5326117   0.150   7.864   6.225  0.4922  0.5210 -0.0980
   73MOL    H5426118   0.241   0.129   6.159  0.9249  0.4958  0.5631
   73MOL    H5526119   0.116   0.147   6.270 -1.5321 -0.8738 -1.9918
   73MOL    C5626120   0.443   7.854   6.881  0.2086  0.3647 -0.5755
   73MOL    C5726121   0.597   7.874   6.904 -0.6264 -0.1424 -0.6548
   73MOL    C5826122   0.675   0.010   6.771  0.8845  0.1928 -0.0196
   73MOL    O5926123   0.763   7.810   6.738 -0.7704  0.1777  0.0302
   73MOL    O6026124   0.649   0.133   6.707  0.3690 -0.1802 -0.1578
   73MOL    C6126125   0.726   0.178   6.603 -0.2303 -0.8023  0.3006
   73MOL    C6226126   0.614   0.269   6.534 -0.5766 -0.5759  0.5008
   73MOL    C6326127   0.599   0.393   6.621  0.4766  0.0548  0.1382
   73MOL    H6426128   0.393   7.825   6.973  1.5346 -0.7458 -0.2086
   73MOL    H6526129   0.394   0.069   6.858 -1.7306 -0.6165 -0.5938
   73MOL    H6626130   0.629   7.782   6.951 -0.0318  0.6639  0.5590
   73MOL    H6726131   0.809   0.231   6.648  0.3080 -2.9102  1.8817
   73MOL    H6826132   0.766   0.102   6.535  0.0152 -1.9241  1.6790
   73MOL    H6926133   0.653   0.293   6.435  1.6597 -3.9815  0.4422
   73MOL    H7026134   0.508   0.245   6.525 -0.9847  0.2987  2.5150
   73MOL    H7126135   0.539   0.467   6.570  0.5150  0.4713  0.6919
   73MOL    H7226136   0.702   0.428   6.636  0.3165  0.8499 -0.6421
   73MOL    H7326137   0.560   0.375   6.722 -1.5930  2.8759 -0.1219
   73MOL    C7426138   0.630   0.111   6.996  0.1136 -0.2491  0.1152
   73MOL    C7526139   0.593   0.100   7.149 -0.2921 -0.6789  0.3377
   73MOL    C7626140   0.664   7.863   7.215  0.5395  0.3330  0.1918
   73MOL    O7726141   0.609   7.758   7.238 -0.4635  0.5321 -0.1004
   73MOL    O7826142   0.795   0.003   7.227  0.2728 -0.7678 -0.2633
   73MOL    C7926143   0.873   7.783   7.295  0.3117 -0.3968 -0.0358
   73MOL    C8026144   0.931   7.679   7.192 -0.2867  0.1745 -0.3994
   73MOL    C8126145   1.019   7.735   7.082  0.4924 -0.1183 -0.5652
   73MOL    H8226146   0.579   0.198   6.956 -0.5685 -1.2013 -1.0999
   73MOL    H8326147   0.738   0.130   6.994 -0.3233  2.3105 -1.0042
   73MOL    H8426148   0.485   0.093   7.159 -0.5400 -0.8375 -2.1513
   73MOL    H8526149   0.958   7.829   7.345 -0.0730  0.3256 -0.0304
   73MOL    H8626150   0.810   7.724   7.361 -0.3165 -0.2575 -0.5040
   73MOL    H8726151   0.989   7.609   7.252  0.0972  2.1071  1.5567
   73MOL    H8826152   0.851   7.633   7.134 -0.8073  1.7369 -0.9769
   73MOL    H8926153   1.073   7.821   7.119  0.3041  0.0100 -0.5913
   73MOL    H9026154   0.966   7.752   6.988 -2.3904 -0.4188  0.9608
   73MOL    H9126155   1.090   7.661   7.044  1.8494  1.0160 -0.2790
   73MOL    C9226156   0.629   0.226   7.221  0.7374  0.1912 -0.6023
   73MOL    C9326157   0.541   0.347   7.190  0.5050 -0.6499 -0.3172
   73MOL    C9426158   0.390   0.326   7.211 -0.3167 -0.0322  0.0948
   73MOL    O9526159   0.323   0.302   7.110  0.2967 -0.2465 -0.4085
   73MOL    O9626160   0.355   0.334   7.343  0.3617  0.0640  0.6757
   73MOL    C9726161   0.219   0.316   7.381 -0.2600  0.3152  0.0052
   73MOL    C9826162   0.213   0.309   7.537  0.9235 -0.1803  0.0502
   73MOL    C9926163   0.313   0.219   7.608  0.1968  0.1127  0.2483
   73MOL   H10026164   0.733   0.254   7.205  0.6229  0.6316 -0.5948
   73MOL   H10126165   0.633   0.212   7.329  2.0592 -0.0124 -0.6723
   73MOL   H10226166   0.549   0.371   7.084  1.5343  3.0544  0.5158
   73MOL   H10326167   0.156   0.399   7.348 -0.5306  0.0833 -0.0647
   73MOL   H10426168   0.180   0.225   7.337 -1.8585  0.6630  0.6657
   73MOL   H10526169   0.235   0.410   7.570 -1.6782  0.5903 -0.4647
   73MOL   H10626170   0.112   0.280   7.565  1.2026 -2.6530 -1.3507
   73MOL   H10726171   0.287   0.117   7.580 -0.2811  0.9272 -2.4417
   73MOL   H10826172   0.288   0.230   7.714 -1.7736 -0.7916 -0.0893
   73MOL   H10926173   0.416   0.248   7.590 -0.5131  1.0827 -2.3766
   73MOL   C11026174   0.582   0.483   7.261  1.1507  0.7313 -0.4545
   73MOL   C11126175   0.683   0.563   7.173  0.3339 -0.5743  0.6746
   73MOL   C11226176   0.613   0.612   7.035 -0.4780 -0.0836 -0.8199
   73MOL   O11326177   0.677   0.616   6.930  0.0657 -0.3628 -0.3751
   73MOL   O11426178   0.489   0.641   7.059 -0.4794  0.3736  0.0767
   73MOL   C11526179   0.411   0.671   6.939 -0.0227 -0.1042  0.3144
   73MOL   C11626180   0.277   0.724   6.996  0.1965 -0.0118 -0.1407
   73MOL   C11726181   0.197   0.627   7.087 -0.2140 -0.5262  0.6784
   73MOL   H11826182   0.643   0.473   7.351  0.5207 -0.2067 -0.1165
   73MOL   H11926183   0.496   0.548   7.279 -0.8257 -1.5742 -1.3869
   73MOL   H12026184   0.766   0.496   7.152  0.1709 -0.8852  1.0191
   73MOL   H12126185   0.450   0.750   6.874  1.1920  0.4874  1.7592
   73MOL   H12226186   0.391   0.584   6.875 -0.3225 -0.7719  1.3113
   73MOL   H12326187   0.296   0.810   7.059 -1.3705  0.4528 -0.2849
   73MOL   H12426188   0.221   0.756   6.908 -0.5197 -1.0121 -0.0600
   73MOL   H12526189   0.251   0.587   7.173  0.1987 -0.8593  0.2617
   73MOL   H12626190   0.146   0.546   7.035 -0.6495  0.1007  0.1134
   73MOL   H12726191   0.109   0.688   7.110  1.2644  0.6418  3.5258
   73MOL   C12826192   0.752   0.683   7.238 -0.2292  0.0021  1.1677
   73MOL   C12926193   0.673   0.811   7.258  0.2508 -0.1227 -0.1363
   73MOL   C13026194   0.576   0.809   7.377 -0.0399  0.1340  0.0559
   73MOL   O13126195   0.589   0.738   7.476  0.1790 -0.1884 -0.5900
   73MOL   O13226196   0.473   0.890   7.353 -0.2464 -0.1015 -0.4222
   73MOL   C13326197   0.363   0.884   7.439  0.1061  0.2993 -0.1066
   73MOL   C13426198   0.259   0.996   7.417 -0.4652  0.1382  0.1340
   73MOL   C13526199   0.150   0.994   7.525 -0.2216 -0.2341  0.1930
   73MOL   H13626200   0.833   0.711   7.171  0.7060 -0.2150  2.1963
   73MOL   H13726201   0.803   0.651   7.329  0.1021 -1.3246  0.5251
   73MOL   H13826202   0.607   0.822   7.173  0.4279 -1.2527 -0.4285
   73MOL   H13926203   0.309   0.792   7.418 -1.3195  1.0115  0.3223
   73MOL   H14026204   0.384   0.866   7.545 -0.8888  0.5858  0.1498
   73MOL   H14126205   0.313   1.090   7.412 -2.3319  1.3159  1.2789
   73MOL   H14226206   0.219   0.977   7.317 -1.7878 -1.2630  0.9024
   73MOL   H14326207   0.106   0.895   7.523 -2.8421  0.8632 -3.5691
   73MOL   H14426208   0.069   1.067   7.514 -0.6946 -0.8571 -0.5215
   73MOL   H14526209   0.189   1.000   7.626 -0.6467 -0.1189  0.3502
   73MOL   C14626210   0.759   0.938   7.261  0.3158  0.1618  0.1436
   73MOL   C14726211   0.787   0.997   7.122 -0.3423  0.8225  0.8019
   73MOL   C14826212   0.650   1.040   7.060  0.0415  0.2878 -0.0561
   73MOL   O14926213   0.619   0.996   6.948  0.8709  0.3236 -0.4653
   73MOL   O15026214   0.578   1.123   7.134  0.8646 -0.6385  0.2075
   73MOL   C15126215   0.442   1.161   7.098  0.2252 -0.6442  0.7879
   73MOL   C15226216   0.438   1.309   7.042  0.7381 -0.1108 -0.4983
   73MOL   C15326217   0.500   1.323   6.902  0.4100 -0.5316  0.0596
   73MOL   H15426218   0.846   0.902   7.316 -0.7427 -1.1076  1.0032
   73MOL   H15526219   0.706   1.009   7.325 -1.7080  1.1140 -2.5198
   73MOL   H15626220   0.833   0.919   7.061 -0.5355  0.3669  1.2429
   73MOL   H15726221   0.395   1.094   7.027 -0.6407  1.0547 -0.2581
   73MOL   H15826222   0.383   1.145   7.188  1.0529  1.1962  1.6970
   73MOL   H15926223   0.336   1.347   7.043 -0.1179 -2.2568  2.6980
   73MOL   H16026224   0.495   1.372   7.110  0.6829 -2.2719  1.5908
   73MOL   H16126225   0.606   1.344   6.904  0.0543  1.2993  2.7674
   73MOL   H16226226   0.448   1.407   6.857 -0.1212 -1.3099 -0.8145
   73MOL   H16326227   0.472   1.234   6.846  1.2950  0.1249 -1.4353
   73MOL   C16426228   0.880   1.122   7.139 -0.0896  0.0810 -0.7468
   73MOL   C16526229   0.919   1.181   7.004  0.5296 -0.3838  0.4549
   73MOL   C16626230   0.963   1.326   7.003 -0.4981 -0.8087 -0.4991
   73MOL   O16726231   0.896   1.426   6.964 -0.3360  0.0502 -0.5876
   73MOL   O16826232   1.087   1.339   7.045 -0.1140  0.2539 -0.4071
   73MOL   C16926233   1.146   1.463   7.044 -0.0780  0.5944 -0.6045
   73MOL   C17026234   1.288   1.446   7.089 -0.0783 -0.3771 -0.4858
   73MOL   C17126235   1.353   1.316   7.036  0.2344 -0.5780 -0.6616
   73MOL   H17226236   0.969   1.100   7.199  0.9461  0.6494 -2.0419
   73MOL   H17326237   0.822   1.203   7.183  1.2474  0.7943 -0.2516
   73MOL   H17426238   0.822   1.194   6.956 -0.3003 -2.0687  1.6264
   73MOL   H17526239   1.148   1.498   6.940  0.3162 -0.0572 -0.8192
   73MOL   H17626240   1.098   1.542   7.101 -0.9026  1.9393 -3.0856
   73MOL   H17726241   1.348   1.530   7.056 -0.5184  1.1641  2.5343
   73MOL   H17826242   1.292   1.449   7.198  2.9673 -2.1359 -0.5158
   73MOL   H17926243   1.314   1.216   7.057 -0.6999 -0.2277 -0.7190
   73MOL   H18026244   1.455   1.299   7.071  0.3307  0.9011 -0.1585
   73MOL   H18126245   1.364   1.312   6.928 -1.7802 -0.0292 -0.9085
   73MOL   C18226246   1.010   1.096   6.909  0.1498 -0.4304 -0.8976
   73MOL   C18326247   0.985   1.134   6.759  0.0558 -0.2155 -0.0100
   73MOL   C18426248   1.109   1.080   6.683 -0.6684  0.2930  0.6472
   73MOL   O18526249   1.110   0.969   6.630 -0.0675 -0.3781 -0.2996
   73MOL   O18626250   1.207   1.170   6.676 -0.1395  0.8596  0.2640
   73MOL   C18726251   1.324   1.137   6.612 -0.3515  0.0191  0.1853
   73MOL   C18826252   1.412   1.262   6.609  0.1358 -0.3504  0.0171
   73MOL   C18926253   1.412   1.327   6.475  0.0154 -0.1949  0.6440
   73MOL   H19026254   0.982   0.992   6.927 -2.0019  0.0995 -1.0501
   73MOL   H19126255   1.112   1.103   6.945  0.4666 -2.2823 -1.3768
   73MOL   H19226256   0.980   1.242   6.746 -0.2220 -0.1305  0.7657
   73MOL   H19326257   1.373   1.054   6.661 -2.3699  0.6940  3.4873
   73MOL   H19426258   1.309   1.082   6.519 -1.0365  0.1166  0.2366
   73MOL   H19526259   1.385   1.332   6.689 -4.1261  0.1170 -1.6500
   73MOL   H19626260   1.512   1.228   6.633  0.4028 -0.0619 -0.6900
   73MOL   H19726261   1.309   1.347   6.444  0.1317  1.8441  1.4419
   73MOL   H19826262   1.431   1.251   6.400  0.2043  0.7500 -0.2799
   73MOL   H19926263   1.464   1.423   6.470 -1.0992  0.4954  1.9090
   73MOL   C20026264   0.851   1.073   6.715 -0.3014  1.1771 -0.5289
   73MOL   C20126265   0.829   1.097   6.562  0.0561  0.2933 -0.0829
   73MOL   C20226266   0.728   0.996   6.495  0.4991  0.5320  0.6428
   73MOL   O20326267   0.764   0.908   6.412  0.3975  0.1861 -0.5085
   73MOL   O20426268   0.602   1.003   6.546  0.0826  0.1204 -0.1453
   73MOL   C20526269   0.498   0.923   6.497 -0.1092 -0.1910 -0.0617
   73MOL   C20626270   0.472   0.810   6.595 -0.1787  0.5808  0.2338
   73MOL   C20726271   0.359   0.719   6.546  0.0330  0.4174  0.2085
   73MOL   H20826272   0.771   1.115   6.776  0.0412  0.7628  0.2144
   73MOL   H20926273   0.845   0.965   6.728  1.3479  1.1992  0.5076
   73MOL   H21026274   0.920   1.079   6.506 -0.4879 -2.6372 -0.0956
   73MOL   H21126275   0.410   0.988   6.499 -0.0388 -0.1278  3.1815
   73MOL   H21226276   0.518   0.885   6.396 -0.1978 -0.1522 -0.0942
   73MOL   H21326277   0.567   0.762   6.621 -0.6433 -0.3324  0.2879
   73MOL   H21426278   0.444   0.843   6.695  0.0252  0.7459  0.2347
   73MOL   H21526279   0.267   0.776   6.540  0.3232  0.6724 -2.4421
   73MOL   H21626280   0.343   0.637   6.616  0.2824  0.0965 -0.1048
   73MOL   H21726281   0.380   0.663   6.455 -1.3236 -0.6035  0.5212
   73MOL   C21826282   0.792   1.243   6.534 -0.4749  0.0979 -0.2702
   73MOL   C21926283   0.811   1.302   6.385  0.5567 -0.6801  0.6680
   73MOL   C22026284   0.721   1.422   6.365  0.7447  0.1833 -0.3831
   73MOL   O22126285   0.638   1.416   6.281  0.0260  0.0056  0.1429
   73MOL   O22226286   0.751   1.524   6.454  0.8008  0.1912  0.1009
   73MOL   C22326287   0.666   1.639   6.454 -0.1752 -0.1557 -0.5381
   73MOL   C22426288   0.633   1.697   6.603 -0.2551  0.2845 -0.4925
   73MOL   C22526289   0.584   1.586   6.682 -0.0672  0.4074  0.4526
   73MOL   H22626290   0.842   1.305   6.609 -0.4227 -1.4160  0.9630
   73MOL   H22726291   0.688   1.251   6.566 -0.3911 -0.6727  0.2072
   73MOL   H22826292   0.787   1.217   6.322  1.6690  0.7019 -1.6701
   73MOL   H22926293   0.725   1.711   6.397  0.2908 -0.8705 -0.9535
   73MOL   H23026294   0.570   1.623   6.406 -0.3295  3.9815 -1.8571
   73MOL   H23126295   0.721   1.739   6.652 -0.2182  1.5862 -1.6365
   73MOL   H23226296   0.559   1.777   6.596  1.4041  2.0621  1.6590
   73MOL   H23326297   0.497   1.535   6.641  0.5373 -0.5214  0.3031
   73MOL   H23426298   0.581   1.619   6.786  3.2987  0.2961  0.6482
   73MOL   H23526299   0.655   1.504   6.678 -0.3583  0.2841 -4.0381
   73MOL   C23626300   0.961   1.339   6.362  0.4869 -0.4873 -0.5225
   73MOL   C23726301   0.984   1.401   6.223  0.3284  0.2949 -0.4656
   73MOL   C23826302   1.132   1.436   6.212  0.1121 -0.0856 -0.0751
   73MOL   O23926303   1.215   1.350   6.184  0.2488 -0.1639 -0.0567
   73MOL   O24026304   1.154   1.561   6.243 -0.0783 -0.7923  0.0836
   73MOL   C24126305   1.278   1.621   6.240 -0.7985  0.0216  0.3891
   73MOL   C24226306   1.274   1.770   6.232 -0.4060  0.4495 -0.0323
   73MOL   C24326307   1.268   1.827   6.090  0.1275  0.1062  0.3705
   73MOL   H24426308   1.009   1.242   6.370  1.4392  0.0096 -0.0692
   73MOL   H24526309   0.999   1.404   6.441 -2.0923 -0.9032  1.1284
   73MOL   H24626310   0.930   1.496   6.226 -0.7291 -0.3535  2.9773
   73MOL   H24726311   1.336   1.594   6.328  1.7077  2.8789 -0.2931
   73MOL   H24826312   1.349   1.600   6.159  0.2720 -0.5610  1.4637
   73MOL   H24926313   1.185   1.807   6.283 -1.0227  1.0165 -1.4955
   73MOL   H25026314   1.357   1.818   6.286 -0.3132  0.6718 -0.3726
   73MOL   H25126315   1.256   1.935   6.093  0.4048  0.1645 -0.5038
   73MOL   H25226316   1.182   1.788   6.036  0.6096  0.2458 -0.5028
   73MOL   H25326317   1.359   1.803   6.035 -1.5252  1.9101 -3.3175
   73MOL   C25426318   0.924   1.326   6.101  0.0429 -0.2633 -0.0452
   73MOL   C25526319   0.875   1.429   5.996  0.1859 -0.3139  0.0686
   73MOL   C25626320   0.990   1.515   5.938  0.0296  0.3163  0.2544
   73MOL   O25726321   0.980   1.638   5.953 -0.3928  0.2402  0.0875
   73MOL   O25826322   1.083   1.452   5.876  0.1231  0.7931 -0.0833
   73MOL   C25926323   1.191   1.532   5.836 -0.7539 -0.1993 -0.0754
   73MOL   C26026324   1.270   1.457   5.727  0.2848 -0.3172  0.7082
   73MOL   C26126325   1.397   1.533   5.689 -0.5587  0.2846 -0.0839
   73MOL   H26226326   0.837   1.264   6.125 -0.1358 -0.5058 -1.2996
   73MOL   H26326327   1.001   1.259   6.062  0.9946  0.5346  0.4349
   73MOL   H26426328   0.800   1.489   6.046 -0.1051 -0.8455  0.2817
   73MOL   H26526329   1.174   1.637   5.810 -1.5767 -0.8918 -2.4460
   73MOL   H26626330   1.257   1.541   5.922 -0.6224 -0.7908 -0.1170
   73MOL   H26726331   1.308   1.366   5.774  1.1351 -0.8057 -0.8971
   73MOL   H26826332   1.201   1.432   5.647 -0.8300 -2.4485  2.2982
   73MOL   H26926333   1.372   1.638   5.675  3.2315  1.2305 -0.2804
   73MOL   H27026334   1.435   1.506   5.590  0.2761  1.1232 -0.0011
   73MOL   H27126335   1.477   1.546   5.761 -0.2447  2.1504 -0.7432
   73MOL   C27226336   0.816   1.355   5.879  0.5441 -0.1938  0.5967
   73MOL   C27326337   0.739   1.437   5.782 -0.1821 -0.4983 -0.2869
   73MOL   C27426338   0.777   1.408   5.636 -0.5856 -0.7852 -0.6026
   73MOL   O27526339   0.703   1.348   5.557  0.4036  0.5291  0.0131
   73MOL   O27626340   0.897   1.470   5.605  0.2475 -0.0615 -0.3019
   73MOL   C27726341   0.937   1.485   5.482 -0.4410  0.2259 -0.6046
   73MOL   C27826342   0.936   1.632   5.447 -0.8980  0.4177  0.2849
   73MOL   C27926343   0.793   1.686   5.414  0.7110 -0.2672 -0.7472
   73MOL   H28026344   0.739   1.291   5.923  0.6482 -2.3318 -2.2104
   73MOL   H28126345   0.889   1.284   5.839 -0.1487 -1.2658  1.1922
   73MOL   H28226346   0.758   1.543   5.799 -0.0282 -0.6301  0.3665
   73MOL   H28326347   1.029   1.431   5.458 -1.1101 -0.4884 -1.5642
   73MOL   H28426348   0.862   1.436   5.421  0.3358 -0.1373 -1.2883
   73MOL   H28526349   0.985   1.686   5.529 -0.6566 -0.3015  0.6191
   73MOL   H28626350   1.004   1.650   5.364 -0.2448 -3.1599 -0.0361
   73MOL   H28726351   0.736   1.698   5.506  0.4388  1.2430 -1.0931
   73MOL   H28826352   0.731   1.627   5.346  0.6694 -2.0931  0.8323
   73MOL   H28926353   0.785   1.784   5.368 -0.2141 -0.2279 -0.5136
   73MOL   C29026354   0.590   1.422   5.804  0.5531  0.2841 -0.4899
   73MOL   C29126355   0.524   1.462   5.944 -0.5626 -0.4394  0.7619
   73MOL   C29226356   0.505   1.617   5.937  1.1624 -0.6528  0.4082
   73MOL   O29326357   0.389   1.661   5.907 -0.4076 -0.6397 -0.2034
   73MOL   O29426358   0.611   1.682   5.964  0.4335 -0.3157 -0.2727
   73MOL   C29526359   0.602   1.822   5.947 -0.2078 -0.4172  0.3195
   73MOL   C29626360   0.666   1.865   5.811 -0.3767  0.0145 -0.4272
   73MOL   C29726361   0.689   2.016   5.821 -0.2238 -0.3301 -0.7013
   73MOL   H29826362   0.578   1.316   5.783  0.1578 -0.3122  2.4662
   73MOL   H29926363   0.535   1.469   5.723  0.2266 -0.3314 -0.6265
   73MOL   H30026364   0.592   1.438   6.026  0.4367  1.5031  0.5072
   73MOL   H30126365   0.502   1.865   5.956  0.2037  0.3583  1.2276
   73MOL   H30226366   0.670   1.867   6.020 -0.7494  1.3802 -0.2555
   73MOL   H30326367   0.761   1.815   5.798 -0.1143  0.4635 -0.2350
   73MOL   H30426368   0.600   1.841   5.727  0.0012  0.5975 -0.8877
   73MOL   H30526369   0.747   2.033   5.912  1.4164 -0.4096 -1.6991
   73MOL   H30626370   0.598   2.074   5.832 -0.7561 -1.2769 -0.0140
   73MOL   H30726371   0.742   2.060   5.737  0.9462  0.3963  0.3938
   73MOL   C30826372   0.398   1.384   5.970  0.2302 -0.0834 -0.1085
   73MOL   C30926373   0.419   1.235   5.992 -0.1224  0.8416 -0.8523
   73MOL   C31026374   0.419   1.202   6.141  0.2644 -0.1929  0.1203
   73MOL   O31126375   0.509   1.144   6.194  0.0128  0.4433  0.8584
   73MOL   O31226376   0.312   1.257   6.211  0.4525 -0.0218 -0.1305
   73MOL   C31326377   0.301   1.242   6.351 -0.7258  0.3920 -0.1456
   73MOL   C31426378   0.335   1.359   6.442 -0.0025  0.3880  0.0743
   73MOL   C31526379   0.236   1.480   6.426 -0.4707 -0.1009  0.0300
   73MOL   H31626380   0.328   1.411   5.890 -0.2782  0.8963  0.6569
   73MOL   H31726381   0.339   1.425   6.052 -0.7976  1.6345 -1.6804
   73MOL   H31826382   0.517   1.208   5.952  0.5420  0.0752  1.1913
   73MOL   H31926383   0.197   1.216   6.372 -0.3835 -0.9904 -0.1291
   73MOL   H32026384   0.366   1.158   6.378 -0.5877  0.5301 -0.0488
   73MOL   H32126385   0.340   1.317   6.542  0.3748  0.2889  0.0128
   73MOL   H32226386   0.438   1.390   6.428 -0.7999  3.1997  0.2819
   73MOL   H32326387   0.133   1.447   6.412 -2.1209  3.6402  2.3895
   73MOL   H32426388   0.234   1.538   6.518  0.5103  0.0046 -0.0112
   73MOL   H32526389   0.261   1.548   6.344 -0.8219 -0.4101 -0.3356
   73MOL   C32626390   0.311   1.155   5.913 -0.1364 -0.4812  0.2952
   73MOL   C32726391   0.347   1.126   5.762  0.8145 -0.9091  0.0757
   73MOL   C32826392   0.446   1.004   5.760 -0.3599 -1.0188  0.6301
   73MOL   O32926393   0.571   1.015   5.762  0.3597  0.2000  0.1320
   73MOL   O33026394   0.376   0.894   5.772 -0.2084 -0.1542 -0.5968
   73MOL   C33126395   0.438   0.767   5.735 -0.8573  0.2168  0.1970
   73MOL   C33226396   0.332   0.655   5.726  0.4350  0.1398  0.5260
   73MOL   C33326397   0.401   0.527   5.681  0.2420  1.0794 -0.0866
   73MOL   H33426398   0.221   1.215   5.924  1.3126  1.7926 -0.0468
   73MOL   H33526399   0.284   1.063   5.967  0.8215 -0.1483  1.3558
   73MOL   H33626400   0.403   1.218   5.746  0.4560 -0.8591 -0.9414
   73MOL   H33726401   0.482   0.785   5.637  0.6817 -0.3010  0.7709
   73MOL   H33826402   0.517   0.736   5.804 -0.3791  2.3220  0.6214
   73MOL   H33926403   0.298   0.629   5.826  0.5981 -2.7756 -0.1353
   73MOL   H34026404   0.257   0.675   5.649 -0.7893 -1.7484  1.1901
   73MOL   H34126405   0.461   0.492   5.765  1.7386 -1.5896 -2.1870
   73MOL   H34226406   0.321   0.453   5.680 -0.1742  1.5269  0.4628
   73MOL   H34326407   0.469   0.544   5.597  0.8690 -1.4077 -0.1224
   73MOL   C34426408   0.231   1.129   5.661  0.1633 -0.3377  0.8589
   73MOL   C34526409   0.277   1.126   5.511  1.3168 -0.1827  0.2984
   73MOL   C34626410   0.348   1.251   5.470 -0.4984  0.1572 -0.3983
   73MOL   O34726411   0.337   1.352   5.538 -0.5762 -0.4410  0.0223
   73MOL   O34826412   0.426   1.233   5.358 -0.0464 -0.9183  0.1444
   73MOL   C34926413   0.492   1.342   5.302  0.1437  0.5464  0.0418
   73MOL   C35026414   0.436   1.380   5.160 -0.1592 -0.2475 -0.1026
   73MOL   C35126415   0.484   1.515   5.121  0.2731  0.2517 -0.4310
   73MOL   H35226416   0.160   1.211   5.658  0.6013 -0.0083 -1.3046
   73MOL   H35326417   0.177   1.035   5.676  0.6007 -0.6882  0.2855
   73MOL   H35426418   0.196   1.097   5.445  0.6768  0.5911  0.7335
   73MOL   H35526419   0.490   1.433   5.363 -2.0261  0.6812 -0.2065
   73MOL   H35626420   0.597   1.312   5.299  0.1049  0.4196 -0.0310
   73MOL   H35726421   0.455   1.298   5.091  2.5618 -0.2960  0.6485
   73MOL   H35826422   0.329   1.386   5.181 -0.1134  0.3680 -0.0350
   73MOL   H35926423   0.449   1.552   5.025 -1.6748 -0.3617  0.0249
   73MOL   H36026424   0.451   1.594   5.188  0.0600  0.3244 -0.6194
   73MOL   H36126425   0.593   1.515   5.125  0.2604 -1.1907  0.2433
   73MOL   H36226426   0.346   1.041   5.505  2.0596  0.3330  1.2138
   74MOL     C126427   2.022   4.794   4.845 -0.4327  0.0943  0.7235
   74MOL     C226428   2.142   4.763   4.944 -0.2089  0.2541  0.2423
   74MOL     C326429   2.095   4.692   5.073 -0.6543  0.3536  0.0250
   74MOL     O426430   2.134   4.724   5.185 -0.5476  0.1910  0.0736
   74MOL     O526431   2.003   4.592   5.057  0.3640 -0.0240  0.1648
   74MOL     C626432   1.963   4.519   5.169 -0.4927  0.1438  0.6152
   74MOL     C726433   1.836   4.441   5.131 -0.2797  0.4018  0.3227
   74MOL     C826434   1.716   4.532   5.113  0.1488 -0.0082 -0.0975
   74MOL     H926435   2.000   4.708   4.782  0.5637  2.2854 -2.7817
   74MOL    H1026436   1.934   4.800   4.908 -0.0796 -0.2541  1.2523
   74MOL    H1126437   2.181   4.857   4.983  2.1841 -1.1698  1.4526
   74MOL    H1226438   2.034   4.448   5.211  0.3510  2.0095  2.4612
   74MOL    H1326439   1.949   4.590   5.251  2.1530 -1.2452  2.3256
   74MOL    H1426440   1.868   4.385   5.043  0.2632  1.2051 -0.0071
   74MOL    H1526441   1.827   4.378   5.219  1.9929 -0.3783  0.0362
   74MOL    H1626442   1.626   4.489   5.158  2.2571 -1.3691  3.0240
   74MOL    H1726443   1.730   4.628   5.161 -0.7940  0.8638 -1.5029
   74MOL    H1826444   1.703   4.569   5.011 -0.5562 -2.0841 -0.8078
   74MOL    H1926445   2.034   4.880   4.779  0.1521 -0.4558  0.1029
   74MOL    C2026446   2.256   4.696   4.871 -0.1593 -0.0233  0.4976
   74MOL    C2126447   2.340   4.780   4.771  0.7007  0.4477  0.2453
   74MOL    C2226448   2.410   4.895   4.841 -0.1606 -0.6999  0.1671
   74MOL    O2326449   2.384   5.011   4.808 -0.3252 -0.2996 -0.0243
   74MOL    O2426450   2.483   4.863   4.942  0.3045 -0.1244 -0.3063
   74MOL    C2526451   2.550   4.962   5.023  0.3349  0.2366  0.0547
   74MOL    C2626452   2.477   4.980   5.162  0.0071 -0.1819 -0.0405
   74MOL    C2726453   2.463   4.857   5.247  0.5073  0.0054  0.3487
   74MOL    H2826454   2.210   4.605   4.833 -2.0840  1.2740 -0.3358
   74MOL    H2926455   2.339   4.650   4.926  1.1884 -0.3755 -1.7756
   74MOL    H3026456   2.268   4.833   4.709 -0.7850 -1.4124  0.3081
   74MOL    H3126457   2.646   4.917   5.051 -0.9623 -1.0259  2.6503
   74MOL    H3226458   2.562   5.057   4.970  2.6927 -0.0147  0.0752
   74MOL    H3326459   2.526   5.064   5.212 -1.0748  0.3062  0.2276
   74MOL    H3426460   2.379   5.018   5.134  0.1832 -1.0922 -1.9991
   74MOL    H3526461   2.388   4.786   5.212  1.6604 -0.7292 -0.6902
   74MOL    H3626462   2.435   4.887   5.348  1.6684  1.4813  0.2498
   74MOL    H3726463   2.559   4.804   5.252 -0.7835 -2.4605 -0.2870
   74MOL    C3826464   2.427   4.695   4.676  0.3296 -0.1927  0.4997
   74MOL    C3926465   2.363   4.612   4.558 -0.0842  0.3468  0.4769
   74MOL    C4026466   2.324   4.700   4.436 -0.5801 -0.9362 -0.4245
   74MOL    O4126467   2.218   4.683   4.375  0.3040  0.2675 -0.1570
   74MOL    O4226468   2.412   4.802   4.411 -0.7179 -0.8697  0.4718
   74MOL    C4326469   2.384   4.901   4.310 -0.0443  0.0809 -0.5261
   74MOL    C4426470   2.301   5.020   4.364  0.5494 -0.5241  0.0323
   74MOL    C4526471   2.375   5.097   4.476 -0.0130 -0.1618 -0.2700
   74MOL    H4626472   2.479   4.625   4.741  2.0592  1.6711  1.1906
   74MOL    H4726473   2.502   4.760   4.631  0.8534  0.8252  2.7414
   74MOL    H4826474   2.263   4.580   4.587 -0.7786 -0.1461 -2.2804
   74MOL    H4926475   2.471   4.940   4.256 -0.8096 -0.0178 -1.8676
   74MOL    H5026476   2.329   4.863   4.224  2.6537 -3.2583 -0.8479
   74MOL    H5126477   2.284   5.090   4.283  1.6493  1.2973  1.3239
   74MOL    H5226478   2.200   4.989   4.390 -0.0662  1.7399  0.4918
   74MOL    H5326479   2.473   5.128   4.441 -0.7511  0.9013 -1.4643
   74MOL    H5426480   2.397   5.020   4.549 -0.8414 -0.5880 -0.4575
   74MOL    H5526481   2.322   5.178   4.526  0.9653 -0.2852  0.9616
   74MOL    C5626482   2.450   4.494   4.505 -0.1035  0.2460 -0.1661
   74MOL    C5726483   2.499   4.386   4.599  0.0312 -0.1271 -0.2529
   74MOL    C5826484   2.375   4.322   4.674  0.2931  0.6002 -0.1164
   74MOL    O5926485   2.363   4.334   4.796 -0.5408  0.2288  0.1884
   74MOL    O6026486   2.284   4.268   4.599  0.3953 -0.1374  0.1412
   74MOL    C6126487   2.153   4.227   4.662  0.7418  0.4261 -0.2229
   74MOL    C6226488   2.144   4.073   4.680  0.1368 -0.0880  0.1582
   74MOL    C6326489   2.254   4.014   4.760 -0.5592 -0.3179  0.0287
   74MOL    H6426490   2.533   4.544   4.455 -0.1751  1.9968  1.3791
   74MOL    H6526491   2.390   4.442   4.430  1.4292 -0.0198 -1.2212
   74MOL    H6626492   2.565   4.425   4.677 -0.7220 -0.0242  0.3383
   74MOL    H6726493   2.143   4.267   4.764  0.4402  3.8300 -1.5141
   74MOL    H6826494   2.062   4.259   4.610  1.8977 -0.4605 -2.8318
   74MOL    H6926495   2.056   4.055   4.743  1.6764  1.5866  2.8699
   74MOL    H7026496   2.128   4.020   4.586 -0.4454 -0.5447  0.5066
   74MOL    H7126497   2.246   3.907   4.774  0.9221 -0.5592 -0.8452
   74MOL    H7226498   2.258   4.054   4.861  1.1365 -0.3131 -0.0329
   74MOL    H7326499   2.354   4.031   4.719 -0.6096 -0.2110 -0.0512
   74MOL    C7426500   2.568   4.281   4.518 -0.1175 -0.7701  0.4577
   74MOL    C7526501   2.642   4.161   4.589  0.1274  0.2012  0.2398
   74MOL    C7626502   2.699   4.079   4.468 -0.2574 -0.1905  0.4616
   74MOL    O7726503   2.648   3.974   4.436 -0.3327  0.1967  0.1078
   74MOL    O7826504   2.802   4.133   4.409 -0.1586 -0.3791 -0.2469
   74MOL    C7926505   2.861   4.083   4.291 -0.2905 -0.0335  0.3896
   74MOL    C8026506   2.778   4.100   4.164  0.4151  0.4560 -0.2239
   74MOL    C8126507   2.770   4.244   4.126 -0.9046 -0.0348 -0.1067
   74MOL    H8226508   2.629   4.335   4.446  0.7834 -1.3637  0.7716
   74MOL    H8326509   2.498   4.242   4.444  0.1276 -1.4728  0.6009
   74MOL    H8426510   2.568   4.096   4.637 -0.7311  0.7045 -0.3960
   74MOL    H8526511   2.957   4.131   4.273 -0.6474  1.3682  2.1292
   74MOL    H8626512   2.899   3.983   4.308  2.0155  1.2408  3.1366
   74MOL    H8726513   2.817   4.038   4.083  0.2914 -2.2449  1.7397
   74MOL    H8826514   2.676   4.066   4.181 -0.2537  0.6852 -3.3310
   74MOL    H8926515   2.719   4.302   4.203 -0.9771  0.3274 -0.4249
   74MOL    H9026516   2.710   4.239   4.035 -1.1389 -0.7182  0.0791
   74MOL    H9126517   2.872   4.281   4.113 -1.1579  0.4186 -0.8248
   74MOL    C9226518   2.754   4.208   4.691  0.2046 -0.1448 -0.0754
   74MOL    C9326519   2.715   4.199   4.838 -0.2851  0.1540  0.4912
   74MOL    C9426520   2.652   4.064   4.884 -0.0285  1.0177  0.4561
   74MOL    O9526521   2.656   3.964   4.813 -0.3771  0.2988  0.5679
   74MOL    O9626522   2.589   4.067   5.000 -0.3114  0.2580 -0.5323
   74MOL    C9726523   2.524   3.954   5.048  0.6655 -0.1173  0.4247
   74MOL    C9826524   2.483   3.990   5.181 -0.0789  0.2074  1.0945
   74MOL    C9926525   2.431   3.871   5.251  0.0383 -0.6548  0.1284
   74MOL   H10026526   2.781   4.310   4.664  0.8655 -0.7342 -1.6957
   74MOL   H10126527   2.841   4.147   4.666 -0.4932 -1.8464  1.5352
   74MOL   H10226528   2.630   4.267   4.845  0.9141  1.8037 -0.4366
   74MOL   H10326529   2.441   3.932   4.980  0.8676  1.9982 -0.5644
   74MOL   H10426530   2.596   3.872   5.043 -0.0376 -0.6374 -2.0145
   74MOL   H10526531   2.573   4.021   5.234  0.4585  0.2286  0.1840
   74MOL   H10626532   2.408   4.069   5.183 -2.4237 -1.7489 -2.4652
   74MOL   H10726533   2.348   3.839   5.188  1.4531  0.3763 -2.3444
   74MOL   H10826534   2.391   3.897   5.349  0.7415  2.1946 -0.3135
   74MOL   H10926535   2.505   3.792   5.262  0.4091  0.0643  3.2039
   74MOL   C11026536   2.823   4.244   4.926 -0.4067 -0.4526 -0.3295
   74MOL   C11126537   2.850   4.393   4.947 -0.0383  0.1188  0.1788
   74MOL   C11226538   2.725   4.470   4.972  0.9125 -0.5306  0.8793
   74MOL   O11326539   2.686   4.570   4.907 -0.7068  0.0965  0.3448
   74MOL   O11426540   2.648   4.411   5.061  0.3667  0.3348 -0.1851
   74MOL   C11526541   2.529   4.473   5.105  0.0323  0.4500  0.1577
   74MOL   C11626542   2.483   4.393   5.224 -0.5103  0.1752 -0.1880
   74MOL   C11726543   2.349   4.446   5.283 -0.1353 -0.1969  0.6343
   74MOL   H11826544   2.917   4.189   4.913 -0.1431 -0.3139  0.9416
   74MOL   H11926545   2.783   4.215   5.023 -0.6615  0.0785 -0.2743
   74MOL   H12026546   2.891   4.426   4.852 -2.8056  0.2314 -1.0266
   74MOL   H12126547   2.537   4.578   5.135 -1.6868  0.7513 -0.4013
   74MOL   H12226548   2.458   4.451   5.025  0.2995  0.7958 -0.1778
   74MOL   H12326549   2.467   4.291   5.189 -2.8793  0.2189  0.6277
   74MOL   H12426550   2.555   4.395   5.306 -2.1425  1.3243  1.2598
   74MOL   H12526551   2.317   4.392   5.372 -1.8813 -2.0183 -1.0574
   74MOL   H12626552   2.264   4.465   5.218  0.4268  0.7709  0.1565
   74MOL   H12726553   2.378   4.544   5.322  1.4438 -0.5638  0.4370
   74MOL   C12826554   2.947   4.406   5.071 -0.2803 -0.9493  0.3358
   74MOL   C12926555   3.044   4.536   5.072 -0.3082  1.1287 -0.2364
   74MOL   C13026556   2.997   4.647   5.164  1.3019 -0.0215  0.4410
   74MOL   O13126557   3.048   4.760   5.154  0.8681  0.3262  0.2866
   74MOL   O13226558   2.901   4.609   5.254  0.3693  0.7479  0.4184
   74MOL   C13326559   2.846   4.689   5.360 -0.2043  0.0758  0.6153
   74MOL   C13426560   2.719   4.628   5.430 -0.0096  0.1669 -0.6266
   74MOL   C13526561   2.762   4.514   5.527 -0.2188  0.1017 -0.6065
   74MOL   H13626562   3.018   4.322   5.066  0.0557 -0.6287 -0.3371
   74MOL   H13726563   2.890   4.400   5.164 -1.5936 -1.9730 -0.5171
   74MOL   H13826564   3.057   4.575   4.971 -0.3251 -1.3496 -1.2218
   74MOL   H13926565   2.928   4.699   5.430 -0.7039 -2.0222  1.5290
   74MOL   H14026566   2.818   4.790   5.330 -0.1309  0.0538  0.4762
   74MOL   H14126567   2.686   4.707   5.497  1.8204  0.3527  0.0928
   74MOL   H14226568   2.632   4.604   5.369 -0.3866 -0.3698  0.1039
   74MOL   H14326569   2.771   4.418   5.478 -1.3854 -1.5227  2.2522
   74MOL   H14426570   2.685   4.507   5.604  0.8503  0.2994  0.4976
   74MOL   H14526571   2.854   4.530   5.583  0.2284  1.0063 -1.5642
   74MOL   C14626572   3.197   4.503   5.109  0.0064 -0.0012 -0.3018
   74MOL   C14726573   3.229   4.479   5.262  0.5794  0.3526 -0.2048
   74MOL   C14826574   3.139   4.385   5.329 -0.5435 -0.1353 -0.3973
   74MOL   O14926575   3.067   4.421   5.417  0.1272 -0.1004 -0.1819
   74MOL   O15026576   3.156   4.252   5.295 -0.3956 -0.4253 -0.4957
   74MOL   C15126577   3.093   4.147   5.374  0.3410 -0.1756  0.0654
   74MOL   C15226578   2.949   4.104   5.329  0.3825  0.4134  0.0074
   74MOL   C15326579   2.846   4.193   5.381 -0.1837  0.2004  0.0675
   74MOL   H15426580   3.253   4.585   5.065 -0.8329  0.1478 -1.1205
   74MOL   H15526581   3.225   4.413   5.055  1.6570 -0.9412  2.0520
   74MOL   H15626582   3.225   4.574   5.316  1.9428  0.2843  0.0348
   74MOL   H15726583   3.154   4.059   5.352  0.7395 -0.1699  1.1011
   74MOL   H15826584   3.085   4.166   5.481  0.9454 -2.6731  0.5790
   74MOL   H15926585   2.949   4.102   5.220 -0.6329 -1.0860  0.0193
   74MOL   H16026586   2.927   4.005   5.369  0.9459 -0.3632 -1.5834
   74MOL   H16126587   2.862   4.197   5.489 -2.2146  0.3125  0.3816
   74MOL   H16226588   2.749   4.156   5.349 -0.7841  1.1476  0.7721
   74MOL   H16326589   2.844   4.289   5.331 -0.5971 -1.3216 -2.9625
   74MOL   C16426590   3.379   4.428   5.272 -0.0811 -0.0371 -0.4125
   74MOL   C16526591   3.484   4.527   5.231  0.7342  0.5263 -0.1782
   74MOL   C16626592   3.472   4.661   5.310 -0.3073  0.4757  0.3977
   74MOL   O16726593   3.536   4.685   5.410 -0.2843  0.0546  0.2542
   74MOL   O16826594   3.372   4.737   5.254 -0.3159 -0.1324 -0.3336
   74MOL   C16926595   3.361   4.876   5.298  0.1124  0.3718 -0.4095
   74MOL   C17026596   3.310   4.965   5.187  1.1473  0.2615 -0.1164
   74MOL   C17126597   3.315   5.110   5.224  0.0716 -0.4964 -0.5814
   74MOL   H17226598   3.392   4.337   5.214  0.4422  0.0115 -0.3694
   74MOL   H17326599   3.401   4.393   5.372  1.1787 -1.1413 -1.0622
   74MOL   H17426600   3.465   4.536   5.124 -1.2492 -0.5169  0.0595
   74MOL   H17526601   3.279   4.875   5.370 -1.3788 -0.0853 -2.0716
   74MOL   H17626602   3.455   4.913   5.338  1.4218 -3.3849  0.1873
   74MOL   H17726603   3.367   4.954   5.095 -0.0482  0.4774 -0.8942
   74MOL   H17826604   3.204   4.953   5.168  1.1815 -0.7868  0.3362
   74MOL   H17926605   3.261   5.139   5.314 -1.3930  0.1641 -1.6554
   74MOL   H18026606   3.276   5.171   5.142  1.0095 -2.6616 -2.7120
   74MOL   H18126607   3.421   5.134   5.232  0.1926 -1.3256  0.4456
   74MOL   C18226608   3.631   4.469   5.239  0.9330 -0.0400  0.5680
   74MOL   C18326609   3.658   4.342   5.150 -0.5773 -0.0008  0.5181
   74MOL   C18426610   3.604   4.358   5.003 -0.6247 -0.3240 -1.0758
   74MOL   O18526611   3.515   4.284   4.967 -0.2317 -0.4763  0.1629
   74MOL   O18626612   3.661   4.458   4.941  0.8833  0.8863 -0.3191
   74MOL   C18726613   3.613   4.489   4.811 -0.1723  0.4606  0.2079
   74MOL   C18826614   3.634   4.644   4.786 -0.3082 -0.0732  0.2643
   74MOL   C18926615   3.567   4.721   4.903 -0.3170 -0.3281 -0.8116
   74MOL   H19026616   3.660   4.463   5.344  2.1200  1.6007  0.3508
   74MOL   H19126617   3.693   4.555   5.214 -0.6626  0.6208 -1.2238
   74MOL   H19226618   3.587   4.265   5.179 -0.3115 -0.4817 -0.0996
   74MOL   H19326619   3.674   4.434   4.739  0.1023  1.3815 -0.2688
   74MOL   H19426620   3.508   4.463   4.794 -0.2390 -1.2230  2.8199
   74MOL   H19526621   3.742   4.657   4.784 -0.3514  0.7716  1.9233
   74MOL   H19626622   3.599   4.663   4.685  0.7589  0.2036 -0.0594
   74MOL   H19726623   3.460   4.702   4.896 -0.3760 -0.1198 -0.4856
   74MOL   H19826624   3.576   4.828   4.880 -0.6343 -0.4765 -1.6732
   74MOL   H19926625   3.602   4.701   5.004 -1.0391  2.8524  0.1268
   74MOL   C20026626   3.809   4.299   5.141  0.4161 -0.5690  0.1500
   74MOL   C20126627   3.827   4.143   5.119 -0.0341 -0.5010 -0.2123
   74MOL   C20226628   3.751   4.088   4.997 -0.3470 -0.0900 -0.4834
   74MOL   O20326629   3.671   3.996   5.011 -0.1979 -0.3594  0.1828
   74MOL   O20426630   3.782   4.145   4.878  0.1069  0.1108  0.8850
   74MOL   C20526631   3.708   4.097   4.768 -0.4381 -0.2315  0.3845
   74MOL   C20626632   3.754   3.964   4.712  0.9322  0.2093  0.4363
   74MOL   C20726633   3.705   3.937   4.578  0.2226  0.0811 -0.3136
   74MOL   H20826634   3.862   4.335   5.229  0.4659 -0.7514  0.1934
   74MOL   H20926635   3.857   4.344   5.054 -3.9166 -0.7167 -2.4704
   74MOL   H21026636   3.767   4.100   5.200 -0.9409 -0.6956 -0.9791
   74MOL   H21126637   3.602   4.093   4.793  0.0157 -2.1415  2.1090
   74MOL   H21226638   3.722   4.163   4.682 -2.0274  1.8469  1.6555
   74MOL   H21326639   3.863   3.961   4.711  0.9185 -0.7883 -1.7709
   74MOL   H21426640   3.725   3.875   4.768 -1.5054  1.5757  1.3816
   74MOL   H21526641   3.770   3.971   4.497  0.1132 -0.7701 -0.7702
   74MOL   H21626642   3.604   3.972   4.560 -0.4148 -0.9380  1.2255
   74MOL   H21726643   3.703   3.830   4.558 -0.3602 -0.0263  0.3006
   74MOL   C21826644   3.971   4.091   5.135 -0.8740 -0.2918  0.6397
   74MOL   C21926645   3.990   3.937   5.121  0.1895 -0.0991 -0.0909
   74MOL   C22026646   4.041   3.892   4.980 -0.0773  0.0375 -0.0680
   74MOL   O22126647   4.061   3.973   4.891  0.1434  0.3908 -0.1085
   74MOL   O22226648   4.053   3.760   4.970 -0.0237 -0.5743  0.4814
   74MOL   C22326649   4.081   3.694   4.846 -0.1806 -0.2996  0.5135
   74MOL   C22426650   4.183   3.581   4.849  0.9205 -0.0595 -0.2447
   74MOL   C22526651   4.136   3.453   4.921 -0.0916 -0.1735  0.0966
   74MOL   H22626652   3.997   4.114   5.238  0.8767  0.4727  0.0440
   74MOL   H22726653   4.046   4.143   5.075 -1.1120  0.7852  1.2676
   74MOL   H22826654   3.889   3.896   5.126  0.3290 -0.5777 -0.9690
   74MOL   H22926655   3.990   3.659   4.795 -0.9785  1.3363  0.7834
   74MOL   H23026656   4.112   3.762   4.767  1.6560 -1.3140  0.3372
   74MOL   H23126657   4.204   3.557   4.745  2.0845 -0.4894  0.0807
   74MOL   H23226658   4.273   3.620   4.897 -0.3991  1.0412  1.4001
   74MOL   H23326659   4.127   3.471   5.028  0.0324  0.0360  0.0708
   74MOL   H23426660   4.207   3.370   4.913 -0.1711 -0.0383 -2.8701
   74MOL   H23526661   4.045   3.415   4.873  0.3412  0.6457 -1.4226
   74MOL   C23626662   4.055   3.874   5.245 -0.1175  0.2838 -0.1643
   74MOL   C23726663   4.207   3.879   5.250  0.1602 -0.8644  0.4829
   74MOL   C23826664   4.271   4.015   5.220 -0.1981 -0.2391  0.7627
   74MOL   O23926665   4.330   4.048   5.119 -0.0332  0.0256 -0.3565
   74MOL   O24026666   4.259   4.096   5.325 -0.5833  0.3071 -0.4242
   74MOL   C24126667   4.329   4.215   5.323 -0.1082  0.1751 -0.5766
   74MOL   C24226668   4.238   4.299   5.416 -0.4114  0.6186 -0.3416
   74MOL   C24326669   4.237   4.266   5.567 -0.9607  0.0715 -0.3576
   74MOL   H24426670   4.035   3.768   5.261 -1.2613  0.2594 -1.6859
   74MOL   H24526671   4.023   3.925   5.336  1.1153  1.2529 -0.2436
   74MOL   H24626672   4.244   3.807   5.176  2.1756 -0.6705  1.2737
   74MOL   H24726673   4.428   4.207   5.367  0.3565  3.2566 -0.9427
   74MOL   H24826674   4.336   4.255   5.222 -0.1694  4.0305  0.8569
   74MOL   H24926675   4.277   4.401   5.409 -0.0378  0.4346 -0.9129
   74MOL   H25026676   4.133   4.301   5.385 -1.0268  0.3473  1.6493
   74MOL   H25126677   4.312   4.314   5.630 -0.4322 -2.1808  0.7622
   74MOL   H25226678   4.242   4.161   5.595  1.9726  0.1382 -0.5644
   74MOL   H25326679   4.139   4.302   5.601 -0.4443  0.2132  1.0197
   74MOL   C25426680   4.264   3.824   5.386  0.1840  0.2595 -0.0526
   74MOL   C25526681   4.256   3.667   5.394  0.1854 -0.2972  0.2669
   74MOL   C25626682   4.357   3.613   5.300  0.5077  0.2447 -0.0979
   74MOL   O25726683   4.319   3.564   5.197 -0.4915 -0.2651 -0.2823
   74MOL   O25826684   4.483   3.626   5.333  0.6786 -0.0612 -0.2918
   74MOL   C25926685   4.582   3.605   5.234 -0.3048 -0.5513 -0.1956
   74MOL   C26026686   4.609   3.740   5.158  0.2568  0.1934 -0.6962
   74MOL   C26126687   4.734   3.811   5.215  0.7025  0.0564 -0.5781
   74MOL   H26226688   4.205   3.876   5.462 -0.3948 -1.3543  0.6120
   74MOL   H26326689   4.367   3.856   5.401  0.6770 -1.4439  0.3123
   74MOL   H26426690   4.157   3.636   5.359  0.6977 -1.0081 -0.5545
   74MOL   H26526691   4.668   3.576   5.294  0.7868  2.3618 -0.2945
   74MOL   H26626692   4.563   3.521   5.166  1.8656 -0.7369 -0.6145
   74MOL   H26726693   4.634   3.712   5.056  0.9701 -1.6911 -0.0318
   74MOL   H26826694   4.518   3.799   5.149 -0.9374 -1.2066  1.5891
   74MOL   H26926695   4.819   3.742   5.207  0.4345 -0.3133 -0.2744
   74MOL   H27026696   4.714   3.836   5.319  1.8025 -1.3643 -0.0008
   74MOL   H27126697   4.760   3.899   5.157  1.1409 -0.7625 -1.6472
   74MOL   C27226698   4.279   3.623   5.542 -0.1031  0.4681 -0.0401
   74MOL   C27326699   4.251   3.478   5.575 -0.4143 -0.1681  0.1209
   74MOL   C27426700   4.364   3.426   5.668  0.4154  0.0693  0.7786
   74MOL   O27526701   4.343   3.413   5.788 -0.1947  0.4807 -0.2658
   74MOL   O27626702   4.479   3.406   5.597  0.7753  0.6036 -0.1139
   74MOL   C27726703   4.593   3.364   5.666  0.5487  0.1213  0.7860
   74MOL   C27826704   4.693   3.476   5.697  0.8776  0.2402  0.2309
   74MOL   C27926705   4.639   3.575   5.800 -0.2131 -0.3671  0.5898
   74MOL   H28026706   4.214   3.682   5.606 -1.7630 -2.1432  0.7785
   74MOL   H28126707   4.384   3.649   5.560  0.3695 -0.1086 -1.8149
   74MOL   H28226708   4.258   3.426   5.480  1.9392  1.6700 -0.7540
   74MOL   H28326709   4.562   3.310   5.755  1.1126 -0.8390  0.4020
   74MOL   H28426710   4.638   3.281   5.613  2.9563  0.5225  2.1414
   74MOL   H28526711   4.783   3.425   5.731  1.4303  1.7060  1.0065
   74MOL   H28626712   4.715   3.531   5.605 -0.9436  1.1385  0.3107
   74MOL   H28726713   4.584   3.528   5.881 -0.5866 -0.0409  0.5244
   74MOL   H28826714   4.584   3.657   5.755 -2.9428 -1.9867  0.8645
   74MOL   H28926715   4.726   3.629   5.838  1.3044 -1.3392 -1.4146
   74MOL   C29026716   4.118   3.441   5.640  0.2506  0.2559  0.4022
   74MOL   C29126717   3.997   3.499   5.554 -0.4184 -0.1909 -0.0991
   74MOL   C29226718   3.965   3.430   5.427 -0.3575  0.0338  0.1866
   74MOL   O29326719   4.036   3.335   5.393 -0.8845 -0.2770 -0.0446
   74MOL   O29426720   3.865   3.489   5.359  0.2189 -0.0933 -0.1355
   74MOL   C29526721   3.851   3.466   5.223 -0.0356 -0.1000 -0.3870
   74MOL   C29626722   3.758   3.560   5.145  0.6689 -0.6045  0.0660
   74MOL   C29726723   3.758   3.530   4.994  0.0287 -0.3478 -0.7740
   74MOL   H29826724   4.103   3.485   5.739 -0.7590  1.3060 -0.2000
   74MOL   H29926725   4.123   3.333   5.635  1.9170  0.2195  2.4761
   74MOL   H30026726   4.013   3.599   5.513 -2.0773 -0.3943 -1.2922
   74MOL   H30126727   3.947   3.454   5.173  0.4113  1.2549  0.1097
   74MOL   H30226728   3.801   3.370   5.218 -0.2967  0.0148  0.0167
   74MOL   H30326729   3.658   3.555   5.187 -0.5009 -1.9354 -2.7523
   74MOL   H30426730   3.803   3.657   5.168  1.4187 -0.8426 -0.3656
   74MOL   H30526731   3.706   3.434   4.993 -1.8605  0.6603 -3.2562
   74MOL   H30626732   3.858   3.527   4.949  0.6270  2.5204  0.3102
   74MOL   H30726733   3.696   3.608   4.951  1.6980 -0.2701 -3.1579
   74MOL   C30826734   3.871   3.514   5.648  0.1490 -0.2273 -0.3861
   74MOL   C30926735   3.845   3.643   5.724 -0.4802 -0.4480  0.1724
   74MOL   C31026736   3.824   3.768   5.638  0.5759  0.3881  0.0951
   74MOL   O31126737   3.910   3.858   5.630  0.3211 -0.5309  0.1532
   74MOL   O31226738   3.707   3.773   5.571  0.2288  0.0616  0.1523
   74MOL   C31326739   3.682   3.871   5.476 -0.6199 -0.3408 -0.5849
   74MOL   C31426740   3.535   3.870   5.438 -0.9601  0.4944 -0.3372
   74MOL   C31526741   3.519   3.788   5.316  0.0493  0.3494 -0.2442
   74MOL   H31626742   3.875   3.447   5.734 -0.6700  1.7259  1.2215
   74MOL   H31726743   3.786   3.497   5.582 -0.0381  2.8020 -1.0047
   74MOL   H31826744   3.939   3.674   5.772 -0.2318 -2.8913  1.3403
   74MOL   H31926745   3.698   3.968   5.523  0.6823 -1.5586  1.5355
   74MOL   H32026746   3.738   3.859   5.383  0.0462 -0.2450 -0.1960
   74MOL   H32126747   3.466   3.845   5.519 -0.6401  2.1022  0.4424
   74MOL   H32226748   3.507   3.966   5.395 -0.8522  0.7743  0.2138
   74MOL   H32326749   3.416   3.777   5.282  0.5728 -0.2806 -1.6929
   74MOL   H32426750   3.578   3.836   5.238 -0.7502  2.3845  0.3772
   74MOL   H32526751   3.557   3.688   5.336  0.8169  0.7752  0.4203
   74MOL   C32626752   3.741   3.637   5.840 -0.1028 -0.0006  0.2016
   74MOL   C32726753   3.773   3.559   5.966  0.5697  0.3261  0.9448
   74MOL   C32826754   3.910   3.596   6.023  0.4113  0.1219  0.0062
   74MOL   O32926755   3.952   3.708   6.037 -0.0798 -0.0879  0.4523
   74MOL   O33026756   3.979   3.491   6.056 -0.2683  0.1511 -0.5265
   74MOL   C33126757   4.110   3.495   6.101 -0.8944 -0.4041  0.6962
   74MOL   C33226758   4.142   3.382   6.200 -0.0462 -0.8228  0.4019
   74MOL   C33326759   4.150   3.244   6.131 -0.0688  0.3303  0.4576
   74MOL   H33426760   3.662   3.590   5.783 -0.2867 -1.4398  1.6117
   74MOL   H33526761   3.699   3.736   5.856 -1.0737 -0.3442 -0.1930
   74MOL   H33626762   3.779   3.455   5.934 -4.3709 -0.3805  1.8960
   74MOL   H33726763   4.169   3.489   6.009  0.0020 -0.1408  1.2392
   74MOL   H33826764   4.118   3.587   6.160 -0.2766 -0.3225  0.4986
   74MOL   H33926765   4.233   3.399   6.258  0.6846 -0.8097 -0.7397
   74MOL   H34026766   4.060   3.378   6.273 -0.5065  1.4204  0.0372
   74MOL   H34126767   4.193   3.172   6.201 -1.5921 -0.6493  0.4121
   74MOL   H34226768   4.050   3.207   6.109 -0.6722  2.6166 -0.8060
   74MOL   H34326769   4.223   3.244   6.050 -0.7712  1.0954 -0.1812
   74MOL   C34426770   3.653   3.566   6.068 -0.7025 -0.5863  0.1003
   74MOL   C34526771   3.647   3.460   6.177  0.6427 -0.3364  0.1602
   74MOL   C34626772   3.580   3.335   6.126 -0.3355  0.5098  0.0327
   74MOL   O34726773   3.483   3.282   6.181 -0.7761  0.1035  0.6141
   74MOL   O34826774   3.642   3.291   6.012 -0.0150  0.1411 -0.3367
   74MOL   C34926775   3.598   3.167   5.952  0.1677 -0.3527  0.4724
   74MOL   C35026776   3.701   3.129   5.841  0.0845 -0.5102  0.2068
   74MOL   C35126777   3.853   3.133   5.881  0.4705 -1.1890 -0.3273
   74MOL   H35226778   3.562   3.563   6.009 -1.2163 -3.7890  0.9620
   74MOL   H35326779   3.653   3.657   6.128 -0.6848  0.6322 -1.7191
   74MOL   H35426780   3.614   3.487   6.277  0.3766  1.9297 -0.4992
   74MOL   H35526781   3.591   3.093   6.032  0.6327 -1.0172 -0.0946
   74MOL   H35626782   3.500   3.181   5.908  0.0371  2.2933  1.5246
   74MOL   H35726783   3.682   3.026   5.811 -1.3657 -0.3099  0.4018
   74MOL   H35826784   3.685   3.195   5.756 -3.1209 -0.5867  0.6744
   74MOL   H35926785   3.867   3.231   5.927  0.6666 -1.5361  0.3537
   74MOL   H36026786   3.887   3.061   5.955  2.9912  1.1875  0.9400
   74MOL   H36126787   3.920   3.116   5.797  2.2120 -1.8818  1.1694
   74MOL   H36226788   3.748   3.422   6.190  1.1927  1.3046  0.8355
   75MOL     C126789   5.501   2.103   1.556  1.7423 -0.3946 -0.4481
   75MOL     C226790   5.571   2.001   1.458  0.3891 -0.7226 -0.8328
   75MOL     C326791   5.712   1.978   1.507  1.0548 -1.1446  0.2216
   75MOL     O426792   5.730   1.933   1.626 -0.2209  0.2890 -0.0760
   75MOL     O526793   5.806   1.994   1.419 -0.2929 -0.1724  0.2763
   75MOL     C626794   5.938   1.964   1.454  0.6577 -0.0320 -0.4421
   75MOL     C726795   6.019   2.019   1.335 -0.3047 -0.1124  0.2801
   75MOL     C826796   6.166   1.989   1.342  0.2971 -0.7956 -0.2483
   75MOL     H926797   5.446   2.058   1.638  0.7781  0.5910 -0.5338
   75MOL    H1026798   5.579   2.172   1.588  0.0933  2.8831 -3.1595
   75MOL    H1126799   5.578   2.056   1.364  2.2123 -0.2548 -0.4380
   75MOL    H1226800   5.973   2.024   1.538 -0.4498  0.1106 -0.0868
   75MOL    H1326801   5.961   1.858   1.466 -1.2716 -0.2841  1.2137
   75MOL    H1426802   5.991   1.975   1.240  0.2615 -0.8849  0.4658
   75MOL    H1526803   6.011   2.127   1.330 -1.7711 -0.0993  2.3156
   75MOL    H1626804   6.215   2.032   1.254  0.8120 -0.2240  0.3041
   75MOL    H1726805   6.214   2.041   1.425 -1.6309 -0.0877  0.4557
   75MOL    H1826806   6.191   1.883   1.343 -0.1361 -0.8934  0.1550
   75MOL    H1926807   5.428   2.167   1.505 -2.2693 -3.3344  1.3215
   75MOL    C2026808   5.488   1.870   1.453 -0.6832 -0.4026 -0.2219
   75MOL    C2126809   5.546   1.763   1.357  0.2023 -0.4565  0.5196
   75MOL    C2226810   5.502   1.621   1.404  0.7746  0.4916 -0.2353
   75MOL    O2326811   5.584   1.537   1.449 -0.0144  0.0477  0.3294
   75MOL    O2426812   5.371   1.602   1.396  0.6142 -0.1780  0.1718
   75MOL    C2526813   5.298   1.495   1.452 -0.5919 -0.2052  0.0701
   75MOL    C2626814   5.273   1.510   1.597  0.2988 -0.6251  0.3453
   75MOL    C2726815   5.382   1.435   1.678  0.3664  0.8054  0.3581
   75MOL    H2826816   5.385   1.901   1.432 -0.1767 -0.5480 -3.0992
   75MOL    H2926817   5.492   1.838   1.557  2.7201 -0.4367 -0.3210
   75MOL    H3026818   5.652   1.752   1.378 -0.0785 -1.3574  1.5512
   75MOL    H3126819   5.203   1.515   1.402  0.5354  0.6060 -1.7751
   75MOL    H3226820   5.337   1.400   1.416 -1.7638 -0.5759 -0.2392
   75MOL    H3326821   5.255   1.610   1.634  0.0190 -0.6709  0.3330
   75MOL    H3426822   5.169   1.481   1.610  0.3240 -1.9599 -2.0965
   75MOL    H3526823   5.400   1.339   1.630 -0.4869  2.8959 -4.4674
   75MOL    H3626824   5.342   1.424   1.779 -0.8531 -0.7350 -0.2648
   75MOL    H3726825   5.471   1.498   1.681  1.4763 -0.7250  0.0776
   75MOL    C3826826   5.516   1.786   1.209 -0.6231  0.2767 -0.1323
   75MOL    C3926827   5.639   1.844   1.128  0.4773 -0.2702 -0.2046
   75MOL    C4026828   5.757   1.747   1.115 -0.3719  0.1464  0.3135
   75MOL    O4126829   5.854   1.744   1.190 -0.0188 -0.1421 -0.4366
   75MOL    O4226830   5.739   1.666   1.005 -0.0481 -0.4571  0.2707
   75MOL    C4326831   5.819   1.556   0.977  0.1241 -0.3735 -1.0072
   75MOL    C4426832   5.756   1.442   1.050  0.4727 -0.0265 -0.3979
   75MOL    C4526833   5.636   1.388   0.979 -0.0762  0.4023 -0.4039
   75MOL    H4626834   5.424   1.844   1.204  0.1606  1.8390  2.5704
   75MOL    H4726835   5.484   1.692   1.165 -0.9401  0.9470 -1.3568
   75MOL    H4826836   5.679   1.924   1.191  1.1768 -0.7284 -0.0599
   75MOL    H4926837   5.826   1.529   0.871 -1.5350 -0.0350 -1.2107
   75MOL    H5026838   5.916   1.578   1.021 -0.6046 -0.7704  0.8147
   75MOL    H5126839   5.833   1.366   1.063  2.3248  2.0287  1.0120
   75MOL    H5226840   5.724   1.476   1.148  0.0299 -0.8119 -0.2646
   75MOL    H5326841   5.624   1.280   0.986 -1.0608  0.5998  1.1236
   75MOL    H5426842   5.626   1.415   0.874 -1.5695  0.9635 -0.1250
   75MOL    H5526843   5.549   1.424   1.033  0.2430 -1.2407  1.2497
   75MOL    C5626844   5.595   1.903   0.996  0.0463  0.0276  0.3731
   75MOL    C5726845   5.519   2.035   1.005 -0.0150  0.2678  0.0835
   75MOL    C5826846   5.622   2.143   1.016 -0.1073 -0.8745  0.1015
   75MOL    O5926847   5.619   2.217   1.110  0.1037  0.1456  0.1054
   75MOL    O6026848   5.699   2.157   0.900  0.5545  0.0804  0.6363
   75MOL    C6126849   5.808   2.247   0.903  0.4525 -0.4648 -0.1296
   75MOL    C6226850   5.923   2.168   0.848 -0.0261 -0.1843 -0.3422
   75MOL    C6326851   5.989   2.075   0.946 -0.7040 -0.0758 -0.1024
   75MOL    H6426852   5.534   1.827   0.948  2.3774 -1.0474 -0.9980
   75MOL    H6526853   5.675   1.908   0.921 -0.4716  0.6608 -0.1380
   75MOL    H6626854   5.471   2.048   1.102 -1.7073  0.1673 -0.7284
   75MOL    H6726855   5.782   2.323   0.830 -0.8408 -1.1406 -0.3779
   75MOL    H6826856   5.827   2.283   1.004 -1.1272 -3.1397  1.1594
   75MOL    H6926857   5.881   2.113   0.764 -2.3572  0.4355  0.3732
   75MOL    H7026858   6.000   2.236   0.812  1.4948 -1.1413  1.0316
   75MOL    H7126859   6.072   2.124   0.996  1.1027 -2.7230 -0.4014
   75MOL    H7226860   6.033   1.998   0.883 -0.3901  1.5851 -1.9739
   75MOL    H7326861   5.928   2.026   1.022 -3.0669  2.0197 -0.5863
   75MOL    C7426862   5.415   2.043   0.895  0.0414  0.4151 -0.3980
   75MOL    C7526863   5.465   2.060   0.748 -0.7643  0.2811  0.8648
   75MOL    C7626864   5.394   1.968   0.654 -0.6247  0.2077  0.4028
   75MOL    O7726865   5.451   1.864   0.606 -0.0793 -0.4882  0.3706
   75MOL    O7826866   5.262   2.007   0.628 -0.4373  0.2631  0.6907
   75MOL    C7926867   5.194   1.936   0.526  0.4747 -0.2495  0.3771
   75MOL    C8026868   5.102   2.038   0.453  0.2104  0.2262 -0.3076
   75MOL    C8126869   5.018   1.971   0.344 -0.1839  0.8987 -0.0161
   75MOL    H8226870   5.353   2.129   0.922 -1.1377 -1.3643  2.8022
   75MOL    H8326871   5.350   1.957   0.904  0.1031  0.2815 -1.2500
   75MOL    H8426872   5.564   2.016   0.746 -1.4670 -1.4603  2.5430
   75MOL    H8526873   5.262   1.895   0.452  0.0517  0.1490 -0.2401
   75MOL    H8626874   5.136   1.855   0.571  1.5216 -1.5943 -0.6811
   75MOL    H8726875   5.033   2.079   0.526  0.0376  0.6078 -0.6821
   75MOL    H8826876   5.167   2.115   0.410  0.4551 -0.3282 -0.9378
   75MOL    H8926877   4.932   2.031   0.316  0.3265  1.5762 -0.1508
   75MOL    H9026878   4.958   1.892   0.388  0.2737  1.2435  1.2407
   75MOL    H9126879   5.071   1.940   0.254 -1.6640 -0.6557 -0.3737
   75MOL    C9226880   5.457   2.210   0.687 -0.5390  0.8290 -0.1147
   75MOL    C9326881   5.576   2.254   0.606 -0.5191 -0.0776  0.2848
   75MOL    C9426882   5.613   2.158   0.493  0.0112 -0.3553  0.0435
   75MOL    O9526883   5.707   2.081   0.501 -0.2194  0.0555  0.3322
   75MOL    O9626884   5.523   2.172   0.390 -0.2146  0.2480 -0.1851
   75MOL    C9726885   5.519   2.071   0.293  0.2546 -0.4744  0.3049
   75MOL    C9826886   5.473   2.129   0.153  0.2746  0.1941 -0.4490
   75MOL    C9926887   5.317   2.138   0.131 -0.1929 -0.4049  0.3115
   75MOL   H10026888   5.474   2.268   0.777  0.2279  1.6571 -0.7799
   75MOL   H10126889   5.362   2.235   0.641 -0.7526 -3.2664 -2.1307
   75MOL   H10226890   5.667   2.253   0.666 -1.3066  0.7811  1.5121
   75MOL   H10326891   5.616   2.023   0.280  2.7834  4.0655  1.4582
   75MOL   H10426892   5.457   1.984   0.317  0.2736 -0.3030  0.9858
   75MOL   H10526893   5.514   2.230   0.151  1.5943 -0.3498 -3.8256
   75MOL   H10626894   5.536   2.086   0.076  0.2535 -2.0836  0.7799
   75MOL   H10726895   5.270   2.192   0.213  3.5219  1.5317  1.2971
   75MOL   H10826896   5.269   2.040   0.128  0.1178 -0.5833  1.1026
   75MOL   H10926897   5.294   2.190   0.038  0.0868 -0.3783  0.2558
   75MOL   C11026898   5.552   2.399   0.557 -0.2955 -0.4801 -0.4829
   75MOL   C11126899   5.664   2.500   0.605 -0.1767 -0.2423 -0.2692
   75MOL   C11226900   5.792   2.474   0.527  0.3833 -0.1422 -0.7558
   75MOL   O11326901   5.802   2.488   0.404  0.4374 -0.1246 -0.0021
   75MOL   O11426902   5.888   2.430   0.618  0.1388  0.0785  0.2258
   75MOL   C11526903   6.026   2.432   0.585 -0.1005 -0.2888  0.2841
   75MOL   C11626904   6.086   2.520   0.683  0.4301 -0.0282 -0.4102
   75MOL   C11726905   6.224   2.557   0.639  0.6136  0.6815  0.4741
   75MOL   H11826906   5.457   2.439   0.594  1.6881  3.0004  1.0509
   75MOL   H11926907   5.547   2.408   0.449 -1.6744 -0.3135 -0.4168
   75MOL   H12026908   5.690   2.480   0.709  0.3952 -0.8738 -0.5324
   75MOL   H12126909   6.060   2.329   0.575 -1.5764 -0.8810  1.2223
   75MOL   H12226910   6.042   2.474   0.486  0.7238  1.9068  1.3336
   75MOL   H12326911   6.018   2.605   0.681 -0.4518 -0.6833  1.3019
   75MOL   H12426912   6.090   2.475   0.782 -0.2295  0.1809 -0.2878
   75MOL   H12526913   6.226   2.612   0.545 -0.3548  1.8425  1.1219
   75MOL   H12626914   6.286   2.469   0.623 -2.2739 -1.4224  0.3652
   75MOL   H12726915   6.279   2.617   0.711  0.2848  0.4294  0.9345
   75MOL   C12826916   5.623   2.649   0.594  0.3316 -0.2298 -0.9364
   75MOL   C12926917   5.526   2.707   0.697 -0.5753 -0.4126 -0.0527
   75MOL   C13026918   5.556   2.677   0.842  0.0128 -0.5396 -0.3770
   75MOL   O13126919   5.506   2.580   0.896 -0.2371  0.3411 -0.3393
   75MOL   O13226920   5.647   2.757   0.890 -0.0304  0.7530  0.1468
   75MOL   C13326921   5.694   2.746   1.025 -0.2654  1.0864  0.6566
   75MOL   C13426922   5.800   2.853   1.044 -0.7575 -0.2688 -0.1870
   75MOL   C13526923   5.831   2.870   1.197 -0.0790  0.4956 -0.6407
   75MOL   H13626924   5.570   2.665   0.500  0.4410 -1.2881 -1.1859
   75MOL   H13726925   5.704   2.722   0.596 -0.2104  0.4208 -2.1713
   75MOL   H13826926   5.432   2.660   0.671 -0.3104 -0.5653 -0.7598
   75MOL   H13926927   5.616   2.747   1.101 -2.3196 -0.1784 -1.4026
   75MOL   H14026928   5.740   2.647   1.028  1.4010  1.8343  0.4990
   75MOL   H14126929   5.884   2.844   0.975 -0.7567 -1.8287  0.0096
   75MOL   H14226930   5.746   2.945   1.021  0.1038  0.3588  0.2545
   75MOL   H14326931   5.888   2.785   1.235  1.3346  0.8396 -1.9509
   75MOL   H14426932   5.751   2.888   1.269  2.2915 -1.4298  2.6118
   75MOL   H14526933   5.902   2.952   1.209  1.2302 -0.7087  0.0394
   75MOL   C14626934   5.505   2.866   0.683 -0.4245  0.3645 -0.7328
   75MOL   C14726935   5.430   2.910   0.554 -0.4418  0.3162 -0.4801
   75MOL   C14826936   5.280   2.886   0.558 -0.2372  0.9417  0.0866
   75MOL   O14926937   5.239   2.773   0.572 -0.3845  0.3147 -0.0651
   75MOL   O15026938   5.205   2.992   0.540  0.0331  0.0977  0.1324
   75MOL   C15126939   5.062   2.987   0.532 -0.4047  0.7378  0.0574
   75MOL   C15226940   5.002   3.121   0.555 -0.4574 -0.2993  0.3302
   75MOL   C15326941   5.015   3.167   0.701  0.2816  0.2607 -0.6368
   75MOL   H15426942   5.598   2.922   0.686 -0.0062 -0.3912  0.8742
   75MOL   H15526943   5.440   2.905   0.761 -0.0514 -0.4096 -0.0257
   75MOL   H15626944   5.464   2.844   0.475  1.7859 -0.9259  1.4434
   75MOL   H15726945   5.048   2.959   0.427  1.3385  2.3192 -0.6323
   75MOL   H15826946   5.025   2.914   0.603 -0.4828 -0.2540 -0.9860
   75MOL   H15926947   5.031   3.202   0.489  0.3470 -0.7934  0.0624
   75MOL   H16026948   4.894   3.120   0.542 -0.6189 -0.6822  1.6156
   75MOL   H16126949   4.930   3.233   0.719  0.3697  0.4882 -1.0356
   75MOL   H16226950   5.110   3.217   0.721  0.2535  0.1205 -0.1567
   75MOL   H16326951   5.002   3.082   0.767  0.1541  1.0108  0.3190
   75MOL   C16426952   5.473   3.057   0.513  0.5129  0.3047  0.1961
   75MOL   C16526953   5.617   3.056   0.461 -0.7702 -0.3057  0.2620
   75MOL   C16626954   5.621   3.012   0.322  0.3044 -0.4637  1.3426
   75MOL   O16726955   5.516   2.990   0.263 -0.4313  0.0465 -0.3474
   75MOL   O16826956   5.743   2.988   0.272  0.0201 -0.2808 -0.2739
   75MOL   C16926957   5.766   2.927   0.151  0.8190 -0.5220  0.2396
   75MOL   C17026958   5.837   2.792   0.168  0.9658 -0.3224 -0.3090
   75MOL   C17126959   5.844   2.711   0.041 -0.0239  0.0700  0.0573
   75MOL   H17226960   5.449   3.130   0.590 -1.1139  0.6721 -0.6303
   75MOL   H17326961   5.404   3.096   0.438  0.1458 -1.9950 -0.6945
   75MOL   H17426962   5.684   2.988   0.512 -0.7044 -0.1582  0.3715
   75MOL   H17526963   5.670   2.912   0.101  1.0145  1.4472 -0.7542
   75MOL   H17626964   5.820   2.990   0.081 -0.3027  0.8094  0.5724
   75MOL   H17726965   5.935   2.816   0.211  1.4576  1.4986 -2.3111
   75MOL   H17826966   5.783   2.737   0.245 -0.4437 -0.0960 -1.1194
   75MOL   H17926967   5.745   2.678   0.010 -0.2777  2.2001 -1.5185
   75MOL   H18026968   5.906   2.627   0.073 -0.2134  0.7076  2.1655
   75MOL   H18126969   5.894   2.763   7.840 -2.2568  0.9020 -0.8268
   75MOL   C18226970   5.679   3.192   0.477 -0.0425  0.3295 -0.6292
   75MOL   C18326971   5.718   3.221   0.627 -0.1721 -0.4343 -0.2579
   75MOL   C18426972   5.820   3.117   0.683 -0.6835  0.1030  0.6633
   75MOL   O18526973   5.797   3.055   0.788  0.2503 -0.2557  0.3682
   75MOL   O18626974   5.937   3.110   0.608  0.0011  0.1764  0.5433
   75MOL   C18726975   6.053   3.023   0.631  0.7813 -0.1615 -0.1243
   75MOL   C18826976   6.002   2.881   0.634  0.5069 -0.5974 -0.8824
   75MOL   C18926977   5.967   2.832   0.492 -0.5546  0.2939 -0.8581
   75MOL   H19026978   5.621   3.276   0.442 -0.0005 -0.3234 -2.2901
   75MOL   H19126979   5.775   3.197   0.426  0.5650 -0.3020  0.4235
   75MOL   H19226980   5.627   3.212   0.686 -0.7750  1.1933 -0.8957
   75MOL   H19326981   6.120   3.035   0.546  0.0653  2.0382 -0.4172
   75MOL   H19426982   6.106   3.061   0.718  1.5271 -1.6349  0.0757
   75MOL   H19526983   6.082   2.812   0.662 -1.7809 -3.5610 -1.3406
   75MOL   H19626984   5.920   2.846   0.696 -0.2246  1.2779 -0.7855
   75MOL   H19726985   5.876   2.885   0.464 -0.8218  0.9218  1.0904
   75MOL   H19826986   5.951   2.724   0.482 -0.7612 -0.0378  2.5698
   75MOL   H19926987   6.041   2.844   0.413  0.7191 -1.4988  0.0232
   75MOL   C20026988   5.778   3.367   0.646  0.2321  0.0275  0.1823
   75MOL   C20126989   5.784   3.417   0.788  0.7345  0.3307  0.6374
   75MOL   C20226990   5.878   3.531   0.794  0.2359 -0.0380 -0.3677
   75MOL   O20326991   5.964   3.537   0.881  0.1118 -0.4101 -0.2438
   75MOL   O20426992   5.857   3.627   0.707 -0.4530 -0.2897  0.6536
   75MOL   C20526993   5.945   3.744   0.700 -0.7453 -0.1261  0.2995
   75MOL   C20626994   5.891   3.875   0.765  0.2663  0.1920 -0.5252
   75MOL   C20726995   5.959   4.000   0.708 -0.3989 -0.7356 -0.1079
   75MOL   H20826996   5.719   3.440   0.589 -0.5083 -0.2781  0.5419
   75MOL   H20926997   5.882   3.363   0.614  0.1170  1.2957 -0.3721
   75MOL   H21026998   5.823   3.341   0.855 -1.9755 -1.8588 -0.1678
   75MOL   H21126999   6.043   3.713   0.738 -0.8590 -2.1742 -0.9706
   75MOL   H21227000   5.975   3.768   0.598  3.0210  0.0413  1.3488
   75MOL   H21327001   5.784   3.884   0.747  0.7177  2.7179 -2.3211
   75MOL   H21427002   5.897   3.867   0.873  1.7066 -0.3779 -0.6351
   75MOL   H21527003   6.063   4.001   0.740 -0.6600  1.2202  0.7130
   75MOL   H21627004   5.920   4.096   0.740 -0.7020 -0.3333 -1.6248
   75MOL   H21727005   5.958   4.000   0.599 -0.4867 -0.3041 -0.1063
   75MOL   C21827006   5.642   3.467   0.824 -0.1542  0.0120 -0.0512
   75MOL   C21927007   5.619   3.475   0.975  0.1019  0.4413  0.4449
   75MOL   C22027008   5.500   3.564   1.010  0.8105  0.1356  0.2231
   75MOL   O22127009   5.402   3.573   0.940  0.5437 -0.0675  0.2771
   75MOL   O22227010   5.528   3.636   1.118 -0.5899 -0.4948  0.5194
   75MOL   C22327011   5.445   3.745   1.137  0.6028 -0.5519 -0.0752
   75MOL   C22427012   5.488   3.799   1.278  0.9444 -0.6931  0.4417
   75MOL   C22527013   5.381   3.894   1.341 -0.0672  0.7994 -0.1249
   75MOL   H22627014   5.572   3.385   0.808 -1.5577  0.9798  1.0487
   75MOL   H22727015   5.611   3.557   0.771  0.0410 -0.3936 -0.8618
   75MOL   H22827016   5.710   3.525   1.007  1.9437 -2.4318 -0.1817
   75MOL   H22927017   5.461   3.829   1.068 -1.8851 -0.8337 -1.0365
   75MOL   H23027018   5.339   3.723   1.124  0.4597  0.3021 -0.4546
   75MOL   H23127019   5.516   3.721   1.349 -0.5060 -1.3329  0.3249
   75MOL   H23227020   5.585   3.850   1.268 -0.6817  2.6180  0.7966
   75MOL   H23327021   5.382   3.986   1.283 -2.2955  1.7668  1.3094
   75MOL   H23427022   5.419   3.927   1.437 -0.4701  3.2501 -0.7779
   75MOL   H23527023   5.285   3.842   1.344  1.0884 -1.7201 -3.0049
   75MOL   C23627024   5.600   3.342   1.050 -0.6230 -0.1150  0.3007
   75MOL   C23727025   5.616   3.353   1.210  0.1872  0.0978 -1.1535
   75MOL   C23827026   5.517   3.259   1.271  0.2760  0.0668 -0.5563
   75MOL   O23927027   5.417   3.298   1.337 -0.5706  0.5426 -0.0770
   75MOL   O24027028   5.548   3.128   1.235  0.5939 -0.1966  0.0156
   75MOL   C24127029   5.451   3.023   1.257  0.2454  0.1318 -0.5176
   75MOL   C24227030   5.344   3.025   1.153 -0.6574 -0.3884  0.1261
   75MOL   C24327031   5.402   2.982   1.018 -0.5686 -0.3314 -0.3833
   75MOL   H24427032   5.665   3.263   1.012 -0.3527 -0.2744  1.0818
   75MOL   H24527033   5.496   3.314   1.029 -0.6216  1.5388 -2.1493
   75MOL   H24627034   5.591   3.452   1.248  0.2245  0.3691 -1.8275
   75MOL   H24727035   5.505   2.929   1.253 -0.2259 -0.2092  0.7645
   75MOL   H24827036   5.418   3.024   1.361 -1.7805 -0.8666 -1.1252
   75MOL   H24927037   5.259   2.958   1.167 -1.3291  0.3350 -0.4587
   75MOL   H25027038   5.293   3.121   1.147 -1.2875 -0.9007 -3.3590
   75MOL   H25127039   5.480   2.906   1.026 -0.9907 -0.7265  0.0555
   75MOL   H25227040   5.447   3.067   0.967  4.7778 -1.1323  2.5682
   75MOL   H25327041   5.318   2.953   0.956 -0.5060  0.2219 -0.7274
   75MOL   C25427042   5.756   3.305   1.265  0.1324  0.2124  1.2455
   75MOL   C25527043   5.785   3.336   1.416  0.0805 -0.4335 -0.2696
   75MOL   C25627044   5.916   3.273   1.450  0.2080 -0.0567  0.2542
   75MOL   O25727045   5.924   3.156   1.478 -0.3247  0.2028 -0.4810
   75MOL   O25827046   6.029   3.352   1.445  0.1897  0.1523 -0.1134
   75MOL   C25927047   6.154   3.295   1.488  0.6555 -0.0774  0.0381
   75MOL   C26027048   6.172   3.313   1.633  0.0221  0.2987  0.1100
   75MOL   C26127049   6.200   3.458   1.686  0.7081  0.0645 -0.1902
   75MOL   H26227050   5.827   3.362   1.205 -0.4015  2.2849  2.5119
   75MOL   H26327051   5.781   3.200   1.250  1.5643  0.8953 -1.4955
   75MOL   H26427052   5.711   3.294   1.484 -1.0053  2.8605  0.6974
   75MOL   H26527053   6.147   3.191   1.457 -1.8785  0.6942 -2.2140
   75MOL   H26627054   6.230   3.344   1.428  0.2768  1.4318  0.7654
   75MOL   H26727055   6.088   3.264   1.683  0.0384  1.6972  1.5735
   75MOL   H26827056   6.256   3.248   1.653  1.2871  2.7389  3.1818
   75MOL   H26927057   6.115   3.523   1.664  1.4060  1.5532  1.2990
   75MOL   H27027058   6.283   3.515   1.644  1.4417 -2.0807 -1.6879
   75MOL   H27127059   6.226   3.452   1.792 -3.1144 -0.4097  0.7970
   75MOL   C27227060   5.783   3.491   1.442 -0.1862  0.7124 -0.3945
   75MOL   C27327061   5.805   3.531   1.588 -0.6748 -1.1064  0.8853
   75MOL   C27427062   5.847   3.680   1.602 -0.2706  0.3321 -0.1605
   75MOL   O27527063   5.964   3.708   1.619  0.4307  0.0828 -0.3508
   75MOL   O27627064   5.743   3.762   1.601  0.2968  0.1290  0.0266
   75MOL   C27727065   5.768   3.891   1.645 -0.3576  0.4841 -0.2418
   75MOL   C27827066   5.650   3.985   1.626  0.3275 -0.9806  0.1142
   75MOL   C27927067   5.543   3.964   1.728  0.2585  0.1271 -0.3013
   75MOL   H28027068   5.682   3.524   1.417 -0.9764 -0.1797  1.4932
   75MOL   H28127069   5.848   3.545   1.373 -2.0361  0.9134 -2.0328
   75MOL   H28227070   5.901   3.482   1.600 -0.7092 -1.0753  1.2876
   75MOL   H28327071   5.813   3.899   1.744  0.1672  1.4943 -0.5532
   75MOL   H28427072   5.846   3.934   1.582  1.1874  0.4775  1.6486
   75MOL   H28527073   5.694   4.084   1.627 -0.6831 -0.5215 -0.2711
   75MOL   H28627074   5.604   3.967   1.529  0.6584 -1.2379  0.0049
   75MOL   H28727075   5.462   4.035   1.710  1.1347  1.9414  2.4554
   75MOL   H28827076   5.579   3.967   1.831 -0.1585  0.2020 -0.1546
   75MOL   H28927077   5.490   3.870   1.715 -0.4148 -0.0390  3.0332
   75MOL   C29027078   5.700   3.495   1.691 -0.4774 -0.3437 -0.0744
   75MOL   C29127079   5.755   3.485   1.838  0.4312  0.0571  0.7972
   75MOL   C29227080   5.676   3.564   1.938  0.9849 -0.1174  0.0974
   75MOL   O29327081   5.733   3.666   1.985 -0.2687 -0.9837  0.6190
   75MOL   O29427082   5.561   3.518   1.971 -0.3619  0.0784  0.9131
   75MOL   C29527083   5.490   3.582   2.084 -0.2598 -0.4449  0.3682
   75MOL   C29627084   5.404   3.696   2.032 -0.0712  0.1658  0.2310
   75MOL   C29727085   5.329   3.773   2.141  0.0925 -0.2436  0.6491
   75MOL   H29827086   5.653   3.404   1.653 -2.7518  0.5361  0.5780
   75MOL   H29927087   5.612   3.558   1.679  1.6077  2.5646 -0.4921
   75MOL   H30027088   5.859   3.517   1.846  0.5044  1.1464 -3.5385
   75MOL   H30127089   5.413   3.517   2.126 -0.6100  1.4360  2.6978
   75MOL   H30227090   5.556   3.616   2.164  0.5714 -0.3116 -0.3638
   75MOL   H30327091   5.472   3.770   1.989 -1.2674  1.2786  0.2451
   75MOL   H30427092   5.335   3.650   1.961  0.1998 -0.4629  0.3684
   75MOL   H30527093   5.399   3.807   2.218  1.0431 -2.9420  1.0134
   75MOL   H30627094   5.248   3.709   2.175 -0.9250  0.0462 -1.2236
   75MOL   H30727095   5.279   3.860   2.099  0.0429 -1.5509 -2.0791
   75MOL   C30827096   5.750   3.334   1.880 -0.0042 -1.0674  0.2091
   75MOL   C30927097   5.803   3.283   2.013 -0.6002  0.2338 -0.6918
   75MOL   C31027098   5.950   3.314   2.041  0.2698  1.0697  0.0557
   75MOL   O31127099   5.989   3.424   2.083 -0.3006  0.2480  0.1513
   75MOL   O31227100   6.038   3.219   2.002 -0.3928  0.1362 -0.3346
   75MOL   C31327101   6.171   3.243   2.021 -0.5605  0.3954 -0.5572
   75MOL   C31427102   6.211   3.191   2.154  0.9718  0.1127  0.4686
   75MOL   C31527103   6.232   3.036   2.161  0.2903  0.2277 -0.0554
   75MOL   H31627104   5.806   3.272   1.809  0.8079  0.5304 -0.5817
   75MOL   H31727105   5.650   3.294   1.870 -0.4877  0.6992 -2.3435
   75MOL   H31827106   5.815   3.176   2.001  1.1969  0.4443 -0.9641
   75MOL   H31927107   6.231   3.189   1.947  1.4530  0.1571  1.1981
   75MOL   H32027108   6.188   3.349   2.002 -3.8104  0.8657 -1.1644
   75MOL   H32127109   6.302   3.245   2.182 -0.1143  2.1539  0.1612
   75MOL   H32227110   6.143   3.215   2.235  1.4885 -0.1678  0.9928
   75MOL   H32327111   6.294   3.014   2.248  0.4421  4.3284  0.9600
   75MOL   H32427112   6.139   2.981   2.176  0.8770 -0.4741  1.1500
   75MOL   H32527113   6.281   2.995   2.073  0.8693 -0.5983  0.6447
   75MOL   C32627114   5.704   3.304   2.130 -0.1580 -0.7048 -0.3015
   75MOL   C32727115   5.747   3.227   2.257 -0.3144  0.0469 -0.8197
   75MOL   C32827116   5.693   3.278   2.396  0.1886  0.7626  0.0486
   75MOL   O32927117   5.772   3.329   2.470 -0.2882 -0.3930 -0.0703
   75MOL   O33027118   5.557   3.275   2.414  0.6873  0.2188 -0.5040
   75MOL   C33127119   5.496   3.334   2.530  1.0300 -0.7198  0.5330
   75MOL   C33227120   5.342   3.315   2.523  0.3072  0.5292  0.0557
   75MOL   C33327121   5.270   3.394   2.413 -0.5281  0.1260  0.4696
   75MOL   H33427122   5.614   3.264   2.084 -0.4726 -2.5700  1.8354
   75MOL   H33527123   5.694   3.412   2.142 -2.0476 -0.9966  0.9856
   75MOL   H33627124   5.855   3.236   2.274 -0.0404 -1.6526 -1.5525
   75MOL   H33727125   5.536   3.277   2.614 -1.5607 -2.0689  0.8936
   75MOL   H33827126   5.531   3.436   2.545 -0.2307  0.1770 -2.2852
   75MOL   H33927127   5.322   3.209   2.506 -0.6101  0.7693 -0.3958
   75MOL   H34027128   5.294   3.332   2.619 -0.2805 -1.3061  0.1036
   75MOL   H34127129   5.319   3.490   2.398  0.1900 -0.5092 -1.3999
   75MOL   H34227130   5.290   3.335   2.323  1.3845 -0.6248  1.3419
   75MOL   H34327131   5.165   3.412   2.435 -1.0528 -1.1906 -0.8198
   75MOL   C34427132   5.723   3.074   2.251 -0.0879  0.6589  0.3639
   75MOL   C34527133   5.814   2.987   2.350 -0.1468 -0.6230  0.2227
   75MOL   C34627134   5.746   2.939   2.476  0.0461  1.0239  0.0616
   75MOL   O34727135   5.815   2.932   2.582 -0.1595 -0.3006  0.3854
   75MOL   O34827136   5.620   2.891   2.459  0.1034 -0.0141 -0.4286
   75MOL   C34927137   5.564   2.812   2.565 -0.0527 -0.7693  0.4945
   75MOL   C35027138   5.475   2.896   2.658 -0.3138  0.7857 -0.6298
   75MOL   C35127139   5.545   3.008   2.739 -0.1710  0.0273  0.9492
   75MOL   H35227140   5.743   3.041   2.149 -0.8253  1.0964  0.0721
   75MOL   H35327141   5.616   3.054   2.259 -0.4223  1.9081 -0.8480
   75MOL   H35427142   5.911   3.029   2.378 -0.0511 -1.1664  0.7240
   75MOL   H35527143   5.498   2.738   2.521 -0.5970  1.8339 -3.3087
   75MOL   H35627144   5.638   2.750   2.616  0.7721 -0.6582 -0.5493
   75MOL   H35727145   5.393   2.931   2.596 -1.6053  0.7360  1.0216
   75MOL   H35827146   5.418   2.834   2.728 -2.7882  2.2731 -1.2916
   75MOL   H35927147   5.474   3.066   2.798 -2.0010 -1.4259  0.1836
   75MOL   H36027148   5.630   2.970   2.797  1.3787 -1.2542 -2.0343
   75MOL   H36127149   5.584   3.079   2.666 -0.8710  0.0807  0.6242
   75MOL   H36227150   5.841   2.894   2.300  1.1566  0.0757 -0.3819
   76MOL     C127151   7.817   4.213   7.475 -0.8187 -0.1820  0.7330
   76MOL     C227152   7.864   4.248   7.615  0.5139 -0.6051 -0.2275
   76MOL     C327153   0.118   4.312   7.598  0.0061  0.1748 -0.0956
   76MOL     O427154   0.132   4.413   7.535 -0.6523 -0.0018  0.1625
   76MOL     O527155   0.214   4.247   7.652  0.2653 -0.1144 -0.4068
   76MOL     C627156   0.340   4.310   7.656  0.7247 -0.1814 -0.2006
   76MOL     C727157   0.429   4.199   7.716 -0.7383  0.3131 -0.6671
   76MOL     C827158   0.579   4.232   7.689  0.3696  0.4329 -0.1244
   76MOL     H927159   7.715   4.175   7.485 -0.3791 -1.3603  0.8648
   76MOL    H1027160   7.820   4.293   7.401  0.8253 -2.4037 -1.7381
   76MOL    H1127161   7.860   4.163   7.683 -2.7778 -0.5586 -0.2830
   76MOL    H1227162   0.373   4.325   7.554 -2.1135  1.4040 -0.9097
   76MOL    H1327163   0.338   4.408   7.705 -0.0117 -0.3864  0.1909
   76MOL    H1427164   0.391   4.162   7.812 -0.0732 -1.7926 -1.1736
   76MOL    H1527165   0.407   4.116   7.649  0.1562  0.4691 -1.1507
   76MOL    H1627166   0.625   4.298   7.762 -2.6626  2.1383  0.3290
   76MOL    H1727167   0.651   4.151   7.698  0.6882  0.8682  1.4159
   76MOL    H1827168   0.582   4.268   7.586 -1.3087 -2.1133 -1.1207
   76MOL    H1927169   7.872   4.133   7.426 -2.0608 -1.6214  1.6473
   76MOL    C2027170   7.760   4.340   7.685 -0.0834  1.1664  0.3890
   76MOL    C2127171   7.772   4.349   7.831  0.0787  0.3518 -0.1859
   76MOL    C2227172   7.754   4.213   0.016  0.6289 -0.3101 -0.2252
   76MOL    O2327173   7.644   4.171   0.057  0.1781 -0.2344 -0.3658
   76MOL    O2427174   7.873   4.163   0.045  0.4518  0.0991  0.5238
   76MOL    C2527175   7.879   4.033   0.108 -0.5951  0.6834 -0.6210
   76MOL    C2627176   0.131   4.014   0.190  0.0729  0.7336 -0.3587
   76MOL    C2727177   0.139   3.880   0.272  0.3840 -0.4291  0.4918
   76MOL    H2827178   7.663   4.292   7.674 -0.2198  1.7139 -0.8872
   76MOL    H2927179   7.748   4.433   7.631 -0.8104 -0.5216 -2.4343
   76MOL    H3027180   7.686   4.406   7.866  0.2676 -0.2249  1.2653
   76MOL    H3127181   7.797   4.024   0.179 -0.6215 -2.5536 -0.9961
   76MOL    H3227182   7.855   3.953   0.038 -2.7823 -1.0871  2.0839
   76MOL    H3327183   0.225   4.017   0.135 -0.5519 -0.6664 -1.5488
   76MOL    H3427184   0.149   4.099   0.256  1.1136  0.0232  0.2818
   76MOL    H3527185   0.071   3.881   0.357  0.6933 -3.1686  0.8061
   76MOL    H3627186   0.236   3.868   0.320  0.7333  3.2279  0.8695
   76MOL    H3727187   0.123   3.792   0.210 -0.7360 -0.5691  0.9647
   76MOL    C3827188   0.017   4.435   0.002 -0.6439  0.5039 -0.8146
   76MOL    C3927189   0.017   4.588   7.835 -0.5775  0.4087 -0.4464
   76MOL    C4027190   7.778   4.661   0.004  0.5036  0.1599 -0.9057
   76MOL    O4127191   7.775   4.700   0.120 -0.0220  0.4206 -0.3376
   76MOL    O4227192   7.682   4.672   7.791 -0.2017  0.0616  0.0837
   76MOL    C4327193   7.572   4.757   7.814  0.4527  0.1956 -0.7047
   76MOL    C4427194   7.465   4.762   7.697  0.1763  0.2802  0.4721
   76MOL    C4527195   7.403   4.627   7.665 -0.1568  0.5789  0.3377
   76MOL    H4627196   0.114   4.388   7.872  0.3717  2.4353 -0.2014
   76MOL    H4727197   0.000   4.436   0.110 -1.6732 -0.9766 -0.9522
   76MOL    H4827198   0.010   4.595   7.726  0.6642  2.4355 -0.4197
   76MOL    H4927199   7.525   4.722   0.026  2.1482 -2.2890 -0.7158
   76MOL    H5027200   7.599   4.854   7.855 -2.6431  0.2521  1.4490
   76MOL    H5127201   7.387   4.833   7.722 -0.6105  0.2201 -1.6596
   76MOL    H5227202   7.516   4.804   7.610 -1.4033  3.4783  1.0227
   76MOL    H5327203   7.359   4.589   7.757 -0.5606  0.7833  0.2304
   76MOL    H5427204   7.480   4.557   7.635 -1.1315 -0.4307  0.1452
   76MOL    H5527205   7.330   4.644   7.586 -0.1451 -1.8168 -0.2259
   76MOL    C5627206   0.150   4.656   7.865  0.2803 -0.2313 -0.6229
   76MOL    C5727207   0.172   4.793   7.795 -0.1051 -0.0665 -0.1727
   76MOL    C5827208   0.324   4.844   7.805  0.6410 -0.1987 -0.8759
   76MOL    O5927209   0.351   4.962   7.840 -0.0517  0.6312  0.2372
   76MOL    O6027210   0.414   4.757   7.765  0.0529 -0.0001  0.0582
   76MOL    C6127211   0.549   4.795   7.768  0.0978  0.2277  0.0431
   76MOL    C6227212   0.635   4.664   7.762 -0.2554  0.1954  0.8915
   76MOL    C6327213   0.635   4.584   0.008 -0.7538 -0.3122  0.0816
   76MOL    H6427214   0.230   4.593   7.827  0.7682  0.0690 -0.0906
   76MOL    H6527215   0.173   4.652   0.091  1.5318 -2.9967 -0.9596
   76MOL    H6627216   0.103   4.856   7.849  0.9146  1.7928 -0.9959
   76MOL    H6727217   0.568   4.860   7.683  0.0208  0.5014  0.2337
   76MOL    H6827218   0.568   4.859   7.855 -0.2507 -2.2430  1.9912
   76MOL    H6927219   0.591   4.599   7.686  3.7070  0.2072 -1.5461
   76MOL    H7027220   0.734   4.692   7.726 -0.0471  0.3150  1.5475
   76MOL    H7127221   0.536   4.579   0.053 -0.5073 -1.2058  0.5496
   76MOL    H7227222   0.707   4.633   0.074  0.4504  1.0739 -2.1774
   76MOL    H7327223   0.682   4.488   7.867 -0.6068  0.3213 -2.6193
   76MOL    C7427224   0.134   4.789   7.635 -0.3023  0.4228  0.0348
   76MOL    C7527225   0.123   4.926   7.549  0.6304 -0.0524  0.2351
   76MOL    C7627226   0.253   5.002   7.522  0.5802 -0.4426 -0.2647
   76MOL    O7727227   0.279   5.111   7.577  0.3002 -0.9187 -0.2184
   76MOL    O7827228   0.337   4.934   7.435 -0.4953  0.4530 -0.1106
   76MOL    C7927229   0.460   4.987   7.397  0.1542 -0.0874  0.2450
   76MOL    C8027230   0.540   4.872   7.334 -0.8626 -0.5018 -0.2635
   76MOL    C8127231   0.580   4.748   7.420 -0.3749 -0.4535  0.2646
   76MOL    H8227232   0.033   4.750   7.621  0.5312 -1.7608 -0.1113
   76MOL    H8327233   0.189   4.711   7.581  1.4551  1.2186  0.6262
   76MOL    H8427234   0.060   4.993   7.608  0.9431  2.4355 -2.1519
   76MOL    H8527235   0.446   5.055   7.313  1.0561 -0.9539 -0.6191
   76MOL    H8627236   0.495   5.025   7.493 -3.3299  0.7824  1.2607
   76MOL    H8727237   0.493   4.837   7.242 -2.3388  2.6834 -0.7947
   76MOL    H8827238   0.635   4.921   7.313  0.7542 -2.9132  1.1555
   76MOL    H8927239   0.640   4.674   7.368 -0.0896  0.8364 -1.2952
   76MOL    H9027240   0.485   4.703   7.450  0.9495 -2.5574  1.4117
   76MOL    H9127241   0.618   4.781   7.517 -2.2002  2.0234  0.2020
   76MOL    C9227242   0.050   4.900   7.411 -0.5990  0.3094 -0.1550
   76MOL    C9327243   7.783   4.890   7.406 -0.1133 -0.3092  0.2373
   76MOL    C9427244   7.711   5.003   7.488 -0.3308 -0.3510  0.2446
   76MOL    O9527245   7.679   5.104   7.428 -0.3245  0.3726 -0.2838
   76MOL    O9627246   7.709   4.983   7.614 -0.5169  0.3537  0.2588
   76MOL    C9727247   7.673   5.076   7.716 -0.5318 -0.8378 -0.2785
   76MOL    C9827248   7.532   5.120   7.702 -0.7119  0.9808 -0.3394
   76MOL    C9927249   7.488   5.191   7.823  0.1406 -0.1526 -0.0917
   76MOL   H10027250   0.095   4.808   7.374 -0.9087 -0.6232  1.7465
   76MOL   H10127251   0.082   4.982   7.346  0.4211  0.8324  0.9890
   76MOL   H10227252   7.765   4.798   7.462  0.4919 -1.1803 -0.9706
   76MOL   H10327253   7.682   5.027   7.812  0.1819  0.3009  0.2528
   76MOL   H10427254   7.746   5.157   7.713 -0.4897 -0.9277 -3.0630
   76MOL   H10527255   7.523   5.190   7.619  0.7310  0.0887 -1.2666
   76MOL   H10627256   7.467   5.035   7.684  0.0783  0.1667  0.5934
   76MOL   H10727257   7.543   5.285   7.831 -2.8058  1.4874  1.8470
   76MOL   H10827258   7.510   5.130   0.030 -4.2751 -0.8558  0.6626
   76MOL   H10927259   7.381   5.211   7.822  0.3980  1.3037 -1.1534
   76MOL   C11027260   7.730   4.875   7.261  0.4340  0.3283 -1.1115
   76MOL   C11127261   7.746   4.731   7.210 -0.0964 -0.1310 -0.0486
   76MOL   C11227262   7.640   4.641   7.275 -0.2570 -0.4669  0.1615
   76MOL   O11327263   7.666   4.588   7.381 -0.2274  0.0322 -0.1004
   76MOL   O11427264   7.529   4.635   7.210  0.4943  0.6443  0.1163
   76MOL   C11527265   7.421   4.547   7.240 -0.0098 -0.2448  0.8263
   76MOL   C11627266   7.326   4.518   7.118  0.2360  0.2539  0.1191
   76MOL   C11727267   7.263   4.644   7.064  0.4780 -0.2548  0.1580
   76MOL   H11827268   7.776   4.943   7.189  1.4714 -1.5044 -2.2365
   76MOL   H11927269   7.625   4.901   7.265  0.3473 -0.3106  1.4286
   76MOL   H12027270   7.844   4.702   7.249  1.2379  0.4111 -2.8412
   76MOL   H12127271   7.465   4.461   7.289  0.8693 -1.2859 -1.7420
   76MOL   H12227272   7.368   4.595   7.323  1.3088  1.3893  0.7537
   76MOL   H12327273   7.390   4.484   7.036  0.3785  0.1107  0.2901
   76MOL   H12427274   7.260   4.447   7.167  1.2506  0.1411  1.3407
   76MOL   H12527275   7.343   4.706   7.023 -1.4924  3.4182  1.6229
   76MOL   H12627276   7.219   4.688   7.154 -0.0798  1.0011 -0.7103
   76MOL   H12727277   7.190   4.624   6.986  1.5044  0.0285 -0.8932
   76MOL   C12827278   7.756   4.717   7.063 -0.4285 -0.7493  0.3157
   76MOL   C12927279   0.001   4.768   6.991 -1.3947  0.5250  0.2044
   76MOL   C13027280   0.121   4.719   7.059 -0.4742  0.1202  0.0318
   76MOL   O13127281   0.194   4.795   7.123 -0.7329 -0.2537 -0.3607
   76MOL   O13227282   0.128   4.583   7.062  0.4966  0.3051 -0.5931
   76MOL   C13327283   0.242   4.520   7.107  0.1824  0.6101  0.2120
   76MOL   C13427284   0.285   4.548   7.249 -0.7266  0.6073  0.5071
   76MOL   C13527285   0.392   4.435   7.291  0.4803 -0.2389  0.0132
   76MOL   H13627286   7.671   4.767   7.016  1.2396  3.1486  1.1934
   76MOL   H13727287   7.759   4.609   7.056  1.8177 -0.8963  2.8233
   76MOL   H13827288   0.017   4.874   7.012 -1.7012  0.1537  2.4238
   76MOL   H13927289   0.217   4.414   7.101  0.0182  0.6890 -0.6006
   76MOL   H14027290   0.324   4.528   7.036 -0.3784 -0.4419 -0.5786
   76MOL   H14127291   0.323   4.647   7.275  1.6530 -0.8298  2.6756
   76MOL   H14227292   0.198   4.532   7.312 -1.7249  1.7936 -0.5131
   76MOL   H14327293   0.489   4.456   7.246 -0.4421 -0.7983 -2.3438
   76MOL   H14427294   0.349   4.338   7.265  0.4855  0.1194 -1.3557
   76MOL   H14527295   0.407   4.432   7.399  1.7200  1.6679 -0.0845
   76MOL   C14627296   0.001   4.740   6.842  0.7206 -0.2386  0.5451
   76MOL   C14727297   0.128   4.768   6.756 -0.0597  0.3370 -0.4124
   76MOL   C14827298   0.126   4.687   6.622  0.5492 -0.6891 -0.7079
   76MOL   O14927299   0.086   4.739   6.519 -0.4861 -0.0670 -0.6251
   76MOL   O15027300   0.149   4.558   6.640 -0.0394  0.4408 -0.0245
   76MOL   C15127301   0.191   4.482   6.533 -0.3793 -0.3671 -0.9807
   76MOL   C15227302   0.104   4.363   6.509 -0.3838  0.0343 -0.2113
   76MOL   C15327303   0.181   4.254   6.437  0.1962 -0.3153 -0.3535
   76MOL   H15427304   7.801   4.800   6.800  0.9659 -0.1160  0.2543
   76MOL   H15527305   7.865   4.633   6.829 -0.2276  0.1179 -1.4262
   76MOL   H15627306   0.211   4.714   6.804 -0.8396  0.5046  1.1458
   76MOL   H15727307   0.199   4.540   6.441  1.3013 -1.6975 -1.6889
   76MOL   H15827308   0.295   4.453   6.545 -0.4641 -0.8815 -1.4943
   76MOL   H15927309   0.079   4.321   6.607  0.7098 -1.9812 -0.7670
   76MOL   H16027310   0.010   4.381   6.456 -0.4563 -0.4126 -0.2353
   76MOL   H16127311   0.217   4.285   6.339 -0.8811 -2.0689 -1.3254
   76MOL   H16227312   0.118   4.165   6.435 -0.8185  0.3218  1.7182
   76MOL   H16327313   0.273   4.223   6.486  0.4377  0.8716 -0.0447
   76MOL   C16427314   0.152   4.916   6.731  0.5527 -0.1676  0.8941
   76MOL   C16527315   0.306   4.940   6.730  0.1704  0.0708 -0.2999
   76MOL   C16627316   0.354   5.017   6.608  0.5594  0.8203  0.6809
   76MOL   O16727317   0.392   5.132   6.609 -0.0090  0.3533  0.3041
   76MOL   O16827318   0.330   4.949   6.489  0.3864  0.6884 -0.6983
   76MOL   C16927319   0.343   5.010   6.369 -0.3982 -0.0521  0.4412
   76MOL   C17027320   0.282   4.907   6.267 -0.6091  0.3231  0.1692
   76MOL   C17127321   0.289   4.953   6.122  0.0117  0.2999 -0.4812
   76MOL   H17227322   0.102   4.975   6.807  2.6277  1.1862  1.2675
   76MOL   H17327323   0.101   4.950   6.641 -0.3280 -1.2068  0.9961
   76MOL   H17427324   0.353   4.843   6.718 -0.0242 -0.0861  0.2049
   76MOL   H17527325   0.284   5.101   6.366  0.2737  0.3474 -1.3754
   76MOL   H17627326   0.449   5.028   6.351 -0.2824 -0.9468  0.1678
   76MOL   H17727327   0.330   4.810   6.282 -4.7391 -2.0774 -1.4673
   76MOL   H17827328   0.176   4.896   6.289 -0.3141 -0.5711  1.2183
   76MOL   H17927329   0.260   4.878   6.048 -1.1257 -1.8024  2.0350
   76MOL   H18027330   0.395   4.957   6.097 -0.0487  0.5531 -0.6963
   76MOL   H18127331   0.234   5.047   6.115 -0.3851  0.0581 -0.6620
   76MOL   C18227332   0.353   4.999   6.863  0.2190  0.1341  0.1020
   76MOL   C18327333   0.508   5.012   6.889  0.7218  0.3316 -0.5149
   76MOL   C18427334   0.543   5.119   6.992  0.0970  0.2314 -0.0557
   76MOL   O18527335   0.572   5.097   7.108  0.3092  0.5462 -0.4250
   76MOL   O18627336   0.541   5.234   6.929  0.0769  0.8416 -0.4134
   76MOL   C18727337   0.558   5.351   7.010  0.0714 -0.8472  0.0140
   76MOL   C18827338   0.421   5.414   7.046  0.7599  0.5986  0.0691
   76MOL   C18927339   0.426   5.540   7.130 -0.4018 -0.1521 -0.5800
   76MOL   H19027340   0.308   4.923   6.927 -0.6047  1.5199  1.1911
   76MOL   H19127341   0.300   5.092   6.883  0.4566  0.5553 -1.1681
   76MOL   H19227342   0.556   5.039   6.795  0.8907  1.0315 -0.2348
   76MOL   H19327343   0.620   5.336   7.098 -1.5100 -0.7874  1.1632
   76MOL   H19427344   0.618   5.423   6.954 -0.7800  0.6710  0.9890
   76MOL   H19527345   0.359   5.431   6.958  1.0156  0.9451 -0.0428
   76MOL   H19627346   0.375   5.342   7.114 -0.0330  0.0219 -1.0702
   76MOL   H19727347   0.330   5.590   7.148 -0.9149 -2.1715  2.8364
   76MOL   H19827348   0.473   5.615   7.067 -3.0035  0.8609 -1.4246
   76MOL   H19927349   0.473   5.522   7.227  0.9991 -1.8462 -1.5402
   76MOL   C20027350   0.563   4.869   6.919  0.0081  0.1050  0.2347
   76MOL   C20127351   0.714   4.849   6.960  0.0851 -0.1300 -0.3119
   76MOL   C20227352   0.739   4.701   6.981 -0.0457  0.1556 -0.2465
   76MOL   O20327353   0.765   4.657   7.092  0.1864  0.2586 -0.2630
   76MOL   O20427354   0.730   4.636   6.863 -0.4383 -0.5160 -0.0814
   76MOL   C20527355   0.738   4.495   6.856  0.4424 -0.0401  0.1652
   76MOL   C20627356   0.605   4.425   6.895  0.9615 -0.0531 -0.4891
   76MOL   C20727357   0.487   4.470   6.793 -0.3769 -0.5482  0.3526
   76MOL   H20827358   0.531   4.814   6.831 -0.8215  0.5568  0.2538
   76MOL   H20927359   0.495   4.832   6.995  0.6524 -0.4550  0.5402
   76MOL   H21027360   0.734   4.900   7.054  0.2208 -0.2734 -0.2629
   76MOL   H21127361   0.777   4.471   6.756 -0.0079  1.1190 -0.2966
   76MOL   H21227362   0.817   4.451   6.916  1.4591 -0.8363 -1.6990
   76MOL   H21327363   0.616   4.317   6.883  1.3476 -0.0165 -0.4791
   76MOL   H21427364   0.575   4.455   6.996  2.2128  0.4883 -0.2618
   76MOL   H21527365   0.508   4.442   6.691  0.1253 -0.6573  0.4875
   76MOL   H21627366   0.474   4.579   6.793  1.0070 -0.3790 -0.2235
   76MOL   H21727367   0.389   4.431   6.821 -1.1475 -0.2723 -1.8541
   76MOL   C21827368   0.818   4.905   6.863 -0.3183  0.2743 -0.3191
   76MOL   C21927369   0.968   4.876   6.896  0.0309  0.2055  0.7411
   76MOL   C22027370   1.063   4.930   6.779  0.3060  0.3624 -0.2783
   76MOL   O22127371   1.027   4.997   6.687 -0.1222  0.2866 -0.2790
   76MOL   O22227372   1.190   4.907   6.806 -0.2976  0.6074 -0.4352
   76MOL   C22327373   1.294   4.958   6.724 -0.4503  0.0783 -0.5521
   76MOL   C22427374   1.429   4.945   6.798  0.5373 -0.8601  0.2713
   76MOL   C22527375   1.532   5.042   6.735 -0.5300  1.1710  0.1023
   76MOL   H22627376   0.808   5.013   6.854 -2.8469 -0.0485 -1.6796
   76MOL   H22727377   0.794   4.852   6.771 -1.3059 -0.2527  0.2448
   76MOL   H22827378   0.984   4.768   6.897 -2.3898 -0.1898  0.0840
   76MOL   H22927379   1.297   4.894   6.636 -0.9925 -0.6241 -0.0600
   76MOL   H23027380   1.277   5.063   6.700  1.4641  0.6503  0.4425
   76MOL   H23127381   1.412   4.977   6.901  1.5603 -1.4424  0.6239
   76MOL   H23227382   1.459   4.840   6.800  1.9570 -0.5786 -2.7405
   76MOL   H23327383   1.546   5.033   6.628  2.7962  0.3592  0.5370
   76MOL   H23427384   1.625   5.027   6.790 -0.5647 -3.0903 -0.8203
   76MOL   H23527385   1.503   5.146   6.754  0.2327  1.4877 -0.4497
   76MOL   C23627386   1.006   4.943   7.035 -0.8845 -0.5901 -0.5474
   76MOL   C23727387   1.047   4.843   7.147 -0.8089 -0.5218  0.2189
   76MOL   C23827388   1.171   4.769   7.101  0.0759 -0.0354 -0.2474
   76MOL   O23927389   1.273   4.793   7.166  0.1862  0.5582  0.3667
   76MOL   O24027390   1.147   4.659   7.015 -0.3845 -0.0720  0.0334
   76MOL   C24127391   1.254   4.571   6.985  0.7497 -0.3344  0.2706
   76MOL   C24227392   1.214   4.464   6.874  0.3570 -0.2283 -0.0997
   76MOL   C24327393   1.190   4.534   6.742  0.4271  0.3036  0.0405
   76MOL   H24427394   0.914   4.988   7.073  0.1211  0.2563  0.9128
   76MOL   H24527395   1.078   5.024   7.019  0.6529 -1.8295  0.0392
   76MOL   H24627396   0.965   4.770   7.147  0.2587 -1.7350  1.2366
   76MOL   H24727397   1.334   4.626   6.936 -0.6771  0.1988 -1.4964
   76MOL   H24827398   1.280   4.519   7.077  0.7050  0.6458  0.8403
   76MOL   H24927399   1.289   4.386   6.858 -0.4591 -1.0830  0.1910
   76MOL   H25027400   1.132   4.402   6.910  0.5903 -1.6329 -1.8906
   76MOL   H25127401   1.279   4.596   6.737  0.7211  0.0399  2.0028
   76MOL   H25227402   1.098   4.592   6.754 -0.0823 -0.4239 -0.2861
   76MOL   H25327403   1.188   4.468   6.655  0.1124  0.4742 -0.0866
   76MOL   C25427404   1.038   4.887   7.296  0.0920  0.2542  0.1683
   76MOL   C25527405   1.112   5.014   7.329  0.4779 -0.4560  0.8418
   76MOL   C25627406   1.036   5.147   7.311  0.7996 -0.2841 -0.1973
   76MOL   O25727407   1.064   5.232   7.229 -0.4776 -0.4384 -0.2586
   76MOL   O25827408   0.935   5.161   7.391 -0.3186  0.1897  0.2609
   76MOL   C25927409   0.812   5.234   7.361 -0.7880  0.6865  0.1387
   76MOL   C26027410   0.703   5.244   7.466 -0.5531 -0.2077  0.5948
   76MOL   C26127411   0.604   5.365   7.462  0.5574 -0.6805 -0.4158
   76MOL   H26227412   1.071   4.803   7.356  0.5286  0.6846  0.5262
   76MOL   H26327413   0.930   4.898   7.310 -0.5554 -0.6607 -3.5409
   76MOL   H26427414   1.200   5.031   7.267 -0.1097  2.4127  0.7417
   76MOL   H26527415   0.837   5.333   7.321  1.2221  0.7932  1.6042
   76MOL   H26627416   0.770   5.182   7.275 -1.0151 -1.4628  1.5116
   76MOL   H26727417   0.647   5.151   7.463  1.4443 -1.4730  1.1702
   76MOL   H26827418   0.750   5.236   7.564 -0.6774 -4.8450  0.3938
   76MOL   H26927419   0.535   5.352   7.545  1.8336  1.1861  0.9757
   76MOL   H27027420   0.542   5.368   7.373  0.0539 -2.1659 -0.1377
   76MOL   H27127421   0.641   5.466   7.481  0.9802 -0.5333 -1.9971
   76MOL   C27227422   1.182   5.023   7.465 -0.0412 -0.0614 -0.0117
   76MOL   C27327423   1.295   5.130   7.474 -0.3379  0.2358  0.3395
   76MOL   C27427424   1.337   5.169   7.617 -0.0647  0.3228 -0.4093
   76MOL   O27527425   1.341   5.285   7.642  0.1484 -0.9286 -0.6082
   76MOL   O27627426   1.368   5.065   7.706 -0.0210 -1.1007  0.0123
   76MOL   C27727427   1.428   5.089   7.834 -0.7471  0.1927 -0.3521
   76MOL   C27827428   1.582   5.070   7.834 -0.3930  0.4673  0.5500
   76MOL   C27927429   1.617   4.925   7.797  0.4637 -0.3578  0.3818
   76MOL   H28027430   1.214   4.926   7.503 -1.2885  0.0614  1.4095
   76MOL   H28127431   1.105   5.044   7.540 -0.9593 -0.8063 -0.7230
   76MOL   H28227432   1.257   5.229   7.445 -0.9188  0.2575  1.1603
   76MOL   H28327433   1.394   5.178   0.006 -1.1908  0.7279 -1.5325
   76MOL   H28427434   1.388   5.011   0.019  2.9397 -1.7362 -0.2632
   76MOL   H28527435   1.617   5.132   7.752  1.4515 -1.4497 -0.1545
   76MOL   H28627436   1.624   5.095   0.052 -1.0694  1.7651  0.5106
   76MOL   H28727437   1.663   4.922   7.698 -0.2881 -0.5932  0.0316
   76MOL   H28827438   1.538   4.853   7.778  0.5655 -1.1145  2.6780
   76MOL   H28927439   1.683   4.877   7.869 -0.4926 -1.0241  0.8177
   76MOL   C29027440   1.420   5.107   7.384 -0.0501 -0.6775 -0.2442
   76MOL   C29127441   1.477   5.234   7.306 -0.0162 -0.5610 -0.3369
   76MOL   C29227442   1.629   5.247   7.326  0.4151 -0.3777 -0.2292
   76MOL   O29327443   1.708   5.191   7.246 -0.0520  0.0634 -0.0650
   76MOL   O29427444   1.667   5.328   7.429 -0.0733  0.4160 -1.2490
   76MOL   C29527445   1.804   5.356   7.437 -0.0394  0.3442 -0.4260
   76MOL   C29627446   1.874   5.284   7.553  0.4938  0.7390  0.3369
   76MOL   C29727447   1.853   5.131   7.543 -0.2418  0.1752 -0.3341
   76MOL   H29827448   1.397   5.035   7.305 -0.4488  0.8596 -1.5601
   76MOL   H29927449   1.499   5.059   7.443 -0.7993 -1.5147  0.0939
   76MOL   H30027450   1.441   5.322   7.360  1.0053 -0.3153 -0.0482
   76MOL   H30127451   1.864   5.344   7.347 -0.1374  1.2968 -0.6191
   76MOL   H30227452   1.801   5.465   7.443 -0.1255  0.3691 -0.8874
   76MOL   H30327453   1.978   5.312   7.534  0.6592  0.2801  0.5608
   76MOL   H30427454   1.855   5.318   7.655  3.0184  1.1623  0.6987
   76MOL   H30527455   1.930   5.070   7.590  0.7571  0.3972 -1.6263
   76MOL   H30627456   1.855   5.109   7.436  2.2732  0.2930 -0.3414
   76MOL   H30727457   1.756   5.095   7.577  0.2439 -0.9678 -0.1366
   76MOL   C30827458   1.442   5.222   7.150 -0.1145 -0.0738  0.2562
   76MOL   C30927459   1.363   5.338   7.100 -0.4024 -0.1024 -0.5516
   76MOL   C31027460   1.427   5.476   7.131  0.5901  0.5452  0.4347
   76MOL   O31127461   1.521   5.519   7.060 -0.1402 -0.4694 -0.0295
   76MOL   O31227462   1.377   5.539   7.239 -0.1903  0.3268  0.1307
   76MOL   C31327463   1.421   5.671   7.275  0.3468  0.2114  0.1188
   76MOL   C31427464   1.313   5.776   7.225 -0.3093 -0.3594 -0.2741
   76MOL   C31527465   1.181   5.776   7.307 -0.2681  0.6193 -0.5397
   76MOL   H31627466   1.385   5.131   7.128 -0.6658  0.4252 -0.3738
   76MOL   H31727467   1.525   5.219   7.079 -2.8703  2.2663 -3.2204
   76MOL   H31827468   1.269   5.328   7.154 -1.2895  0.0541 -2.0531
   76MOL   H31927469   1.415   5.678   7.383  0.2871 -0.2195  0.1449
   76MOL   H32027470   1.525   5.692   7.248  1.4894 -0.5111  3.7441
   76MOL   H32127471   1.356   5.877   7.225 -0.0485 -0.4262  3.4044
   76MOL   H32227472   1.270   5.744   7.130 -2.5051 -0.7448  0.8257
   76MOL   H32327473   1.148   5.673   7.303  1.6047 -0.1794  2.5452
   76MOL   H32427474   1.204   5.795   7.412 -0.1064 -1.1566 -0.2443
   76MOL   H32527475   1.121   5.862   7.275  0.0870  1.5793  1.2787
   76MOL   C32627476   1.327   5.303   6.944 -0.6744 -0.2366  0.2840
   76MOL   C32727477   1.248   5.416   6.871  0.3636  0.1089  1.1189
   76MOL   C32827478   1.248   5.414   6.714  0.5058  0.0753  0.2931
   76MOL   O32927479   1.272   5.518   6.655  0.0258  1.2334  0.1134
   76MOL   O33027480   1.231   5.291   6.665  0.9779 -0.7748 -0.1999
   76MOL   C33127481   1.236   5.268   6.525  0.2528 -0.5549 -0.0903
   76MOL   C33227482   1.102   5.281   6.462 -0.0529  0.2076 -0.0134
   76MOL   C33327483   1.107   5.248   6.312 -0.1033 -0.5810  0.1108
   76MOL   H33427484   1.270   5.212   6.929 -1.5348  0.3736 -0.1755
   76MOL   H33527485   1.418   5.280   6.888 -0.2975  1.9625 -0.0606
   76MOL   H33627486   1.294   5.511   6.898  0.1434  0.1680  1.2883
   76MOL   H33727487   1.305   5.334   6.472  1.7873 -0.9052  1.3970
   76MOL   H33827488   1.286   5.172   6.519  1.4472 -0.0417  1.2366
   76MOL   H33927489   1.020   5.236   6.517  0.8822  0.3495  1.5163
   76MOL   H34027490   1.080   5.388   6.458  0.7436  0.3181 -2.9260
   76MOL   H34127491   1.191   5.197   6.264 -0.6640 -0.8987 -0.5430
   76MOL   H34227492   1.014   5.195   6.292  0.9435 -2.5362  0.3023
   76MOL   H34327493   1.099   5.345   6.264 -3.1785 -0.9111 -0.1557
   76MOL   C34427494   1.096   5.403   6.919 -0.4504 -0.1334  0.0734
   76MOL   C34527495   1.029   5.536   6.917  0.2689  0.1267  0.5051
   76MOL   C34627496   0.902   5.542   7.006 -0.2666 -0.8065 -0.1592
   76MOL   O34727497   0.849   5.444   7.050  0.2851  0.0086  0.0421
   76MOL   O34827498   0.862   5.673   7.024 -0.1990  0.8989 -0.0124
   76MOL   C34927499   0.755   5.694   7.109 -0.2730 -0.5220  0.7047
   76MOL   C35027500   0.793   5.718   7.256  0.0032  0.5160  0.2902
   76MOL   C35127501   0.672   5.770   7.329  0.1027 -0.0961  0.0947
   76MOL   H35227502   1.097   5.379   7.026  0.7454 -4.6792 -0.8618
   76MOL   H35327503   1.043   5.335   6.853 -0.3991  1.6296 -1.8169
   76MOL   H35427504   0.998   5.574   6.820  0.0420 -0.0261  0.5184
   76MOL   H35527505   0.698   5.772   7.058  0.2377 -0.1342  0.7262
   76MOL   H35627506   0.686   5.610   7.105 -1.6038  0.3898  3.2013
   76MOL   H35727507   0.810   5.624   7.308  0.2372  0.8605  0.8457
   76MOL   H35827508   0.882   5.781   7.256  0.3769  0.0001 -0.5619
   76MOL   H35927509   0.597   5.692   7.342  2.2953 -1.9606  2.0012
   76MOL   H36027510   0.697   5.793   7.433  1.2051  1.3218 -0.4635
   76MOL   H36127511   0.622   5.856   7.284 -2.3512 -1.1600  0.7038
   76MOL   H36227512   1.088   5.623   6.948 -2.3428  2.0440  0.2974
   77MOL     C127513   0.640   5.760   6.440  0.3516 -0.1377 -0.3863
   77MOL     C227514   0.699   5.732   6.581  0.0969  0.5459  0.0065
   77MOL     C327515   0.640   5.610   6.650 -0.2212 -0.3848 -1.0072
   77MOL     O427516   0.579   5.617   6.760  0.2792  0.0987  0.4854
   77MOL     O527517   0.663   5.496   6.577 -0.2907  0.2736 -0.2372
   77MOL     C627518   0.630   5.365   6.620 -0.1890 -0.7498 -0.1133
   77MOL     C727519   0.741   5.264   6.614  0.4447 -0.0817 -0.1295
   77MOL     C827520   0.846   5.280   6.722  0.6169  0.1405  0.9998
   77MOL     H927521   0.651   5.668   6.382  0.2377 -0.3936 -0.0041
   77MOL    H1027522   0.532   5.775   6.441  0.5035  0.9929  2.3926
   77MOL    H1127523   0.671   5.816   6.644 -1.4357 -1.3365  1.8911
   77MOL    H1227524   0.583   5.374   6.718 -0.8091 -0.8159 -0.4019
   77MOL    H1327525   0.552   5.329   6.552 -0.5371 -0.3615  0.0823
   77MOL    H1427526   0.672   5.181   6.630  0.0880  0.7458  2.7806
   77MOL    H1527527   0.789   5.253   6.517 -0.2587  0.6653 -0.5725
   77MOL    H1627528   0.799   5.278   6.820 -1.5267 -0.8757 -0.0190
   77MOL    H1727529   0.928   5.209   6.727  0.8048  0.1463 -1.6160
   77MOL    H1827530   0.890   5.377   6.700  1.5394 -0.7673 -1.2496
   77MOL    H1927531   0.664   5.854   6.391  1.2474 -0.1341  0.0577
   77MOL    C2027532   0.858   5.722   6.578  0.0763 -0.3214 -0.1007
   77MOL    C2127533   0.932   5.853   6.543  0.1958  0.2641  0.7648
   77MOL    C2227534   0.902   5.973   6.645 -0.0928  0.6727  0.5848
   77MOL    O2327535   0.916   6.087   6.604 -0.6249  0.0081 -0.2217
   77MOL    O2427536   0.856   5.944   6.770 -0.1495 -0.2299  0.8230
   77MOL    C2527537   0.808   6.061   6.850  0.4782 -0.0151  0.6581
   77MOL    C2627538   0.667   6.114   6.814  0.1734  0.0860 -0.7213
   77MOL    C2727539   0.612   6.210   6.913  0.0085 -0.4443  0.7381
   77MOL    H2827540   0.875   5.645   6.502 -0.8921  0.2365 -0.9063
   77MOL    H2927541   0.902   5.674   6.665 -0.1075 -0.0286  0.1527
   77MOL    H3027542   0.891   5.870   6.443  0.3848 -2.0761  0.2524
   77MOL    H3127543   0.797   6.029   6.954 -0.7550 -0.1146  0.4973
   77MOL    H3227544   0.877   6.145   6.841  0.7904 -0.5464 -2.4582
   77MOL    H3327545   0.668   6.152   6.712 -3.2693  0.4861 -0.6621
   77MOL    H3427546   0.600   6.028   6.819 -0.9207  1.0511  3.5156
   77MOL    H3527547   0.677   6.296   6.929 -1.6718  0.6436  1.8845
   77MOL    H3627548   0.580   6.168   7.008 -0.2555  0.0909  0.8880
   77MOL    H3727549   0.519   6.244   6.867 -0.4538 -0.6078  1.5506
   77MOL    C3827550   1.078   5.821   6.518 -0.4265  0.3630 -0.0154
   77MOL    C3927551   1.132   5.744   6.391  0.0915 -0.8359  0.4639
   77MOL    C4027552   1.053   5.811   6.274  0.0605  0.8661 -0.1191
   77MOL    O4127553   0.972   5.752   6.200  0.5934 -0.2965 -0.1502
   77MOL    O4227554   1.082   5.941   6.265 -0.5790 -0.2087  0.0055
   77MOL    C4327555   1.061   6.021   6.147 -0.3661  0.4410 -0.1072
   77MOL    C4427556   0.916   6.081   6.143  0.4864 -0.8415 -0.4165
   77MOL    C4527557   0.883   6.179   6.252 -0.1836 -0.4778  0.5248
   77MOL    H4627558   1.117   5.758   6.598 -1.9475  0.8280  1.1218
   77MOL    H4727559   1.122   5.920   6.521  1.8829 -0.6525  0.0969
   77MOL    H4827560   1.097   5.641   6.395 -1.0146 -0.6482 -3.1758
   77MOL    H4927561   1.140   6.095   6.141  1.5088 -1.4487  0.8949
   77MOL    H5027562   1.055   5.950   6.064 -0.4603 -0.5643  0.7484
   77MOL    H5127563   0.906   6.134   6.049 -1.6719 -1.2505 -0.4395
   77MOL    H5227564   0.845   5.999   6.135 -0.7831  0.0807  0.9905
   77MOL    H5327565   0.780   6.211   6.239 -0.3030 -0.4680  1.4116
   77MOL    H5427566   0.942   6.270   6.254  1.1424 -1.3349  2.3254
   77MOL    H5527567   0.893   6.126   6.347  0.6806  1.1171  1.3453
   77MOL    C5627568   1.285   5.738   6.387 -0.6102 -0.4097  0.2549
   77MOL    C5727569   1.349   5.632   6.300  0.1782  0.1104 -0.0337
   77MOL    C5827570   1.303   5.629   6.151  0.5448  0.2227  0.1238
   77MOL    O5927571   1.268   5.521   6.101 -0.1911 -0.6782 -0.6136
   77MOL    O6027572   1.315   5.743   6.088  0.2222 -0.0712 -0.2384
   77MOL    C6127573   1.293   5.749   5.950  0.3441  0.0864  0.1399
   77MOL    C6227574   1.422   5.719   5.875 -0.3399  0.0579  0.2733
   77MOL    C6327575   1.399   5.625   5.753 -0.1247  0.6063  0.3832
   77MOL    H6427576   1.326   5.742   6.488 -1.1940 -0.7044  0.5067
   77MOL    H6527577   1.322   5.831   6.344 -0.8012  0.2079  1.4115
   77MOL    H6627578   1.314   5.538   6.343 -0.1602  0.3874  0.3014
   77MOL    H6727579   1.221   5.680   5.906 -0.2034  0.9472 -0.3466
   77MOL    H6827580   1.254   5.849   5.929 -1.4406 -0.6503 -0.1345
   77MOL    H6927581   1.476   5.809   5.846 -0.7425 -0.6537 -2.8528
   77MOL    H7027582   1.487   5.662   5.941  0.3219 -1.9903 -2.0982
   77MOL    H7127583   1.333   5.667   5.677  0.0926  0.2636  0.0112
   77MOL    H7227584   1.359   5.530   5.788 -1.7380  1.1282  0.0326
   77MOL    H7327585   1.495   5.610   5.705 -0.5677  1.5922 -0.8406
   77MOL    C7427586   1.504   5.649   6.306  0.0456  0.5153  0.4202
   77MOL    C7527587   1.580   5.513   6.283  0.2560 -0.0726  0.4666
   77MOL    C7627588   1.715   5.538   6.223  0.7206  0.1481  0.0664
   77MOL    O7727589   1.819   5.551   6.288  0.3128  0.2887 -0.0538
   77MOL    O7827590   1.713   5.559   6.083 -0.3753 -0.2737 -0.0573
   77MOL    C7927591   1.839   5.563   6.018 -0.2946 -0.1212  0.3449
   77MOL    C8027592   1.819   5.576   5.868  0.3103  0.1427  0.1196
   77MOL    C8127593   1.798   5.723   5.817 -0.3954 -0.3192 -0.3502
   77MOL    H8227594   1.540   5.675   6.405  1.1515 -2.1685  0.7574
   77MOL    H8327595   1.549   5.727   6.244 -1.3873  0.8116 -0.2670
   77MOL    H8427596   1.528   5.463   6.201 -2.3559 -0.4875  2.2918
   77MOL    H8527597   1.895   5.649   6.057  0.3831 -1.7474  3.1227
   77MOL    H8627598   1.887   5.467   6.033 -0.9982 -0.4714  0.3948
   77MOL    H8727599   1.910   5.533   5.827  0.3095 -0.0437  0.3107
   77MOL    H8827600   1.741   5.506   5.839  0.6035 -0.8715  1.7347
   77MOL    H8927601   1.888   5.779   5.842  0.2174 -1.4586  0.0282
   77MOL    H9027602   1.718   5.782   5.861 -0.2247  0.9572 -1.7007
   77MOL    H9127603   1.775   5.733   5.711 -1.5181  0.8778 -0.0071
   77MOL    C9227604   1.588   5.424   6.408  0.1135 -0.2731  0.0412
   77MOL    C9327605   1.647   5.282   6.403 -1.0889 -0.0563  0.3729
   77MOL    C9427606   1.569   5.203   6.297  0.3928 -0.6381 -0.7532
   77MOL    O9527607   1.474   5.140   6.334 -0.1622  0.0691 -0.2230
   77MOL    O9627608   1.619   5.221   6.175  0.5273  0.1782 -0.1151
   77MOL    C9727609   1.544   5.174   6.067  0.6928  0.4994  0.7111
   77MOL    C9827610   1.550   5.277   5.961  0.0439  0.3893  0.1449
   77MOL    C9927611   1.454   5.252   5.844  0.2967  0.0380 -0.0233
   77MOL   H10027612   1.490   5.406   6.452  0.5160  2.1639  2.0515
   77MOL   H10127613   1.641   5.491   6.477 -0.4208  0.4784 -0.2734
   77MOL   H10227614   1.624   5.240   6.501 -1.4552  1.6778  1.0493
   77MOL   H10327615   1.579   5.076   6.036 -2.3605 -0.6378  0.7311
   77MOL   H10427616   1.438   5.156   6.087  0.1617  0.8141 -1.7436
   77MOL   H10527617   1.516   5.368   6.009  1.8236  1.1935 -0.0898
   77MOL   H10627618   1.649   5.309   5.927 -0.9465  1.4532 -1.8070
   77MOL   H10727619   1.354   5.286   5.869  0.7876  0.7368  1.0379
   77MOL   H10827620   1.448   5.152   5.801  3.7699  0.2621 -1.1491
   77MOL   H10927621   1.486   5.304   5.754 -0.2136 -0.8246 -0.7122
   77MOL   C11027622   1.805   5.254   6.396 -0.2465  0.2933 -0.1866
   77MOL   C11127623   1.893   5.319   6.505  0.5203 -0.2632 -0.2575
   77MOL   C11227624   1.861   5.284   6.644 -0.1410  0.0560 -0.3229
   77MOL   O11327625   1.881   5.167   6.687  0.2891  0.1887 -0.3956
   77MOL   O11427626   1.796   5.380   6.703 -0.2843 -0.1638  0.9391
   77MOL   C11527627   1.737   5.352   6.832 -0.8994 -0.3842 -0.8269
   77MOL   C11627628   1.817   5.388   6.958  0.5053  0.6125  0.4323
   77MOL   C11727629   1.860   5.531   6.968  0.3598 -0.7080  0.1025
   77MOL   H11827630   1.834   5.284   6.295  3.1183  0.4866  0.7852
   77MOL   H11927631   1.810   5.145   6.396 -0.6837  0.2534  1.7858
   77MOL   H12027632   1.868   5.425   6.500  2.9768  0.3896  0.2536
   77MOL   H12127633   1.644   5.408   6.846  0.4248  1.6268  0.3305
   77MOL   H12227634   1.699   5.250   6.841 -0.5902 -0.4927 -0.7379
   77MOL   H12327635   1.782   5.340   7.049  1.0748  1.4060  1.0820
   77MOL   H12427636   1.911   5.332   6.959 -0.1944 -0.5705  0.7955
   77MOL   H12527637   1.784   5.609   6.966 -0.6967 -1.6771  1.5296
   77MOL   H12627638   1.916   5.566   6.881  1.5221 -1.8202  0.3937
   77MOL   H12727639   1.928   5.559   7.049 -1.3859 -0.6434  1.5709
   77MOL   C12827640   2.048   5.298   6.480 -0.5329 -1.0392 -0.1234
   77MOL   C12927641   2.115   5.421   6.416  0.3607  1.1607 -0.1797
   77MOL   C13027642   2.166   5.524   6.515  0.2377  0.3272 -0.3167
   77MOL   O13127643   2.127   5.640   6.493 -0.0075  0.4329  0.1754
   77MOL   O13227644   2.252   5.485   6.598 -0.5813 -0.1394  0.7456
   77MOL   C13327645   2.322   5.564   6.689 -1.0557 -0.4977  0.0892
   77MOL   C13427646   2.253   5.567   6.826  0.5900  0.0075 -0.6729
   77MOL   C13527647   2.343   5.552   6.948 -0.8317  0.1132 -0.2565
   77MOL   H13627648   2.049   5.214   6.410 -0.2178 -1.7403  0.7127
   77MOL   H13727649   2.095   5.270   6.574 -0.6553  0.4035  0.3776
   77MOL   H13827650   2.033   5.478   6.372 -2.8412 -1.4258  2.1933
   77MOL   H13927651   2.418   5.513   6.696 -0.3317  0.8304  0.0080
   77MOL   H14027652   2.344   5.662   6.647  0.2895 -0.5105  0.7245
   77MOL   H14127653   2.191   5.656   6.841 -0.2394 -0.4886 -1.1439
   77MOL   H14227654   2.185   5.483   6.837  1.9726 -0.8995  1.2227
   77MOL   H14327655   2.393   5.457   6.930 -0.2619  0.4093 -0.2438
   77MOL   H14427656   2.274   5.543   7.032 -1.7191  2.7071 -0.6702
   77MOL   H14527657   2.413   5.635   6.962 -2.2611  1.0016  1.8188
   77MOL   C14627658   2.220   5.390   6.313  0.0667  0.8368 -0.5798
   77MOL   C14727659   2.166   5.348   6.172  0.8324  0.4816 -0.2733
   77MOL   C14827660   2.190   5.467   6.067  0.1462  0.4744 -0.4287
   77MOL   O14927661   2.107   5.496   5.981  0.0347 -0.3316 -0.2706
   77MOL   O15027662   2.310   5.521   6.079  0.2289 -0.0228  0.2229
   77MOL   C15127663   2.363   5.616   5.995  0.1497  0.3346 -0.1337
   77MOL   C15227664   2.500   5.571   5.951 -0.3560  0.1519 -0.3900
   77MOL   C15327665   2.559   5.682   5.869 -0.5267 -0.5006  0.3425
   77MOL   H15427666   2.291   5.315   6.347  0.2167  1.8170  1.3122
   77MOL   H15527667   2.285   5.478   6.308  2.0112 -0.5121  0.4268
   77MOL   H15627668   2.057   5.337   6.175  0.7938  1.1977  1.7125
   77MOL   H15727669   2.303   5.624   5.904 -1.4042  2.2016  1.0014
   77MOL   H15827670   2.368   5.710   6.050 -0.5187 -1.1969  2.6347
   77MOL   H15927671   2.566   5.527   6.026  1.4422  2.9136 -0.3120
   77MOL   H16027672   2.482   5.489   5.882 -2.1718 -0.5248  0.8279
   77MOL   H16127673   2.663   5.657   5.849 -0.2775  1.6282 -1.1914
   77MOL   H16227674   2.551   5.781   5.913  0.8732  0.3515 -1.2809
   77MOL   H16327675   2.503   5.694   5.777  0.2172  1.3867  0.1043
   77MOL   C16427676   2.230   5.213   6.122 -0.7240  0.1417  0.2670
   77MOL   C16527677   2.146   5.143   6.017  0.2648 -0.1682  0.9529
   77MOL   C16627678   2.230   5.045   5.939 -0.2709 -0.1204  0.1129
   77MOL   O16727679   2.231   4.924   5.964  0.5678 -0.3652 -0.3077
   77MOL   O16827680   2.303   5.099   5.839  0.4983 -0.1981  0.1592
   77MOL   C16927681   2.385   5.024   5.751 -0.0141  0.1244  0.0460
   77MOL   C17027682   2.440   5.121   5.646 -0.6640 -0.3145  0.2014
   77MOL   C17127683   2.548   5.053   5.552 -0.1113 -0.3442 -0.3386
   77MOL   H17227684   2.240   5.147   6.208 -0.4206 -3.3041 -2.3000
   77MOL   H17327685   2.332   5.244   6.097 -0.8972 -0.8028 -1.6662
   77MOL   H17427686   2.117   5.226   5.953  0.2328  0.8214  2.2424
   77MOL   H17527687   2.466   4.982   5.810 -1.3009 -0.0974  1.7200
   77MOL   H17627688   2.349   4.932   5.706 -1.5882  0.1443  1.1893
   77MOL   H17727689   2.358   5.173   5.596  0.4801  0.5957 -0.7439
   77MOL   H17827690   2.488   5.198   5.707 -1.9844 -0.4496  1.4281
   77MOL   H17927691   2.527   4.959   5.502 -1.7375 -0.0871 -0.1564
   77MOL   H18027692   2.628   5.039   5.624 -0.4029  2.1982  0.5558
   77MOL   H18127693   2.592   5.116   5.474 -0.4827  2.0345  1.2973
   77MOL   C18227694   2.015   5.078   6.078  0.2763 -0.3175 -0.4579
   77MOL   C18327695   1.931   4.983   5.982  0.1831  0.2618 -0.0201
   77MOL   C18427696   1.827   4.913   6.069  0.5441  0.3033  0.7760
   77MOL   O18527697   1.796   4.957   6.179  0.4127  0.2002 -0.4868
   77MOL   O18627698   1.777   4.809   6.010 -0.3710  0.2956  0.3731
   77MOL   C18727699   1.684   4.728   6.079 -0.6495  0.4302 -0.5708
   77MOL   C18827700   1.541   4.785   6.072 -0.2039 -0.1165  0.4298
   77MOL   C18927701   1.491   4.806   5.928 -0.6263  0.5827 -0.1468
   77MOL   H19027702   1.948   5.149   6.125  0.6386 -0.8900  0.9469
   77MOL   H19127703   2.054   5.014   6.158 -2.2859 -1.6758 -0.2535
   77MOL   H19227704   1.995   4.908   5.935  0.2098  0.2713  0.0018
   77MOL   H19327705   1.699   4.628   6.039  4.1712  0.9419 -0.3046
   77MOL   H19427706   1.714   4.718   6.183  0.7628  0.9975 -0.9056
   77MOL   H19527707   1.471   4.719   6.122  1.1663 -1.2079  0.9692
   77MOL   H19627708   1.536   4.875   6.132 -1.1158 -0.5625  1.0134
   77MOL   H19727709   1.564   4.793   5.848  0.2696  2.6379  0.3245
   77MOL   H19827710   1.433   4.896   5.908  1.4590  2.2077  1.0166
   77MOL   H19927711   1.417   4.727   5.910  1.9346 -1.9377 -0.0212
   77MOL   C20027712   1.870   5.075   5.869  0.5731  0.5076  0.4188
   77MOL   C20127713   1.846   4.993   5.739 -0.3181  0.2927 -0.2115
   77MOL   C20227714   1.723   5.049   5.667 -0.1931  0.0365 -0.4543
   77MOL   O20327715   1.632   4.977   5.635 -0.6010 -0.7486 -0.8181
   77MOL   O20427716   1.721   5.182   5.639 -0.0491 -0.0641  0.2774
   77MOL   C20527717   1.658   5.242   5.529 -0.6278  0.8772  0.4180
   77MOL   C20627718   1.664   5.395   5.523  0.1870 -0.3042  0.0009
   77MOL   C20727719   1.564   5.441   5.420 -0.0820 -0.1813  0.4166
   77MOL   H20827720   1.934   5.159   5.842  1.3654 -0.8847 -2.2583
   77MOL   H20927721   1.775   5.118   5.900  0.1916 -0.2470  0.2967
   77MOL   H21027722   1.814   4.893   5.769  1.2214  0.2446  1.3531
   77MOL   H21127723   1.701   5.199   5.439 -0.5021  2.1437 -0.1332
   77MOL   H21227724   1.555   5.206   5.533 -0.5270  0.5015 -0.3725
   77MOL   H21327725   1.637   5.445   5.616 -1.0778  0.1182 -0.5830
   77MOL   H21427726   1.763   5.429   5.494 -0.4522  1.5202 -0.0673
   77MOL   H21527727   1.468   5.420   5.466  0.2550 -1.4195  0.5807
   77MOL   H21627728   1.583   5.393   5.324 -1.3320 -3.2451  1.6489
   77MOL   H21727729   1.567   5.548   5.401 -1.2975 -0.1370  0.4420
   77MOL   C21827730   1.965   4.984   5.648 -0.1620 -0.3503  0.1166
   77MOL   C21927731   1.950   4.876   5.542 -0.2816 -0.7330  0.4950
   77MOL   C22027732   1.934   4.944   5.407 -0.2853  0.5357  0.0558
   77MOL   O22127733   1.833   4.937   5.342 -0.3460 -0.2669 -0.0506
   77MOL   O22227734   2.047   5.002   5.365  0.3609 -0.7148  0.2640
   77MOL   C22327735   2.059   5.050   5.237  0.1930  0.3074 -0.5182
   77MOL   C22427736   2.094   5.197   5.228  0.5817  0.5979 -0.0650
   77MOL   C22527737   2.232   5.240   5.285 -0.8362  0.1395  0.4475
   77MOL   H22627738   2.054   4.965   5.708  0.1997 -1.2354 -0.6800
   77MOL   H22727739   1.966   5.080   5.597  0.4632  0.1707  1.0928
   77MOL   H22827740   1.860   4.816   5.557 -0.5718 -0.7342 -1.1726
   77MOL   H22927741   2.151   4.999   5.210  1.6404  1.0653  2.7979
   77MOL   H23027742   1.980   5.015   5.170 -0.1161 -2.2803  1.1204
   77MOL   H23127743   2.097   5.233   5.125  1.9485 -2.4468 -1.1658
   77MOL   H23227744   2.011   5.245   5.279 -0.3464  0.0624 -1.0276
   77MOL   H23327745   2.317   5.204   5.228 -0.4819  0.0189  1.0521
   77MOL   H23427746   2.249   5.206   5.387 -0.5644  2.0374  1.0519
   77MOL   H23527747   2.239   5.349   5.287 -0.2921  0.1044  0.4058
   77MOL   C23627748   2.065   4.765   5.527 -0.1252  0.2075  1.0780
   77MOL   C23727749   2.112   4.677   5.653 -0.3562 -0.0773  0.0191
   77MOL   C23827750   1.986   4.629   5.726  0.3858 -0.5973  0.0476
   77MOL   O23927751   1.970   4.657   5.845  0.3924  0.0739  0.1540
   77MOL   O24027752   1.890   4.572   5.643 -0.3442  0.3122 -0.1890
   77MOL   C24127753   1.784   4.506   5.706 -0.9519 -0.5298  0.4630
   77MOL   C24227754   1.829   4.368   5.750  0.8633 -0.3843  0.2259
   77MOL   C24327755   1.870   4.287   5.632 -0.4344  0.0091 -0.4835
   77MOL   H24427756   2.151   4.820   5.489 -0.0879  0.7541  1.9508
   77MOL   H24527757   2.037   4.713   5.435  3.0254  1.7254 -0.8241
   77MOL   H24627758   2.163   4.742   5.723 -1.9678  0.5012  0.6682
   77MOL   H24727759   1.757   4.556   5.799  2.8288  1.9372  0.3233
   77MOL   H24827760   1.702   4.498   5.634 -1.0824  0.1112  0.5431
   77MOL   H24927761   1.912   4.368   5.819 -0.0133 -0.7964  1.2968
   77MOL   H25027762   1.753   4.320   5.812  1.0737  0.0048  0.7819
   77MOL   H25127763   1.908   4.188   5.658 -1.0705  0.2085  1.2438
   77MOL   H25227764   1.954   4.327   5.576  1.4459  1.4730  3.2422
   77MOL   H25327765   1.787   4.285   5.561 -0.1525  0.1053 -0.8184
   77MOL   C25427766   2.206   4.556   5.611  0.2648  0.7756  0.1675
   77MOL   C25527767   2.294   4.510   5.729 -0.7230  0.7722 -0.0459
   77MOL   C25627768   2.360   4.375   5.709  0.4245  0.3267 -0.1169
   77MOL   O25727769   2.465   4.356   5.650 -0.7249 -0.5443 -0.6266
   77MOL   O25827770   2.285   4.275   5.754  0.1201  0.5267  0.0610
   77MOL   C25927771   2.340   4.147   5.749 -0.0714  0.2502 -0.0094
   77MOL   C26027772   2.244   4.051   5.677  0.3780 -0.1649 -0.4347
   77MOL   C26127773   2.239   4.069   5.525  0.2020  0.8025 -0.1186
   77MOL   H26227774   2.261   4.592   5.525 -0.6085 -0.9017 -1.1082
   77MOL   H26327775   2.142   4.479   5.569  0.3331 -0.3750  2.0995
   77MOL   H26427776   2.225   4.493   5.811 -0.0877 -0.4787  0.2238
   77MOL   H26527777   2.438   4.123   5.706 -0.4867  1.0844 -1.4934
   77MOL   H26627778   2.348   4.116   5.852  0.8776 -1.3432 -0.5504
   77MOL   H26727779   2.260   3.944   5.692 -0.3467 -0.3737 -1.1363
   77MOL   H26827780   2.148   4.071   5.724  1.2517  1.6919  0.6247
   77MOL   H26927781   2.185   4.158   5.494 -0.3972  1.1670  1.9090
   77MOL   H27027782   2.190   3.985   5.476 -0.3585  1.6872 -1.0882
   77MOL   H27127783   2.338   4.087   5.484  0.9071 -1.4853  0.4919
   77MOL   C27227784   2.412   4.604   5.780 -0.7615 -0.0558  0.0203
   77MOL   C27327785   2.492   4.558   5.906  0.2348 -0.1405  0.0941
   77MOL   C27427786   2.617   4.646   5.916 -0.1927  0.6541 -0.5148
   77MOL   O27527787   2.616   4.768   5.887 -0.0587 -0.4657 -0.0390
   77MOL   O27627788   2.731   4.578   5.952  0.6812 -0.2992 -0.2640
   77MOL   C27727789   2.860   4.637   5.962 -0.8152 -0.2871 -0.5534
   77MOL   C27827790   2.875   4.698   6.107  0.1430 -0.4135 -0.7027
   77MOL   C27927791   3.014   4.771   6.128  0.0898  0.6687 -0.1395
   77MOL   H28027792   2.374   4.704   5.801 -3.7077 -0.4920 -2.8240
   77MOL   H28127793   2.484   4.624   5.700  0.4196  3.1954  1.8033
   77MOL   H28227794   2.537   4.464   5.876 -0.1140 -0.1086 -0.5319
   77MOL   H28327795   2.923   4.550   5.946  0.5408  0.3355  1.2325
   77MOL   H28427796   2.877   4.708   5.880 -1.2322 -0.7146 -1.0154
   77MOL   H28527797   2.789   4.762   6.126 -0.4543 -2.2938  3.4679
   77MOL   H28627798   2.865   4.618   6.180  0.3294 -1.0776 -1.4004
   77MOL   H28727799   3.026   4.824   6.033 -0.7973 -1.7959 -1.6679
   77MOL   H28827800   3.089   4.693   6.132  1.4820  1.9298 -1.1311
   77MOL   H28927801   3.021   4.835   6.216 -2.2759  1.0340 -0.1849
   77MOL   C29027802   2.414   4.546   6.040  0.7823 -0.3018 -0.2582
   77MOL   C29127803   2.497   4.516   6.167 -0.3746 -0.9294 -0.2336
   77MOL   C29227804   2.494   4.631   6.269  0.1400 -0.0664  0.1341
   77MOL   O29327805   2.450   4.614   6.384 -0.1972  0.8246 -0.4452
   77MOL   O29427806   2.550   4.747   6.221 -0.6262 -0.5091 -0.5294
   77MOL   C29527807   2.559   4.857   6.299 -0.2089 -0.1032  0.0762
   77MOL   C29627808   2.430   4.940   6.301 -0.0196  0.0687 -0.1887
   77MOL   C29727809   2.448   5.046   6.414 -0.3032  0.1758 -0.0322
   77MOL   H29827810   2.341   4.466   6.031  0.3838  0.1687 -1.4042
   77MOL   H29927811   2.359   4.640   6.040  1.2411 -0.0301  0.2781
   77MOL   H30027812   2.601   4.507   6.139 -0.2030 -0.6510  0.3000
   77MOL   H30127813   2.589   4.844   6.403 -0.5773  0.0445  0.2006
   77MOL   H30227814   2.635   4.927   6.265  1.5999 -0.4635  3.1535
   77MOL   H30327815   2.412   4.991   6.206 -3.1023  0.4301  0.5090
   77MOL   H30427816   2.345   4.874   6.320  1.0750 -0.6537  2.5786
   77MOL   H30527817   2.362   5.112   6.425 -0.2461  0.0759  1.0319
   77MOL   H30627818   2.535   5.107   6.389 -0.8219  0.6537 -0.7133
   77MOL   H30727819   2.460   4.997   6.510  0.2679  1.9763  0.8360
   77MOL   C30827820   2.448   4.385   6.219  0.1458  0.1074  0.1179
   77MOL   C30927821   2.551   4.319   6.323  0.4742 -0.6211  0.2148
   77MOL   C31027822   2.490   4.202   6.403  0.5539  0.6607  1.2999
   77MOL   O31127823   2.390   4.151   6.349 -0.6725  0.2083 -0.5380
   77MOL   O31227824   2.549   4.165   6.518  0.2330 -0.7296  0.4432
   77MOL   C31327825   2.482   4.070   6.592 -0.5793  0.0340 -0.6550
   77MOL   C31427826   2.565   4.013   6.708  0.1926 -0.0813  0.5019
   77MOL   C31527827   2.656   3.904   6.660 -0.1728 -0.4973  0.0268
   77MOL   H31627828   2.417   4.312   6.143 -0.9329 -0.1218  0.7621
   77MOL   H31727829   2.349   4.397   6.265  1.5599  2.2623  2.7073
   77MOL   H31827830   2.576   4.395   6.397  0.1325 -0.7777  0.4896
   77MOL   H31927831   2.395   4.117   6.638  1.0122  1.5403  0.9174
   77MOL   H32027832   2.447   3.994   6.523  0.7478  0.2023 -1.5297
   77MOL   H32127833   2.618   4.097   6.752 -0.6437  0.1048  1.1486
   77MOL   H32227834   2.493   3.991   6.787  0.3210  0.3386  0.7347
   77MOL   H32327835   2.605   3.843   6.585  1.0438  2.0060 -2.9670
   77MOL   H32427836   2.742   3.952   6.613 -1.0415  1.6583  0.5975
   77MOL   H32527837   2.686   3.853   6.752 -1.6861  0.3853  1.0226
   77MOL   C32627838   2.691   4.293   6.271 -0.0482  0.1614 -0.3031
   77MOL   C32727839   2.697   4.173   6.173 -0.2477 -0.1290  0.1550
   77MOL   C32827840   2.660   4.208   6.024 -0.4679 -0.0930 -0.0143
   77MOL   O32927841   2.544   4.199   5.978  0.3351 -0.4429 -0.1588
   77MOL   O33027842   2.768   4.257   5.953  0.0255  0.3276  0.4158
   77MOL   C33127843   2.760   4.246   5.810 -0.4019  0.1827  0.0676
   77MOL   C33227844   2.792   4.094   5.775 -0.4095  0.3899 -0.3174
   77MOL   C33327845   2.937   4.062   5.800 -0.4292 -0.2761 -0.6745
   77MOL   H33427846   2.753   4.273   6.359 -1.0173 -0.5104  0.2339
   77MOL   H33527847   2.731   4.381   6.222  1.2756 -0.9918 -1.3461
   77MOL   H33627848   2.620   4.097   6.186 -0.7533 -0.0827 -2.2895
   77MOL   H33727849   2.664   4.279   5.770 -0.1009  0.7158 -0.2303
   77MOL   H33827850   2.837   4.311   5.768 -0.2862  0.6481  0.9812
   77MOL   H33927851   2.732   4.014   5.819 -0.0522 -0.7987 -1.9324
   77MOL   H34027852   2.773   4.081   5.669  1.0794 -0.5578 -0.4807
   77MOL   H34127853   2.964   3.978   5.736  1.3347  2.5766 -3.8017
   77MOL   H34227854   2.998   4.149   5.779  1.2383 -0.9286  1.2363
   77MOL   H34327855   2.974   4.036   5.900 -1.3950  1.1914  0.0786
   77MOL   C34427856   2.841   4.101   6.185  0.1925 -0.3031  0.2599
   77MOL   C34527857   2.831   3.987   6.281  0.4870  0.2279  0.2255
   77MOL   C34627858   2.943   3.983   6.376  0.2716  0.4421 -0.4624
   77MOL   O34727859   3.036   3.897   6.369 -0.2989  0.6725 -0.3082
   77MOL   O34827860   2.935   4.078   6.471 -0.0368 -0.3311  0.1921
   77MOL   C34927861   3.045   4.084   6.556 -0.9778  0.0452 -0.1541
   77MOL   C35027862   3.031   4.200   6.669 -0.3107  0.0161  0.4841
   77MOL   C35127863   3.146   4.221   6.771 -0.2553 -1.1811 -0.1784
   77MOL   H35227864   2.920   4.172   6.207  0.3996 -0.6914  0.7630
   77MOL   H35327865   2.868   4.060   6.087  0.5069  1.3323 -0.3501
   77MOL   H35427866   2.848   3.893   6.228 -1.9731 -0.6310  0.8645
   77MOL   H35527867   3.041   3.994   6.618  1.2527  0.5233  0.7339
   77MOL   H35627868   3.139   4.089   6.502 -0.5303 -1.0271  0.5216
   77MOL   H35727869   3.001   4.293   6.621 -2.7754 -0.5894  0.7697
   77MOL   H35827870   2.937   4.179   6.721  0.1155  1.0388  1.6844
   77MOL   H35927871   3.185   4.124   6.802 -2.4140 -2.7439 -2.1543
   77MOL   H36027872   3.225   4.282   6.727 -0.9161 -0.2623 -0.1118
   77MOL   H36127873   3.090   4.269   6.851  0.5488  1.5706 -1.2164
   77MOL   H36227874   2.734   3.977   6.329  0.3327 -1.3331 -0.3756
   78MOL     C127875   5.125   4.851   6.401  0.2052  0.2376  0.1453
   78MOL     C227876   5.100   4.706   6.353  0.5675 -0.1743  0.4911
   78MOL     C327877   5.018   4.698   6.223 -0.3639 -0.9832  0.2261
   78MOL     O427878   4.915   4.633   6.210 -0.3318 -0.7143 -0.5374
   78MOL     O527879   5.073   4.743   6.110  0.5225  0.1567 -0.2438
   78MOL     C627880   5.012   4.735   5.990  0.3386  0.4286  0.0789
   78MOL     C727881   5.072   4.828   5.881  0.1004 -0.2490 -1.0439
   78MOL     C827882   5.033   4.802   5.734  0.1100  0.1890  0.2396
   78MOL     H927883   5.169   4.910   6.320  2.0700 -2.4345 -0.8842
   78MOL    H1027884   5.032   4.905   6.420 -0.5366 -0.7491 -0.5819
   78MOL    H1127885   5.022   4.669   6.420  0.7855 -1.3056  0.1207
   78MOL    H1227886   5.028   4.631   5.961  0.6023  0.2376  0.8874
   78MOL    H1327887   4.905   4.753   5.993  0.6650  2.3708  1.0397
   78MOL    H1427888   5.045   4.932   5.902  0.4100  0.1357 -2.4554
   78MOL    H1527889   5.180   4.821   5.889  0.7028  1.9746 -5.3880
   78MOL    H1627890   5.081   4.877   5.670  2.7626  0.0370  1.9824
   78MOL    H1727891   5.046   4.698   5.708 -2.7746  0.1182 -1.1098
   78MOL    H1827892   4.929   4.832   5.723 -0.3872 -1.5577  0.0459
   78MOL    H1927893   5.188   4.846   6.490 -0.5747 -1.3224  0.6333
   78MOL    C2027894   5.221   4.612   6.352 -0.4655 -0.6842  0.1491
   78MOL    C2127895   5.327   4.627   6.240  0.4770  0.6517 -0.2972
   78MOL    C2227896   5.407   4.760   6.242 -0.8087 -0.5202 -0.8221
   78MOL    O2327897   5.471   4.804   6.337 -0.1567  0.1029  0.5951
   78MOL    O2427898   5.411   4.819   6.121  0.6107  0.2244 -0.2624
   78MOL    C2527899   5.487   4.940   6.105 -0.1387 -0.4555 -0.0750
   78MOL    C2627900   5.401   5.060   6.136 -0.3692 -0.5537 -0.6918
   78MOL    C2727901   5.258   5.060   6.070 -0.5813 -0.6958 -0.5957
   78MOL    H2827902   5.183   4.511   6.342 -2.5166  0.0152  0.5384
   78MOL    H2927903   5.257   4.619   6.455  0.5339  1.3671 -0.2991
   78MOL    H3027904   5.271   4.624   6.147  0.2898  1.8134 -0.2273
   78MOL    H3127905   5.573   4.948   6.171 -0.5160 -0.2246  0.3988
   78MOL    H3227906   5.524   4.950   6.004  1.4728 -1.6226  0.3960
   78MOL    H3327907   5.388   5.052   6.244  0.6357 -0.4244 -0.5562
   78MOL    H3427908   5.452   5.152   6.106  0.2016 -0.3367  0.9181
   78MOL    H3527909   5.251   5.054   5.962  2.0310  1.9295 -0.9914
   78MOL    H3627910   5.214   5.158   6.089 -3.1954 -2.1139  0.9044
   78MOL    H3727911   5.202   4.972   6.101 -0.3980 -1.0664 -1.3168
   78MOL    C3827912   5.411   4.494   6.251  0.7095 -1.1603 -0.4478
   78MOL    C3927913   5.471   4.451   6.395  0.1526 -0.4328  0.4009
   78MOL    C4027914   5.384   4.348   6.474 -0.1358 -0.0343  0.5815
   78MOL    O4127915   5.352   4.384   6.590  0.1392 -0.4863 -0.4273
   78MOL    O4227916   5.356   4.236   6.410  0.0234  0.2902  0.1096
   78MOL    C4327917   5.286   4.133   6.462 -0.0620 -0.4371 -0.4414
   78MOL    C4427918   5.345   4.014   6.392  0.4363  0.1560  0.0754
   78MOL    C4527919   5.326   3.885   6.468  0.2925 -0.5761  0.0548
   78MOL    H4627920   5.502   4.522   6.197 -0.7660  0.5310 -2.1521
   78MOL    H4727921   5.360   4.416   6.195  1.7278 -0.9058 -1.7767
   78MOL    H4827922   5.468   4.540   6.458 -0.6080  0.4865 -0.9180
   78MOL    H4927923   5.298   4.122   6.570  2.8112 -1.0785 -0.7677
   78MOL    H5027924   5.184   4.144   6.426 -0.2627  1.8756  0.7369
   78MOL    H5127925   5.291   4.015   6.297  1.8434 -1.3421 -0.7714
   78MOL    H5227926   5.452   4.028   6.372  0.7751 -0.8363  1.1276
   78MOL    H5327927   5.361   3.799   6.411  1.5779  1.3063 -2.1056
   78MOL    H5427928   5.225   3.872   6.505  0.5919 -0.5472  0.8879
   78MOL    H5527929   5.385   3.882   6.560 -2.1501 -0.4386  1.6629
   78MOL    C5627930   5.618   4.407   6.393  0.0175 -0.5714 -0.8544
   78MOL    C5727931   5.662   4.264   6.349 -0.3823  0.4912  0.3362
   78MOL    C5827932   5.628   4.226   6.199  0.4497  0.2346 -0.4633
   78MOL    O5927933   5.666   4.298   6.108  0.0926  0.0266 -0.0335
   78MOL    O6027934   5.583   4.103   6.182  0.1922  0.0344 -0.1433
   78MOL    C6127935   5.544   4.067   6.054 -0.6609 -0.5793  0.6935
   78MOL    C6227936   5.663   3.998   5.988 -0.4958  0.0378 -0.2369
   78MOL    C6327937   5.650   3.983   5.837 -0.0328 -1.0299 -0.5130
   78MOL    H6427938   5.655   4.404   6.496 -0.8896 -1.2432 -0.5406
   78MOL    H6527939   5.690   4.472   6.344 -0.1937 -0.0402 -0.4553
   78MOL    H6627940   5.604   4.194   6.410  0.8517 -2.0866 -1.3269
   78MOL    H6727941   5.459   3.998   6.055 -0.1101 -1.3005 -0.4135
   78MOL    H6827942   5.520   4.149   5.987 -0.5939  0.8351  2.3760
   78MOL    H6927943   5.751   4.062   5.999 -0.1348 -0.3689 -0.7404
   78MOL    H7027944   5.684   3.906   6.042  2.2109  1.4935  1.3133
   78MOL    H7127945   5.749   3.953   5.803  0.5782  1.6486 -1.2014
   78MOL    H7227946   5.622   4.075   5.786 -0.8881 -1.2245 -0.3980
   78MOL    H7327947   5.572   3.913   5.806 -1.2117  1.3005 -2.9087
   78MOL    C7427948   5.809   4.231   6.385 -0.1640  0.3498 -0.1620
   78MOL    C7527949   5.822   4.101   6.467 -0.1661  0.5731 -0.3984
   78MOL    C7627950   5.777   4.111   6.613 -0.4764 -0.4280  0.3746
   78MOL    O7727951   5.851   4.113   6.712  0.6398  0.2730 -0.0886
   78MOL    O7827952   5.642   4.106   6.620  0.1754  0.5403  0.3340
   78MOL    C7927953   5.576   4.118   6.750  0.6839  0.3482  0.6848
   78MOL    C8027954   5.582   3.980   6.813  0.1774 -0.5205 -0.1973
   78MOL    C8127955   5.473   3.970   6.920  0.0988  0.3263  0.7066
   78MOL    H8227956   5.851   4.318   6.433 -1.4832  1.9098 -1.7439
   78MOL    H8327957   5.871   4.217   6.296  1.5630 -0.2703  1.1295
   78MOL    H8427958   5.928   4.080   6.481 -0.9399 -2.1195  1.7829
   78MOL    H8527959   5.628   4.197   6.804  0.2572  2.0862 -1.3564
   78MOL    H8627960   5.473   4.147   6.728  0.9184  0.4700 -0.2874
   78MOL    H8727961   5.568   3.899   6.741 -0.1158 -1.1205  0.5265
   78MOL    H8827962   5.678   3.969   6.864  0.8064  2.0958 -0.7277
   78MOL    H8927963   5.481   4.048   6.996 -0.8069 -1.2663  2.4737
   78MOL    H9027964   5.481   3.874   6.970  1.2030 -0.9719 -1.8287
   78MOL    H9127965   5.372   3.975   6.880 -0.4834 -0.8853  1.9988
   78MOL    C9227966   5.761   3.977   6.395  0.1610  0.2288 -0.2419
   78MOL    C9327967   5.789   3.835   6.465 -0.0507  0.1056  0.4464
   78MOL    C9427968   5.671   3.736   6.440  0.1262  0.3063  0.4558
   78MOL    O9527969   5.618   3.674   6.530  1.0816  0.1119  0.4245
   78MOL    O9627970   5.639   3.719   6.311  0.1914  0.5396  0.3595
   78MOL    C9727971   5.542   3.622   6.273 -0.3617 -0.4610  0.2178
   78MOL    C9827972   5.604   3.524   6.173  0.8029  0.4242 -0.4437
   78MOL    C9927973   5.696   3.414   6.238 -0.7248  0.5874 -0.3062
   78MOL   H10027974   5.797   3.979   6.293  1.4116 -0.8827  0.1568
   78MOL   H10127975   5.654   3.993   6.390  0.5525  2.5311 -1.7398
   78MOL   H10227976   5.793   3.851   6.572  1.3217 -0.0349  0.4237
   78MOL   H10327977   5.485   3.578   6.354 -0.6190 -0.2334  0.1624
   78MOL   H10427978   5.461   3.674   6.222  1.7183 -0.2405 -3.0113
   78MOL   H10527979   5.522   3.460   6.141 -0.9648  0.7669  3.1275
   78MOL   H10627980   5.637   3.580   6.086  3.8407  0.4137  0.6193
   78MOL   H10727981   5.737   3.347   6.163 -2.7924  0.2115 -1.1163
   78MOL   H10827982   5.646   3.347   6.307 -1.8273  0.3845 -1.3012
   78MOL   H10927983   5.785   3.460   6.282  1.5531 -2.6491 -1.3358
   78MOL   C11027984   5.927   3.776   6.429 -0.1577 -0.4616 -0.4311
   78MOL   C11127985   6.009   3.696   6.538 -0.2544  0.3097 -0.0757
   78MOL   C11227986   5.913   3.603   6.615  0.5962 -0.4843  0.4381
   78MOL   O11327987   5.860   3.644   6.715  0.2335 -0.3083  0.1917
   78MOL   O11427988   5.881   3.491   6.549 -0.2358  0.4533 -0.0923
   78MOL   C11527989   5.781   3.404   6.603 -0.0858 -0.7686 -0.3220
   78MOL   C11627990   5.831   3.266   6.569  0.4005  0.3328 -0.3483
   78MOL   C11727991   5.728   3.162   6.599 -0.8855 -0.1532  0.5480
   78MOL   H11827992   5.991   3.859   6.398 -0.9299  0.8798  1.5187
   78MOL   H11927993   5.916   3.714   6.340  0.3949 -1.0428 -0.1000
   78MOL   H12027994   6.044   3.770   6.610  1.1841  0.9523 -1.4124
   78MOL   H12127995   5.760   3.421   6.708 -1.7434  0.3389 -0.8174
   78MOL   H12227996   5.690   3.414   6.545 -0.7467 -1.7031  0.5441
   78MOL   H12327997   5.869   3.256   6.467  2.1237  1.6270  0.1272
   78MOL   H12427998   5.919   3.259   6.634 -0.5287 -1.0864  0.7769
   78MOL   H12527999   5.769   3.062   6.587 -1.7639 -0.4624  0.0755
   78MOL   H12628000   5.643   3.165   6.531  0.1910 -0.1945 -0.8206
   78MOL   H12728001   5.692   3.171   6.701  0.5642 -2.5645  1.3092
   78MOL   C12828002   6.128   3.624   6.473  0.2831 -0.2061 -0.1040
   78MOL   C12928003   6.255   3.625   6.556 -0.1594  0.1647  0.0083
   78MOL   C13028004   6.232   3.573   6.704  0.3921  0.1672 -0.0740
   78MOL   O13128005   6.280   3.634   6.803 -0.4618  0.5144  0.7333
   78MOL   O13228006   6.171   3.455   6.707  0.5571 -0.0501  0.2820
   78MOL   C13328007   6.131   3.406   6.836 -0.5972 -0.0153 -0.4336
   78MOL   C13428008   6.239   3.322   6.907 -0.6362  0.1747 -0.1099
   78MOL   C13528009   6.266   3.203   6.815  0.4589 -0.5526  0.3926
   78MOL   H13628010   6.148   3.668   6.375 -0.5106 -1.6503 -0.9346
   78MOL   H13728011   6.108   3.519   6.454  0.9343 -1.1819  4.0325
   78MOL   H13828012   6.272   3.729   6.582  1.6105 -0.2898  0.7200
   78MOL   H13928013   6.111   3.494   6.898 -0.0294 -0.4935  0.4333
   78MOL   H14028014   6.033   3.361   6.828  0.6705 -2.7065 -1.2568
   78MOL   H14128015   6.324   3.388   6.927  0.6294 -1.5591  0.3802
   78MOL   H14228016   6.197   3.291   7.003  0.0691 -2.1432 -0.5330
   78MOL   H14328017   6.317   3.121   6.866 -0.1673 -1.4825 -0.4583
   78MOL   H14428018   6.335   3.224   6.733 -0.4810  0.0469 -0.2611
   78MOL   H14528019   6.182   3.167   6.756  0.3760  0.1983  0.0528
   78MOL   C14628020   6.378   3.560   6.495  0.1894 -0.7900  0.0357
   78MOL   C14728021   6.521   3.596   6.557 -0.6239 -0.5548 -0.6323
   78MOL   C14828022   6.615   3.475   6.576 -0.6015  1.1895  0.3813
   78MOL   O14928023   6.628   3.387   6.491  0.1832 -0.7273  0.1877
   78MOL   O15028024   6.683   3.488   6.681 -0.0973 -0.6156 -0.2085
   78MOL   C15128025   6.793   3.409   6.717  0.5760 -0.7981  0.6379
   78MOL   C15228026   6.930   3.473   6.684  0.3184 -0.6122  0.1658
   78MOL   C15328027   7.041   3.373   6.704  0.0198 -0.1902  0.1260
   78MOL   H15428028   6.367   3.573   6.387 -0.4025 -1.7051 -0.0161
   78MOL   H15528029   6.371   3.452   6.508 -0.1133 -0.3737  3.9156
   78MOL   H15628030   6.506   3.623   6.662  1.2685 -2.0649  0.0568
   78MOL   H15728031   6.783   3.394   6.824  0.1114  1.0157  0.8764
   78MOL   H15828032   6.774   3.316   6.665 -0.2019 -0.7009  0.7416
   78MOL   H15928033   6.932   3.496   6.577 -0.0820  2.5652  0.8135
   78MOL   H16028034   6.935   3.567   6.739 -1.1823  0.1022 -0.8848
   78MOL   H16128035   7.038   3.310   6.614  2.4751  0.1672 -0.2330
   78MOL   H16228036   7.006   3.315   6.790 -1.6685 -0.5861 -0.7904
   78MOL   H16328037   7.137   3.421   6.719  0.0217  0.1468 -0.8918
   78MOL   C16428038   6.581   3.710   6.462 -0.0686 -0.2709 -0.8205
   78MOL   C16528039   6.714   3.768   6.522  0.3668  0.0564  0.3507
   78MOL   C16628040   6.843   3.734   6.446  0.1281 -0.4397  0.1472
   78MOL   O16728041   6.840   3.653   6.351 -0.0362 -0.1671 -0.6203
   78MOL   O16828042   6.952   3.789   6.497 -0.0421  0.0174 -0.3061
   78MOL   C16928043   7.074   3.750   6.438 -0.8387 -0.1327 -0.2973
   78MOL   C17028044   7.194   3.788   6.527 -0.0187 -0.2452 -0.1508
   78MOL   C17128045   7.179   3.745   6.674 -0.0630  0.5005 -0.6826
   78MOL   H17228046   6.503   3.786   6.461  0.9785  1.0103  3.6035
   78MOL   H17328047   6.594   3.666   6.363 -1.1177 -0.3352 -0.9331
   78MOL   H17428048   6.726   3.711   6.614 -1.5246 -0.6355  0.1757
   78MOL   H17528049   7.066   3.642   6.445 -3.8193  0.0392 -0.3683
   78MOL   H17628050   7.080   3.783   6.334  1.0699 -0.4618 -0.3177
   78MOL   H17728051   7.276   3.743   6.470  0.4606 -0.8794  1.0215
   78MOL   H17828052   7.208   3.896   6.519  1.4108 -0.4706 -0.9358
   78MOL   H17928053   7.274   3.766   6.723 -0.2329  0.6680 -0.4254
   78MOL   H18028054   7.167   3.637   6.684 -1.4924  0.4431 -2.5995
   78MOL   H18128055   7.099   3.795   6.728  1.7429  1.6922  0.9362
   78MOL   C18228056   6.693   3.920   6.545  0.0080  1.1555 -0.1425
   78MOL   C18328057   6.623   3.959   6.675  0.6237 -1.0071  0.2441
   78MOL   C18428058   6.693   3.923   6.806 -0.3549  0.2578  0.7990
   78MOL   O18528059   6.815   3.922   6.804  0.2119 -0.6347 -0.0325
   78MOL   O18628060   6.604   3.897   6.912 -0.1803  0.4088  0.5510
   78MOL   C18728061   6.670   3.863   7.037  0.4062  0.5343  0.0536
   78MOL   C18828062   6.622   3.722   7.081  0.3240  0.6406 -0.3699
   78MOL   C18928063   6.655   3.603   6.989 -0.6563  0.1133  0.1765
   78MOL   H19028064   6.659   3.963   6.451  0.6955 -0.8284 -1.3407
   78MOL   H19128065   6.790   3.965   6.566  2.0508 -2.3858 -1.5267
   78MOL   H19228066   6.532   3.902   6.688 -0.1343 -0.1362 -1.1201
   78MOL   H19328067   6.779   3.865   7.036  0.4280 -0.5942 -2.0126
   78MOL   H19428068   6.640   3.939   7.109 -2.5866 -0.0604 -0.5186
   78MOL   H19528069   6.680   3.708   7.172 -0.8464  1.8119  0.5678
   78MOL   H19628070   6.517   3.720   7.109  0.7389 -0.6905  1.2038
   78MOL   H19728071   6.733   3.627   6.916 -0.4906 -0.2118  0.2441
   78MOL   H19828072   6.571   3.579   6.925 -0.5342  2.6760 -0.9611
   78MOL   H19928073   6.678   3.511   7.043 -0.4268 -0.0272 -0.1595
   78MOL   C20028074   6.585   4.113   6.669  0.1701 -0.0080  0.5562
   78MOL   C20128075   6.470   4.153   6.581  0.0633 -0.1651 -0.5737
   78MOL   C20228076   6.341   4.078   6.610  0.2131  0.9173  0.5407
   78MOL   O20328077   6.295   3.988   6.541  0.6418  0.6633  0.2905
   78MOL   O20428078   6.286   4.115   6.719 -0.1327  0.1903  0.7669
   78MOL   C20528079   6.177   4.049   6.782  0.5251 -0.5762  0.9624
   78MOL   C20628080   6.236   3.951   6.880 -0.0670 -1.1147  0.0392
   78MOL   C20728081   6.319   4.023   6.994  0.2506 -0.1204  0.2911
   78MOL   H20828082   6.679   4.161   6.642  0.4376 -0.8682 -0.0635
   78MOL   H20928083   6.561   4.148   6.770 -0.2659  1.7423 -0.1365
   78MOL   H21028084   6.505   4.119   6.484  0.6506 -0.1458 -0.3720
   78MOL   H21128085   6.117   4.125   6.832 -0.2242  0.0211 -0.7814
   78MOL   H21228086   6.118   3.992   6.710 -0.1997 -1.5206  2.2762
   78MOL   H21328087   6.152   3.896   6.921  0.0835 -2.8179 -1.8804
   78MOL   H21428088   6.298   3.878   6.829  0.7831 -0.1310 -0.3590
   78MOL   H21528089   6.406   4.072   6.951  0.6286 -1.3132 -0.3142
   78MOL   H21628090   6.352   3.956   7.073  0.8877  0.0889  0.2065
   78MOL   H21728091   6.262   4.101   7.046 -2.1406 -1.9535  0.5212
   78MOL   C21828092   6.452   4.305   6.567  0.6422 -0.4006  0.4009
   78MOL   C21928093   6.360   4.341   6.445  0.0637  0.6729 -0.8992
   78MOL   C22028094   6.208   4.330   6.482  0.1239  0.1256  0.1988
   78MOL   O22128095   6.139   4.246   6.421 -0.4206  0.5345  0.2788
   78MOL   O22228096   6.168   4.415   6.584 -0.2246  0.4180  0.4119
   78MOL   C22328097   6.036   4.432   6.633 -0.0478  0.2021  0.2595
   78MOL   C22428098   6.037   4.452   6.785  0.0459 -0.2953 -0.7826
   78MOL   C22528099   5.895   4.442   6.845 -0.1052 -0.1515  0.0929
   78MOL   H22628100   6.547   4.356   6.548 -1.0247  2.1106 -1.5616
   78MOL   H22728101   6.402   4.342   6.657 -2.7777 -1.9302 -0.8187
   78MOL   H22828102   6.382   4.272   6.364 -0.8152 -0.1536 -0.4515
   78MOL   H22928103   6.000   4.522   6.584 -1.8670 -0.6416  0.0081
   78MOL   H23028104   5.967   4.349   6.618  2.3877 -2.1991  1.9112
   78MOL   H23128105   6.101   4.375   6.828  2.9968  1.6335 -1.5386
   78MOL   H23228106   6.095   4.539   6.817 -0.1038 -0.6965  0.6058
   78MOL   H23328107   5.827   4.526   6.826 -0.1080 -0.0648  0.4831
   78MOL   H23428108   5.899   4.430   6.953 -0.7666  1.1880  0.2862
   78MOL   H23528109   5.843   4.350   6.819 -2.3115  0.5903  1.7121
   78MOL   C23628110   6.405   4.475   6.391 -0.2713  0.1421 -0.1376
   78MOL   C23728111   6.331   4.515   6.262 -0.1364  0.5502 -0.5453
   78MOL   C23828112   6.317   4.665   6.247  1.5513 -0.3491 -0.3288
   78MOL   O23928113   6.206   4.715   6.263  0.1766 -0.0944 -0.4091
   78MOL   O24028114   6.430   4.727   6.208 -0.2186  0.0390 -0.4273
   78MOL   C24128115   6.428   4.872   6.194 -0.2768  0.3560 -0.3115
   78MOL   C24228116   6.569   4.925   6.205  0.3418  0.3822  0.6511
   78MOL   C24328117   6.653   4.898   6.075 -0.5463  0.1452  0.5488
   78MOL   H24428118   6.511   4.464   6.372 -0.0196  0.9276  0.8021
   78MOL   H24528119   6.390   4.549   6.469  0.3459 -0.9176  1.0122
   78MOL   H24628120   6.230   4.474   6.267  0.4459 -0.8468  0.1768
   78MOL   H24728121   6.386   4.894   6.096  0.6314 -1.9691 -1.2741
   78MOL   H24828122   6.375   4.928   6.271  1.9538 -0.0013  1.5412
   78MOL   H24928123   6.555   5.033   6.213 -3.0609  0.1906 -1.5586
   78MOL   H25028124   6.624   4.892   6.293  1.5062 -1.7496 -0.8156
   78MOL   H25128125   6.760   4.920   6.087 -0.9438  2.2668  0.3931
   78MOL   H25228126   6.617   4.955   5.989  0.8394  0.1933 -0.0231
   78MOL   H25328127   6.651   4.795   6.038  0.0862  0.5132 -0.5252
   78MOL   C25428128   6.396   4.444   6.138 -0.5443 -0.6544  0.0985
   78MOL   C25528129   6.303   4.382   6.030  0.0218  0.0258 -0.4942
   78MOL   C25628130   6.382   4.378   5.893  0.6823  0.9405 -0.1435
   78MOL   O25728131   6.442   4.274   5.865 -0.8528  0.1204  0.5739
   78MOL   O25828132   6.372   4.491   5.815 -0.3045 -0.3172 -0.1749
   78MOL   C25928133   6.455   4.500   5.704 -0.3038 -0.3915  0.4097
   78MOL   C26028134   6.596   4.569   5.745  0.1815  0.2695  0.0782
   78MOL   C26128135   6.582   4.721   5.748 -0.3500  0.3534  0.7127
   78MOL   H26228136   6.466   4.368   6.170  0.2919  0.2056  0.3370
   78MOL   H26328137   6.469   4.509   6.089 -2.7069  1.7720 -0.0241
   78MOL   H26428138   6.218   4.446   6.003  0.9501  0.0394 -3.6241
   78MOL   H26528139   6.475   4.401   5.663  0.3011  0.1092 -0.5117
   78MOL   H26628140   6.408   4.555   5.623  0.8077 -0.6284 -0.4100
   78MOL   H26728141   6.631   4.529   5.841 -1.6011 -2.6380 -0.4401
   78MOL   H26828142   6.676   4.535   5.680  2.5141  0.8904  2.5139
   78MOL   H26928143   6.497   4.749   5.811  1.3979  4.1923  1.5024
   78MOL   H27028144   6.566   4.771   5.653 -3.7637 -1.9112  0.0003
   78MOL   H27128145   6.667   4.762   5.801 -0.5584 -1.1421  2.2587
   78MOL   C27228146   6.246   4.254   6.088  0.8866  0.4991  0.1696
   78MOL   C27328147   6.157   4.159   6.006  0.0318  0.5295 -0.2957
   78MOL   C27428148   6.133   4.036   6.089  0.5471 -0.0183  0.4956
   78MOL   O27528149   6.027   4.023   6.154  0.6906  0.3822  0.1942
   78MOL   O27628150   6.236   3.943   6.088  0.3695  0.2636  0.0864
   78MOL   C27728151   6.219   3.818   6.155  0.6151 -0.3266 -0.2871
   78MOL   C27828152   6.155   3.715   6.063  0.5708  0.0586  0.1497
   78MOL   C27928153   6.246   3.679   5.948 -0.3690 -0.1701 -0.0454
   78MOL   H28028154   6.186   4.282   6.174  2.2196  1.2727  0.8723
   78MOL   H28128155   6.328   4.193   6.128  1.3340  0.9955  0.0206
   78MOL   H28228156   6.222   4.132   5.922  1.2492 -0.2671  0.9005
   78MOL   H28328157   6.312   3.784   6.202 -0.0237 -0.9045  0.5786
   78MOL   H28428158   6.156   3.829   6.243  0.8115 -3.1902  0.2778
   78MOL   H28528159   6.144   3.623   6.120 -0.8336  1.2323  1.8376
   78MOL   H28628160   6.060   3.758   6.029  1.2629 -0.4606 -2.6003
   78MOL   H28728161   6.184   3.608   5.892  1.2716 -3.0263  1.6009
   78MOL   H28828162   6.337   3.626   5.977 -0.5007 -1.3836 -1.7231
   78MOL   H28928163   6.260   3.771   5.891 -0.0878  1.1549  2.1168
   78MOL   C29028164   6.020   4.210   5.951 -0.2659 -0.4400  0.7030
   78MOL   C29128165   6.027   4.306   5.831 -0.0624  0.3984  0.2126
   78MOL   C29228166   6.078   4.227   5.706 -0.5392 -0.3903 -1.1502
   78MOL   O29328167   6.189   4.255   5.660 -0.4056  0.4634 -0.0489
   78MOL   O29428168   5.987   4.134   5.660 -0.2034 -0.1201  0.7071
   78MOL   C29528169   6.027   4.029   5.573  0.6650 -0.3209 -0.3897
   78MOL   C29628170   6.033   3.894   5.644  0.4653  0.4041  0.0429
   78MOL   C29728171   6.037   3.776   5.549  0.2575  0.0583  0.6030
   78MOL   H29828172   5.976   4.269   6.031 -0.0638 -1.3169  1.4656
   78MOL   H29928173   5.961   4.121   5.929  3.0007 -2.6574  0.4447
   78MOL   H30028174   6.103   4.382   5.847  1.1535 -0.4721 -1.3141
   78MOL   H30128175   5.950   4.015   5.497  2.4772  1.4220 -2.6115
   78MOL   H30228176   6.120   4.057   5.522  0.0820  1.4820 -0.4858
   78MOL   H30328177   6.114   3.881   5.716  0.3354 -0.3861  0.0488
   78MOL   H30428178   5.941   3.884   5.701 -0.9262 -1.0523 -2.3796
   78MOL   H30528179   5.949   3.775   5.485  0.0182  0.0567  0.9319
   78MOL   H30628180   6.057   3.682   5.601  2.2437 -0.0970 -0.4182
   78MOL   H30728181   6.119   3.788   5.479  2.0244  0.0996  2.6385
   78MOL   C30828182   5.889   4.380   5.808  0.2475 -0.4017  0.0754
   78MOL   C30928183   5.881   4.448   5.670  0.1434  0.0864  0.3839
   78MOL   C31028184   5.729   4.466   5.628 -0.3091 -0.0307  0.1854
   78MOL   O31128185   5.670   4.378   5.562  0.2054 -0.1289 -0.0268
   78MOL   O31228186   5.673   4.580   5.674 -0.2077  0.0635  0.4738
   78MOL   C31328187   5.537   4.607   5.658  0.2529 -0.1291  0.7462
   78MOL   C31428188   5.482   4.665   5.784  0.0728 -0.7601 -1.1361
   78MOL   C31528189   5.485   4.572   5.910  0.4398  0.0031 -0.8466
   78MOL   H31628190   5.874   4.443   5.895 -1.0682 -1.2208  0.4508
   78MOL   H31728191   5.808   4.307   5.804  1.8651 -2.1290 -3.0715
   78MOL   H31828192   5.923   4.382   5.594 -0.5507  0.6620 -0.5097
   78MOL   H31928193   5.537   4.686   5.582 -0.3870 -0.4332  0.4250
   78MOL   H32028194   5.474   4.523   5.629 -0.6137  0.9230 -0.5597
   78MOL   H32128195   5.544   4.753   5.802  0.2176 -0.8265 -1.3037
   78MOL   H32228196   5.382   4.707   5.781  0.2477 -0.1817  0.6494
   78MOL   H32328197   5.576   4.512   5.914  1.7541  1.7755 -2.7912
   78MOL   H32428198   5.491   4.619   6.008  1.4749 -0.6782 -0.5813
   78MOL   H32528199   5.406   4.497   5.909 -0.4485  0.9333 -1.1422
   78MOL   C32628200   5.956   4.582   5.665 -0.3614  0.0115  0.1216
   78MOL   C32728201   6.013   4.620   5.532  0.0413 -0.0403  0.8054
   78MOL   C32828202   5.902   4.662   5.432 -0.9712 -0.1822  0.4621
   78MOL   O32928203   5.826   4.758   5.432  0.0889  0.4887 -0.0549
   78MOL   O33028204   5.904   4.577   5.326  0.4565  0.2973 -0.0287
   78MOL   C33128205   5.837   4.608   5.210 -0.1020  0.3693  0.2609
   78MOL   C33228206   5.924   4.655   5.090 -0.8374  0.2210 -0.3823
   78MOL   C33328207   6.027   4.554   5.042  0.7593  0.2287  0.1409
   78MOL   H33428208   6.043   4.571   5.730  1.2997 -1.9335 -2.3328
   78MOL   H33528209   5.894   4.657   5.715  1.1860  0.3864  1.5271
   78MOL   H33628210   6.057   4.530   5.489  0.7242  0.6601  0.0052
   78MOL   H33728211   5.781   4.519   5.181  0.8667  0.0817 -0.7482
   78MOL   H33828212   5.762   4.687   5.222  0.3060  1.3774 -3.2292
   78MOL   H33928213   5.856   4.681   5.009  1.4385  2.2132 -1.7281
   78MOL   H34028214   5.973   4.748   5.121  1.7391 -0.8586 -1.0498
   78MOL   H34128215   6.088   4.533   5.130  1.1017  2.8239  0.5748
   78MOL   H34228216   5.989   4.455   5.018 -1.1034  1.3981 -1.9387
   78MOL   H34328217   6.090   4.587   4.959 -0.4072 -0.6967 -1.1354
   78MOL   C34428218   6.119   4.732   5.532  0.2283 -0.0404  0.0555
   78MOL   C34528219   6.186   4.779   5.400  0.7047 -0.1460 -0.0878
   78MOL   C34628220   6.315   4.695   5.392 -0.0563 -0.0668 -0.2452
   78MOL   O34728221   6.423   4.739   5.426 -0.1929 -0.3835  0.0329
   78MOL   O34828222   6.291   4.570   5.356  0.2504  0.1389  0.2075
   78MOL   C34928223   6.392   4.478   5.327  0.8665 -1.2592 -0.7232
   78MOL   C35028224   6.331   4.387   5.224 -0.3402 -0.8840 -0.0866
   78MOL   C35128225   6.214   4.312   5.288 -0.5278 -0.6897 -0.4814
   78MOL   H35228226   6.203   4.711   5.599  3.1723 -3.0671 -4.3286
   78MOL   H35328227   6.072   4.818   5.581 -0.2834 -0.3899  0.1909
   78MOL   H35428228   6.215   4.884   5.401 -3.2580  1.0069 -0.0895
   78MOL   H35528229   6.485   4.527   5.299  1.0226 -0.7934  0.5518
   78MOL   H35628230   6.420   4.430   5.421  0.4860  2.2369  1.2744
   78MOL   H35728231   6.295   4.430   5.131 -2.9419 -0.4594  1.0770
   78MOL   H35828232   6.404   4.315   5.186  0.5063 -0.6571  1.1061
   78MOL   H35928233   6.187   4.236   5.215 -0.7486  0.0363 -1.1679
   78MOL   H36028234   6.236   4.264   5.384 -0.8926 -0.8528 -0.4806
   78MOL   H36128235   6.134   4.385   5.298  0.0776 -0.0437 -0.3160
   78MOL   H36228236   6.123   4.766   5.312  0.4160 -0.6251  0.1823
   79MOL     C128237   3.833   1.217   0.111  0.1186  0.6172  0.4206
   79MOL     C228238   3.979   1.235   0.130 -0.3175 -0.1118 -0.2381
   79MOL     C328239   4.016   1.386   0.122  0.2955  0.2180  0.5258
   79MOL     O428240   3.938   1.475   0.154 -0.3921  0.6051 -0.4018
   79MOL     O528241   4.144   1.402   0.080 -0.5031  0.2184  0.4732
   79MOL     C628242   4.191   1.538   0.058  0.2594 -0.3131 -0.1540
   79MOL     C728243   4.330   1.523   7.869  0.1477  0.7148 -0.1523
   79MOL     C828244   4.317   1.449   7.735 -0.0894 -0.1442 -0.4461
   79MOL     H928245   3.793   1.233   0.011  0.3983  1.3570  0.4193
   79MOL    H1028246   3.806   1.116   0.141  0.4126  0.2415 -0.5910
   79MOL    H1128247   4.036   1.188   0.049 -0.5521 -1.5942  0.4420
   79MOL    H1228248   4.123   1.591   7.871 -1.6289 -0.6608  1.4217
   79MOL    H1328249   4.195   1.584   0.156 -0.6628 -1.2577  0.3448
   79MOL    H1428250   4.376   1.620   7.847 -0.1736  1.1000  0.8636
   79MOL    H1528251   4.401   1.480   0.059 -1.4853 -0.1064  1.0383
   79MOL    H1628252   4.220   1.472   7.691 -1.4429 -2.5799  1.1274
   79MOL    H1728253   4.403   1.463   7.669 -0.1609  1.3863 -0.2349
   79MOL    H1828254   4.322   1.340   7.741 -0.5968 -0.1732 -0.5196
   79MOL    H1928255   3.768   1.285   0.166  0.6203  0.0606  1.7437
   79MOL    C2028256   4.024   1.175   0.265 -0.6272 -0.0355  0.0368
   79MOL    C2128257   4.044   1.019   0.282  0.1695  0.2627 -0.2297
   79MOL    C2228258   4.162   0.968   0.192  0.5369  0.3158  0.1576
   79MOL    O2328259   4.139   0.891   0.105  0.4971 -0.0347  0.0091
   79MOL    O2428260   4.288   1.008   0.225  0.0882  0.1315 -0.1252
   79MOL    C2528261   4.396   0.955   0.151  0.1096  0.9659 -0.0860
   79MOL    C2628262   4.523   1.049   0.163 -0.3369  0.8618  0.2696
   79MOL    C2728263   4.495   1.190   0.103 -0.0991 -0.2845  0.0949
   79MOL    H2828264   3.954   1.221   0.335 -1.0738  2.3880 -1.9609
   79MOL    H2928265   4.116   1.220   0.301 -0.2638 -1.4315  0.8962
   79MOL    H3028266   3.955   0.963   0.252  0.9663 -0.3731 -1.4504
   79MOL    H3128267   4.417   0.859   0.198 -0.8074 -0.6742 -2.9120
   79MOL    H3228268   4.368   0.929   0.049 -0.2908 -1.1198  0.5222
   79MOL    H3328269   4.544   1.068   0.268  5.2720 -0.0042 -0.5846
   79MOL    H3428270   4.607   0.994   0.122 -0.7469 -0.1284  0.7518
   79MOL    H3528271   4.574   1.259   0.132 -0.2942 -0.7584  1.8175
   79MOL    H3628272   4.400   1.237   0.128 -1.0210 -0.1432 -3.4120
   79MOL    H3728273   4.488   1.186   7.875  1.9927 -1.0302 -0.0255
   79MOL    C3828274   4.067   0.970   0.434 -0.1592 -0.6874 -0.4155
   79MOL    C3928275   3.960   0.992   0.543 -0.1406  0.8811  0.6269
   79MOL    C4028276   3.866   0.875   0.545  0.0624  0.2215 -0.1070
   79MOL    O4128277   3.871   0.793   0.637 -0.3903  0.3849 -0.0359
   79MOL    O4228278   3.788   0.864   0.433 -0.1097  0.0944 -0.6647
   79MOL    C4328279   3.708   0.753   0.408 -0.4047  0.1061  0.4852
   79MOL    C4428280   3.798   0.633   0.351  0.4769 -0.8581 -0.1190
   79MOL    C4528281   3.837   0.668   0.206 -0.1156  0.2973 -0.0838
   79MOL    H4628282   4.157   1.022   0.467 -0.9757  0.9090 -0.6661
   79MOL    H4728283   4.091   0.864   0.427 -3.1795 -1.3459 -1.6847
   79MOL    H4828284   3.897   1.078   0.521 -0.4336  0.4705 -0.1779
   79MOL    H4928285   3.648   0.737   0.498  1.9404 -2.9814  1.5994
   79MOL    H5028286   3.637   0.769   0.327  0.3745  0.9275 -0.0481
   79MOL    H5128287   3.891   0.620   0.405  2.0343  2.4007 -1.8623
   79MOL    H5228288   3.731   0.546   0.350  0.1379 -0.6094  0.8660
   79MOL    H5328289   3.900   0.587   0.171  0.5084  0.9851 -0.5634
   79MOL    H5428290   3.892   0.762   0.205 -0.7430  0.6607 -1.6228
   79MOL    H5528291   3.748   0.691   0.146  0.0795  1.0177 -0.1045
   79MOL    C5628292   4.025   1.010   0.685 -0.4387 -0.0199  0.0430
   79MOL    C5728293   4.093   1.154   0.708  0.0321  0.0086 -0.2012
   79MOL    C5828294   3.998   1.269   0.690 -0.5102 -1.1444  0.4047
   79MOL    O5928295   3.907   1.290   0.772 -0.0430  1.1401  0.4072
   79MOL    O6028296   4.034   1.344   0.585  0.7456 -0.3976 -0.4287
   79MOL    C6128297   3.961   1.458   0.559 -0.5415 -0.6608 -0.0711
   79MOL    C6228298   3.995   1.582   0.636  0.0704  0.1328 -0.0170
   79MOL    C6328299   4.134   1.638   0.592 -0.6682  0.5299  0.8539
   79MOL    H6428300   4.086   0.923   0.712 -1.0802 -0.4551  0.0988
   79MOL    H6528301   3.939   0.997   0.750  0.4965 -0.2089  1.2665
   79MOL    H6628302   4.167   1.166   0.629  0.6864 -1.9460  0.0869
   79MOL    H6728303   3.976   1.474   0.452 -0.7318 -1.5070 -0.2268
   79MOL    H6828304   3.854   1.436   0.565 -0.4732 -0.8667  0.3604
   79MOL    H6928305   3.916   1.657   0.630 -0.8165 -0.8731 -1.2366
   79MOL    H7028306   3.996   1.567   0.743 -2.2753  4.1625  0.6758
   79MOL    H7128307   4.151   1.740   0.628 -2.1887  0.7801  0.9117
   79MOL    H7228308   4.147   1.643   0.484 -0.8117 -1.5595  0.7325
   79MOL    H7328309   4.215   1.576   0.629 -1.3561 -0.2364  1.0878
   79MOL    C7428310   4.176   1.134   0.840  0.6817  0.0983 -1.1771
   79MOL    C7528311   4.282   1.239   0.875 -0.3662  0.4057 -0.0004
   79MOL    C7628312   4.392   1.260   0.775 -0.4635  0.3690  0.1907
   79MOL    O7728313   4.497   1.201   0.783  0.4063  0.1988 -0.4170
   79MOL    O7828314   4.356   1.351   0.684  0.4318 -0.0827  0.2794
   79MOL    C7928315   4.449   1.386   0.587 -0.3329 -0.2947  0.0738
   79MOL    C8028316   4.417   1.318   0.444  0.6878 -0.4304 -0.4263
   79MOL    C8128317   4.315   1.404   0.371  0.2385  0.2644 -0.1168
   79MOL    H8228318   4.214   1.032   0.839  1.9288  0.5133  0.9203
   79MOL    H8328319   4.099   1.128   0.917 -0.8929  0.3425 -2.7181
   79MOL    H8428320   4.327   1.205   0.968 -2.1069 -1.0634  0.3434
   79MOL    H8528321   4.466   1.493   0.588 -1.4357 -0.0937 -1.0961
   79MOL    H8628322   4.548   1.354   0.618 -0.3471 -0.1028  0.3133
   79MOL    H8728323   4.514   1.314   0.395  0.8419  0.6407 -0.2038
   79MOL    H8828324   4.371   1.219   0.446  0.3440 -0.2999 -1.3307
   79MOL    H8928325   4.342   1.509   0.371 -2.4824  1.0231  0.6575
   79MOL    H9028326   4.217   1.391   0.417 -0.0122  0.2948 -0.6312
   79MOL    H9128327   4.312   1.378   0.265 -0.0966  0.3890 -0.1402
   79MOL    C9228328   4.218   1.376   0.924 -0.3239 -0.1233 -0.2051
   79MOL    C9328329   4.314   1.487   0.973  0.3600  0.4447 -0.4311
   79MOL    C9428330   4.273   1.628   0.937 -0.4342  1.2316 -0.7131
   79MOL    O9528331   4.350   1.716   0.888 -0.4721  0.5141  0.1433
   79MOL    O9628332   4.150   1.651   0.969  0.3189  0.2108  0.6028
   79MOL    C9728333   4.111   1.779   1.012  0.0933 -0.0985 -0.1620
   79MOL    C9828334   4.123   1.800   1.159  0.0745 -0.0817 -0.4503
   79MOL    C9928335   4.076   1.932   1.215  0.7856 -0.0581 -0.0169
   79MOL   H10028336   4.153   1.347   1.006 -2.1836 -1.0417 -1.9577
   79MOL   H10128337   4.152   1.419   0.850 -0.8204  0.1021  0.3690
   79MOL   H10228338   4.413   1.473   0.929  1.2157  0.4780  1.4524
   79MOL   H10328339   4.178   1.846   0.958 -0.5631 -0.3130 -1.2460
   79MOL   H10428340   4.007   1.801   0.989  0.5564  2.7526  0.2897
   79MOL   H10528341   4.059   1.724   1.204 -0.7773  1.0962  0.3851
   79MOL   H10628342   4.225   1.786   1.193 -0.0430 -1.5328 -0.6911
   79MOL   H10728343   3.968   1.929   1.230  0.7245  0.5981 -0.3189
   79MOL   H10828344   4.108   2.008   1.143  0.2545 -0.9087 -1.1826
   79MOL   H10928345   4.115   1.949   1.315  0.6000  0.9326 -0.1055
   79MOL   C11028346   4.338   1.479   1.132 -0.0857 -0.3352 -0.9522
   79MOL   C11128347   4.461   1.547   1.191 -0.7637  0.0223  0.1283
   79MOL   C11228348   4.453   1.546   1.344 -0.8226 -0.0694 -0.4743
   79MOL   O11328349   4.492   1.639   1.413  0.6862 -0.3142 -0.8247
   79MOL   O11428350   4.398   1.428   1.392  0.1250 -0.0244  0.0747
   79MOL   C11528351   4.402   1.400   1.534 -0.1244  0.6266  0.1994
   79MOL   C11628352   4.300   1.298   1.584  0.1392 -0.2234 -0.0752
   79MOL   C11728353   4.312   1.272   1.737 -0.0775 -0.1289 -0.1423
   79MOL   H11828354   4.334   1.373   1.155 -0.2705 -0.5766 -2.0420
   79MOL   H11928355   4.254   1.524   1.185 -0.5487  0.0866 -2.0127
   79MOL   H12028356   4.463   1.651   1.158  0.6255 -0.6566 -2.0723
   79MOL   H12128357   4.503   1.363   1.551  0.3866  1.3410 -1.1847
   79MOL   H12228358   4.386   1.493   1.589  0.2884  1.5796 -1.2474
   79MOL   H12328359   4.197   1.332   1.570  0.0841 -0.3622 -0.0093
   79MOL   H12428360   4.319   1.208   1.526  0.8161 -0.6897  0.8529
   79MOL   H12528361   4.296   1.367   1.789 -1.1414  0.8750 -2.2747
   79MOL   H12628362   4.415   1.258   1.770  1.0210  1.8772 -2.5860
   79MOL   H12728363   4.250   1.190   1.774 -0.1202 -0.5178 -1.0608
   79MOL   C12828364   4.591   1.495   1.134  0.3137  0.0946 -0.3633
   79MOL   C12928365   4.643   1.576   1.003  0.0073  0.0255  0.6669
   79MOL   C13028366   4.730   1.698   1.040 -0.2626  0.2831 -0.1942
   79MOL   O13128367   4.693   1.815   1.023 -0.4248 -0.0390 -0.2080
   79MOL   O13228368   4.859   1.668   1.075  0.2595 -0.1153 -0.0957
   79MOL   C13328369   4.954   1.759   1.119  0.2721  0.3598 -0.4934
   79MOL   C13428370   5.083   1.687   1.163  0.4671  0.4655 -0.2778
   79MOL   C13528371   5.160   1.616   1.055 -0.0117  0.3082 -0.3835
   79MOL   H13628372   4.587   1.388   1.115  0.1008 -0.1403  0.9730
   79MOL   H13728373   4.668   1.520   1.207 -0.2318 -2.7501  1.2609
   79MOL   H13828374   4.552   1.630   0.975  0.0024  0.3704  1.3370
   79MOL   H13928375   4.976   1.844   1.055  0.2412  0.3470 -0.5211
   79MOL   H14028376   4.899   1.801   1.203  2.0201  0.3345  0.6939
   79MOL   H14128377   5.135   1.769   1.213  2.8838  0.9499 -3.4325
   79MOL   H14228378   5.061   1.611   1.239 -1.0135  0.6281 -0.5339
   79MOL   H14328379   5.256   1.577   1.088 -0.0906  0.2073 -0.2733
   79MOL   H14428380   5.174   1.682   0.969 -0.1091 -1.0439 -1.4637
   79MOL   H14528381   5.102   1.534   1.011 -1.2432  0.4864  0.8606
   79MOL   C14628382   4.693   1.483   0.884 -0.0191  0.4813  0.0140
   79MOL   C14728383   4.827   1.412   0.897 -0.7864 -0.5923  0.0289
   79MOL   C14828384   4.834   1.322   1.027  0.2330  0.1660  0.4783
   79MOL   O14928385   4.908   1.352   1.121  0.0053 -0.2897 -0.1670
   79MOL   O15028386   4.753   1.217   1.018 -0.6032 -0.2282 -0.5527
   79MOL   C15128387   4.747   1.127   1.134  0.8492  0.7254 -0.3318
   79MOL   C15228388   4.645   1.012   1.134  0.0911 -0.1584  0.1966
   79MOL   C15328389   4.506   1.064   1.135  0.5175  0.4456  0.1563
   79MOL   H15428390   4.708   1.548   0.797  0.6951 -1.9917 -1.7467
   79MOL   H15528391   4.614   1.409   0.869  1.0693 -1.4535  3.3511
   79MOL   H15628392   4.898   1.493   0.914  0.2966 -1.8159  1.4609
   79MOL   H15728393   4.846   1.087   1.156  0.7573  1.2718  1.1149
   79MOL   H15828394   4.736   1.192   1.221 -1.9422 -0.4106  0.2115
   79MOL   H15928395   4.654   0.940   1.053  0.8379 -0.8223  0.8523
   79MOL   H16028396   4.688   0.961   1.220  0.7700 -3.1209 -1.8446
   79MOL   H16128397   4.494   1.152   1.199  0.1368 -0.5054  1.3974
   79MOL   H16228398   4.430   0.992   1.165  1.7538 -1.2945 -0.8619
   79MOL   H16328399   4.486   1.097   1.033  0.8647  1.0054  0.2656
   79MOL   C16428400   4.869   1.330   0.775 -0.3036 -0.1822  0.5204
   79MOL   C16528401   4.902   1.421   0.651  0.0739 -0.5067  0.0051
   79MOL   C16628402   5.028   1.503   0.663  0.5076  0.0431 -0.1117
   79MOL   O16728403   5.026   1.627   0.644 -0.1331  0.0814  0.4464
   79MOL   O16828404   5.137   1.430   0.714 -0.0653 -0.2299  0.4577
   79MOL   C16928405   5.263   1.502   0.741  0.7935 -0.3837  0.3564
   79MOL   C17028406   5.367   1.463   0.634  0.8515  0.3099  0.3104
   79MOL   C17128407   5.325   1.508   0.499 -0.7670 -0.2359 -0.0352
   79MOL   H17228408   4.782   1.269   0.750  0.0721 -1.6006  2.5094
   79MOL   H17328409   4.946   1.256   0.798 -0.5563 -0.6474 -0.1105
   79MOL   H17428410   4.816   1.488   0.642 -1.3978 -2.1386  1.4024
   79MOL   H17528411   5.244   1.609   0.743 -1.0616 -0.6500 -1.5708
   79MOL   H17628412   5.306   1.495   0.841  1.6879  2.0481  0.1723
   79MOL   H17728413   5.464   1.507   0.657  0.5503 -0.0079  2.3431
   79MOL   H17828414   5.376   1.354   0.643  0.3700  0.1809 -0.7953
   79MOL   H17928415   5.407   1.487   0.430 -0.7161  0.6788 -0.2530
   79MOL   H18028416   5.297   1.613   0.508  1.1867  0.2255  0.8410
   79MOL   H18128417   5.236   1.456   0.463 -1.5856  1.8722 -1.1172
   79MOL   C18228418   4.922   1.339   0.524  0.6103  0.3922  0.3284
   79MOL   C18328419   4.903   1.417   0.390 -0.3875  0.0937  0.3810
   79MOL   C18428420   4.956   1.322   0.281  0.0166 -0.2547  0.0546
   79MOL   O18528421   5.067   1.341   0.237  0.4913  0.2477 -0.0569
   79MOL   O18628422   4.875   1.219   0.244 -0.0463 -0.7419  0.3347
   79MOL   C18728423   4.903   1.145   0.127  0.7462 -0.4877  0.6331
   79MOL   C18828424   4.921   1.000   0.178  0.0563 -0.4425 -0.0130
   79MOL   C18928425   5.055   0.974   0.253  0.0625  0.1970 -0.0711
   79MOL   H19028426   4.847   1.260   0.526  0.7181  0.3266  1.8031
   79MOL   H19128427   5.014   1.283   0.542  0.5223 -0.2806 -1.2015
   79MOL   H19228428   4.978   1.496   0.390  0.0997 -0.3143  2.9319
   79MOL   H19328429   4.835   1.171   0.047 -0.1044 -0.6895  1.2782
   79MOL   H19428430   4.996   1.171   0.076 -0.3420 -0.8999 -1.6221
   79MOL   H19528431   4.829   0.971   0.228 -0.8676  1.0842 -0.7815
   79MOL   H19628432   4.927   0.940   0.087  1.1768 -0.8461  0.3186
   79MOL   H19728433   5.048   1.022   0.350  0.1682 -0.9041  0.4902
   79MOL   H19828434   5.131   1.029   0.197  0.2924  1.8278  1.7953
   79MOL   H19928435   5.073   0.867   0.266 -1.3011 -0.0635 -0.2782
   79MOL   C20028436   4.761   1.482   0.361 -0.6691 -0.6485  0.2345
   79MOL   C20128437   4.758   1.596   0.256  0.3906 -0.3892  0.4200
   79MOL   C20228438   4.844   1.577   0.132 -1.1849 -0.2412  0.1972
   79MOL   O20328439   4.817   1.488   0.049 -0.4920  0.1143  0.0025
   79MOL   O20428440   4.955   1.655   0.128  0.4556  0.5599  0.5347
   79MOL   C20528441   5.042   1.640   0.018 -0.3145  0.1691 -0.2304
   79MOL   C20628442   5.172   1.724   0.036 -1.0976 -0.3689 -0.0186
   79MOL   C20728443   5.256   1.676   0.150 -0.0900  0.4402  0.2454
   79MOL   H20828444   4.718   1.524   0.453  1.6222  0.0388  1.0200
   79MOL   H20928445   4.698   1.396   0.337 -1.2826  0.1167 -0.9406
   79MOL   H21028446   4.810   1.678   0.305 -0.6747  1.2880 -1.1685
   79MOL   H21128447   5.073   1.535   0.017  0.2675  0.3103  1.4826
   79MOL   H21228448   4.989   1.664   7.806 -1.2119  1.8546  0.7192
   79MOL   H21328449   5.231   1.716   7.825 -0.7477 -0.5121  0.2219
   79MOL   H21428450   5.147   1.829   0.051 -0.3574  0.1533 -2.1788
   79MOL   H21528451   5.333   1.750   0.172  0.0725 -0.0328  1.2897
   79MOL   H21628452   5.303   1.582   0.121  1.2404  1.0547  0.3699
   79MOL   H21728453   5.196   1.668   0.240 -1.4424 -0.8320 -0.7499
   79MOL   C21828454   4.615   1.635   0.207  0.8492  0.0135 -0.2488
   79MOL   C21928455   4.557   1.769   0.263  0.3487 -0.0118 -0.1199
   79MOL   C22028456   4.542   1.770   0.416 -0.3713  0.0745 -0.3043
   79MOL   O22128457   4.440   1.719   0.468  0.1851  0.0249 -0.0844
   79MOL   O22228458   4.643   1.831   0.478 -0.2996  0.0129 -0.5499
   79MOL   C22328459   4.642   1.814   0.619  0.3342  0.3388  0.0052
   79MOL   C22428460   4.780   1.865   0.678 -0.5836  0.4112  0.1645
   79MOL   C22528461   4.794   2.018   0.673 -0.1507  0.0993 -0.0299
   79MOL   H22628462   4.552   1.552   0.239  1.8263 -0.3118  0.9059
   79MOL   H22728463   4.595   1.622   0.101  1.3861 -0.5875 -0.2831
   79MOL   H22828464   4.458   1.785   0.220 -0.5520  1.2541  2.3137
   79MOL   H22928465   4.562   1.878   0.657 -1.6034 -1.2894 -1.1998
   79MOL   H23028466   4.615   1.712   0.648 -0.4836  0.3345 -0.7639
   79MOL   H23128467   4.796   1.829   0.779 -0.1490  0.9933  0.3010
   79MOL   H23228468   4.852   1.807   0.620 -0.2540 -0.3214  1.3065
   79MOL   H23328469   4.786   2.041   0.567 -1.2068 -1.2113 -0.2548
   79MOL   H23428470   4.890   2.051   0.711 -0.6106 -2.4983  3.6999
   79MOL   H23528471   4.714   2.065   0.730  0.5218 -0.5980  1.5498
   79MOL   C23628472   4.636   1.893   0.222 -0.2522  0.1386 -0.1644
   79MOL   C23728473   4.635   1.905   0.068  0.7308 -0.0706  0.6890
   79MOL   C23828474   4.507   1.980   0.028  0.4952 -0.5480 -0.1403
   79MOL   O23928475   4.422   1.929   7.836  0.1552 -0.0641 -0.0671
   79MOL   O24028476   4.496   2.100   0.083 -0.3964  0.0145  0.1943
   79MOL   C24128477   4.391   2.192   0.043 -0.3999  0.0645 -0.4798
   79MOL   C24228478   4.445   2.294   7.826  0.5303 -0.2968 -0.2339
   79MOL   C24328479   4.570   2.377   7.867 -0.5852 -0.0728  0.3831
   79MOL   H24428480   4.736   1.888   0.265 -1.5173 -0.6387  2.7840
   79MOL   H24528481   4.597   1.986   0.264  0.7579 -0.0098  1.1289
   79MOL   H24628482   4.615   1.809   0.022 -1.0862  0.5999  0.0180
   79MOL   H24728483   4.294   2.150   0.018  0.4002 -1.4321 -1.1832
   79MOL   H24828484   4.362   2.244   0.133  1.4052  1.8067 -0.8815
   79MOL   H24928485   4.470   2.245   7.732 -1.1830  0.7831 -1.2912
   79MOL   H25028486   4.371   2.369   7.797 -0.0071 -1.7562 -2.8136
   79MOL   H25128487   4.587   2.449   7.787  0.8700 -1.1158 -0.2530
   79MOL   H25228488   4.658   2.315   7.878  0.8393  1.8818  0.2564
   79MOL   H25328489   4.566   2.430   0.082 -0.8292 -1.4549  1.1558
   79MOL   C25428490   4.757   1.979   0.020  0.0050 -0.8052  0.9671
   79MOL   C25528491   4.778   2.013   7.752  0.4309  0.0939 -0.2375
   79MOL   C25628492   4.875   2.128   7.730  0.1779  0.3207  0.2300
   79MOL   O25728493   4.951   2.159   7.819 -0.1774  0.4277  0.0106
   79MOL   O25828494   4.860   2.195   7.613  0.3007 -0.0526 -0.5877
   79MOL   C25928495   4.945   2.309   7.576  0.0494  0.1186 -0.2858
   79MOL   C26028496   4.953   2.283   7.425  0.0928 -0.0520 -0.3503
   79MOL   C26128497   5.009   2.396   7.344 -0.0271  0.6986 -0.3996
   79MOL   H26228498   4.834   1.906   0.043 -0.2172 -1.5640 -0.6474
   79MOL   H26328499   4.766   2.073   0.075 -2.2725 -0.7139  1.2638
   79MOL   H26428500   4.681   2.052   7.722  1.5759  1.5937 -2.0753
   79MOL   H26528501   4.892   2.401   7.600 -1.3292 -1.2495  2.1280
   79MOL   H26628502   5.049   2.310   7.608  0.2210 -1.3113 -0.7451
   79MOL   H26728503   5.017   2.197   7.409  0.2552  0.2935 -1.5837
   79MOL   H26828504   4.853   2.262   7.388  0.8812 -0.1189 -2.5106
   79MOL   H26928505   4.967   2.493   7.371  0.7701  1.0516 -0.4420
   79MOL   H27028506   5.001   2.383   7.236 -2.5288  1.1669 -0.2970
   79MOL   H27128507   5.114   2.405   7.372  0.3552 -0.4478 -1.4322
   79MOL   C27228508   4.811   1.881   7.667  0.2877  0.6692  0.0431
   79MOL   C27328509   4.813   1.889   7.515  0.2305 -0.8186 -0.3316
   79MOL   C27428510   4.948   1.857   7.448  0.4900  0.0154  0.0301
   79MOL   O27528511   5.013   1.757   7.484 -0.0976  0.1614 -0.0523
   79MOL   O27628512   4.980   1.937   7.351 -0.3306 -0.7350 -0.0955
   79MOL   C27728513   5.094   1.908   7.268 -0.3592  0.9671  0.4157
   79MOL   C27828514   5.117   2.021   7.171 -0.3178 -0.5553  0.1835
   79MOL   C27928515   5.054   1.994   7.035  0.4786 -0.4645 -0.2463
   79MOL   H28028516   4.736   1.808   7.695 -0.1925  1.2980  0.3873
   79MOL   H28128517   4.911   1.850   7.699 -0.4409 -0.8046  0.9004
   79MOL   H28228518   4.799   1.991   7.478 -0.7449  0.2578  2.8592
   79MOL   H28328519   5.179   1.890   7.334 -0.4402  2.3989  0.9194
   79MOL   H28428520   5.075   1.821   7.206 -0.7371  0.5416  1.1128
   79MOL   H28528521   5.082   2.114   7.216 -0.0408  0.4195 -1.5625
   79MOL   H28628522   5.226   2.029   7.169 -0.4715  1.9384 -0.5480
   79MOL   H28728523   5.064   2.075   6.962 -3.4192  0.8212  0.5310
   79MOL   H28828524   4.949   1.972   7.051 -0.0880  1.2394 -1.3878
   79MOL   H28928525   5.097   1.906   6.987 -1.3913 -1.7565  0.3929
   79MOL   C29028526   4.703   1.804   7.448  0.0244  0.1480 -0.0122
   79MOL   C29128527   4.558   1.847   7.472 -0.0186  0.6307  0.0364
   79MOL   C29228528   4.542   1.999   7.451  0.6922 -0.6548  0.3859
   79MOL   O29328529   4.517   2.075   7.548  0.0523 -0.4830  0.2376
   79MOL   O29428530   4.581   2.034   7.328 -0.8339  0.2974  0.4722
   79MOL   C29528531   4.585   2.167   7.284  0.6133  0.1137  0.3645
   79MOL   C29628532   4.632   2.173   7.136 -0.1399 -0.5252  0.2091
   79MOL   C29728533   4.787   2.197   7.133 -0.4142 -0.5978  0.2588
   79MOL   H29828534   4.707   1.700   7.481 -1.8404 -0.2721 -1.0721
   79MOL   H29928535   4.718   1.816   7.341  0.0407 -2.1683 -0.3024
   79MOL   H30028536   4.531   1.823   7.575 -2.5991  0.1640 -0.7185
   79MOL   H30128537   4.483   2.202   7.295  0.0042 -1.4319 -0.2267
   79MOL   H30228538   4.644   2.218   7.360  0.6871 -1.1765  1.1984
   79MOL   H30328539   4.599   2.087   7.078 -3.3888 -0.3443  1.6771
   79MOL   H30428540   4.590   2.262   7.088  0.3836 -0.7200 -0.6165
   79MOL   H30528541   4.843   2.127   7.194  0.2715 -0.9357 -0.7576
   79MOL   H30628542   4.806   2.302   7.155  0.1804 -0.6082 -0.2055
   79MOL   H30728543   4.824   2.196   7.030  1.9618  1.6419  1.0399
   79MOL   C30828544   4.452   1.778   7.389  0.1323 -0.0721 -0.0135
   79MOL   C30928545   4.303   1.832   7.417  0.2983 -0.0253 -0.1006
   79MOL   C31028546   4.202   1.760   7.325  0.3394 -0.2271 -0.0986
   79MOL   O31128547   4.115   1.826   7.268 -0.1270 -0.0627  0.3822
   79MOL   O31228548   4.205   1.624   7.321  0.1300 -0.4772 -0.1688
   79MOL   C31328549   4.112   1.538   7.251  0.2033  0.8166 -0.2073
   79MOL   C31428550   4.188   1.422   7.190 -0.1990 -0.0638 -0.3852
   79MOL   C31528551   4.252   1.330   7.299 -0.8039  0.1088 -0.0828
   79MOL   H31628552   4.442   1.671   7.401  0.4506 -0.3771 -2.3200
   79MOL   H31728553   4.472   1.794   7.283  1.2133  0.3432  0.2394
   79MOL   H31828554   4.295   1.937   7.387  2.2430 -0.9127 -4.0698
   79MOL   H31928555   4.036   1.493   7.315  0.0253 -0.0391 -0.9999
   79MOL   H32028556   4.066   1.599   7.173 -1.7974  1.4475  1.4200
   79MOL   H32128557   4.121   1.371   7.121 -1.0161 -2.1172  1.8538
   79MOL   H32228558   4.279   1.459   7.144 -0.2177 -0.6131 -0.8564
   79MOL   H32328559   4.305   1.248   7.250 -0.5561  0.0062  0.3557
   79MOL   H32428560   4.334   1.371   7.358  0.6377 -1.0197 -1.2458
   79MOL   H32528561   4.176   1.293   7.367 -1.3689 -0.1207 -0.8347
   79MOL   C32628562   4.248   1.832   7.560 -0.1746  0.3475  0.1812
   79MOL   C32728563   4.117   1.901   7.593  0.6526  0.0315 -0.4106
   79MOL   C32828564   4.029   1.807   7.676 -0.6104  0.8305  0.0399
   79MOL   O32928565   4.012   1.815   7.797 -0.0307  0.3432  0.3960
   79MOL   O33028566   3.977   1.705   7.602  0.4247 -0.6871  0.0687
   79MOL   C33128567   3.867   1.641   7.658  0.4158  0.3221 -0.2126
   79MOL   C33228568   3.831   1.514   7.571  0.2720 -0.6264  1.3075
   79MOL   C33328569   3.695   1.464   7.617 -0.0624  0.2939 -0.2970
   79MOL   H33428570   4.321   1.870   7.631  0.6813  1.6236 -1.3516
   79MOL   H33528571   4.242   1.727   7.590  0.8520  0.5717  1.2216
   79MOL   H33628572   4.055   1.912   7.504 -1.1816  2.2002  1.0889
   79MOL   H33728573   3.898   1.588   7.748 -0.0899  0.3738 -0.0078
   79MOL   H33828574   3.778   1.700   7.679  0.6423  0.4498  0.4267
   79MOL   H33928575   3.830   1.535   7.464  0.5063  0.8203  1.5820
   79MOL   H34028576   3.907   1.436   7.582  1.9045  0.8770  0.8934
   79MOL   H34128577   3.615   1.537   7.607  1.7410  2.3200 -0.2576
   79MOL   H34228578   3.665   1.376   7.560  0.1777 -0.1845  0.3037
   79MOL   H34328579   3.711   1.441   7.722 -1.4936 -0.1174 -0.1611
   79MOL   C34428580   4.139   2.040   7.657 -0.5239  0.0557  0.2692
   79MOL   C34528581   4.014   2.136   7.662 -0.1044  0.3174  0.5219
   79MOL   C34628582   3.948   2.174   7.525  0.3297  0.2147  0.2918
   79MOL   O34728583   3.825   2.161   7.502 -0.2650 -0.7112 -0.0495
   79MOL   O34828584   4.039   2.231   7.441  0.4322 -0.3662 -0.4882
   79MOL   C34928585   4.007   2.291   7.323 -0.6139 -0.5891  0.0767
   79MOL   C35028586   4.140   2.311   7.238  0.3080  0.3730 -0.1152
   79MOL   C35128587   4.202   2.181   7.190 -0.3703  0.1100 -0.2335
   79MOL   H35228588   4.224   2.098   7.619 -0.6670  0.4578  0.5556
   79MOL   H35328589   4.174   2.017   7.758  0.1086  0.0755  0.0607
   79MOL   H35428590   4.033   2.235   7.705 -0.5381  1.1137 -1.0803
   79MOL   H35528591   3.938   2.229   7.264  0.7390 -0.7298 -1.3933
   79MOL   H35628592   3.972   2.394   7.331 -1.2860 -0.8604  0.6485
   79MOL   H35728593   4.130   2.374   7.150  0.5944 -1.6163 -1.6262
   79MOL   H35828594   4.208   2.362   7.306 -0.1622  1.5355 -0.5168
   79MOL   H35928595   4.213   2.120   7.280  1.8262  2.8946  1.4715
   79MOL   H36028596   4.148   2.122   7.116  0.8362 -0.9306 -0.3013
   79MOL   H36128597   4.300   2.201   7.148  0.3990  0.5352  1.6922
   79MOL   H36228598   3.938   2.096   7.728  0.3000  0.9277  1.3725
   80MOL     C128599   4.157   7.690   4.914 -0.3176  0.2525 -0.4843
   80MOL     C228600   4.073   7.566   4.915 -0.2626  0.1589 -0.2792
   80MOL     C328601   3.926   7.604   4.937 -0.2267  0.9756 -0.5388
   80MOL     O428602   3.844   7.603   4.845  0.3954 -0.1501  0.3274
   80MOL     O528603   3.890   7.648   5.062 -0.0905 -0.6881 -0.4264
   80MOL     C628604   3.761   7.676   5.103 -0.1126  0.3264  0.3465
   80MOL     C728605   3.769   7.703   5.245 -0.2696 -0.0128  0.1226
   80MOL     C828606   3.623   7.716   5.300 -0.0080  0.5469 -0.7955
   80MOL     H928607   4.262   7.671   4.891 -0.2973 -0.1933 -0.0425
   80MOL    H1028608   4.113   7.777   4.865 -1.8913 -0.7889 -0.9716
   80MOL    H1128609   4.093   7.497   4.997  1.6481  1.4942  0.4281
   80MOL    H1228610   3.722   7.763   5.051  1.2680  0.4207 -0.5694
   80MOL    H1328611   3.700   7.589   5.079 -0.8036  1.1571 -0.9721
   80MOL    H1428612   3.806   7.618   5.302 -0.3862 -1.3233 -1.7372
   80MOL    H1528613   3.830   7.792   5.263 -0.9529  0.4809  0.0407
   80MOL    H1628614   3.625   7.786   5.384  0.1068  0.1301 -0.4520
   80MOL    H1728615   3.563   7.761   5.221 -1.1226 -0.9730 -0.8280
   80MOL    H1828616   3.577   7.623   5.333  0.4693  0.7519  0.4750
   80MOL    H1928617   4.173   7.719   5.018 -1.9757  1.3356 -0.5169
   80MOL    C2028618   4.083   7.498   4.778  0.1729 -0.9151 -0.1391
   80MOL    C2128619   4.228   7.466   4.722  0.4232  0.0534  0.5979
   80MOL    C2228620   4.302   7.350   4.797 -0.5449 -0.4301 -0.3949
   80MOL    O2328621   4.236   7.267   4.855 -0.0353  0.4609 -0.5754
   80MOL    O2428622   4.429   7.345   4.776  0.2464  0.7307 -0.6015
   80MOL    C2528623   4.515   7.247   4.832 -0.7584 -0.5702 -0.2425
   80MOL    C2628624   4.574   7.288   4.968  0.4133 -0.2723  0.9072
   80MOL    C2728625   4.643   7.164   5.044  0.6158 -0.0120 -0.0499
   80MOL    H2828626   4.045   7.567   4.702 -0.3159 -0.3844  0.5892
   80MOL    H2928627   4.016   7.413   4.763 -0.5765 -0.3227 -0.1473
   80MOL    H3028628   4.290   7.554   4.737  2.7874 -1.7960  2.0407
   80MOL    H3128629   4.462   7.153   4.846 -1.1453 -0.4160 -0.6506
   80MOL    H3228630   4.588   7.222   4.755  0.1883  0.4264  0.3314
   80MOL    H3328631   4.644   7.370   4.950 -0.3616  0.0751 -0.5779
   80MOL    H3428632   4.494   7.336   5.024  0.9394  0.1274  1.3279
   80MOL    H3528633   4.658   7.197   5.147 -2.7303  0.0681  0.4918
   80MOL    H3628634   4.740   7.147   4.998  0.6714  0.1040  0.0250
   80MOL    H3728635   4.585   7.072   5.042 -0.2647  0.4959  1.1134
   80MOL    C3828636   4.223   7.438   4.573  0.1802  0.1706  0.5472
   80MOL    C3928637   4.210   7.563   4.491 -0.1230 -0.4543  0.3243
   80MOL    C4028638   4.335   7.644   4.500 -0.6691 -0.8425 -0.5964
   80MOL    O4128639   4.439   7.588   4.488 -0.3048  0.4129  0.4915
   80MOL    O4228640   4.317   7.780   4.529 -0.1628 -0.3110  0.3702
   80MOL    C4328641   4.426   7.857   4.566  0.0041 -0.4019  0.0256
   80MOL    C4428642   4.409   0.114   4.496 -0.0480 -0.4488 -0.3343
   80MOL    C4528643   4.477   0.113   4.362 -0.4976  0.6060  0.1681
   80MOL    H4628644   4.135   7.379   4.547  0.6111  0.9292 -2.8574
   80MOL    H4728645   4.313   7.380   4.553  0.6565  1.9165 -2.5625
   80MOL    H4828646   4.129   7.627   4.526  0.2615  1.7521 -2.5601
   80MOL    H4928647   4.418   7.856   4.675  0.9873 -1.3307  0.0958
   80MOL    H5028648   4.525   7.814   4.551  0.6112  0.0276  2.5061
   80MOL    H5128649   4.303   0.137   4.487 -0.3953 -1.8351  0.0549
   80MOL    H5228650   4.453   0.198   4.549 -0.4108 -0.9141  0.7236
   80MOL    H5328651   4.428   0.191   4.303 -0.4685  0.3801 -0.1608
   80MOL    H5428652   4.461   0.016   4.316 -2.5865  0.1225  1.8576
   80MOL    H5528653   4.586   0.120   4.368 -0.3409 -0.5351 -1.0004
   80MOL    C5628654   4.183   7.535   4.343 -0.7627 -0.3512 -0.2592
   80MOL    C5728655   4.058   7.456   4.296 -0.0212  0.0705 -0.0106
   80MOL    C5828656   3.929   7.520   4.339 -0.5714  0.2864 -0.3949
   80MOL    O5928657   3.882   7.613   4.277  0.5974 -0.0424 -0.6460
   80MOL    O6028658   3.861   7.462   4.441 -0.1743  0.1065  0.7866
   80MOL    C6128659   3.742   7.516   4.487 -0.2267 -0.0768 -0.4487
   80MOL    C6228660   3.673   7.417   4.572  0.2564  0.5194  0.2593
   80MOL    C6328661   3.595   7.318   4.493  0.5480 -0.0006 -0.3146
   80MOL    H6428662   4.272   7.488   4.302 -0.2099  1.5345 -1.2907
   80MOL    H6528663   4.176   7.633   4.294 -2.5631  0.5568  1.7120
   80MOL    H6628664   4.065   7.360   4.348  2.4926 -0.1730 -0.7408
   80MOL    H6728665   3.778   7.603   4.543 -0.0517 -0.7018  0.4186
   80MOL    H6828666   3.677   7.559   4.411 -3.9061 -0.3543  2.3788
   80MOL    H6928667   3.737   7.356   4.636  0.2677  1.7404  1.4319
   80MOL    H7028668   3.608   7.460   4.649 -0.1193  1.1076 -0.3837
   80MOL    H7128669   3.542   7.255   4.564 -1.0365  2.6437  0.9161
   80MOL    H7228670   3.663   7.262   4.429 -1.8655 -1.1171 -1.9987
   80MOL    H7328671   3.517   7.364   4.432  1.2475 -1.0561 -2.0295
   80MOL    C7428672   4.060   7.427   4.145 -0.1403  0.5848  0.0875
   80MOL    C7528673   3.981   7.309   4.084 -0.3274  0.2353  0.1698
   80MOL    C7628674   4.027   7.172   4.135  0.2869 -0.1067 -0.0932
   80MOL    O7728675   4.087   7.090   4.070 -0.3926 -0.0701  0.5132
   80MOL    O7828676   3.989   7.148   4.264  0.3793  0.3662  0.2467
   80MOL    C7928677   3.994   7.010   4.315  0.2752 -0.3124 -0.9027
   80MOL    C8028678   3.928   7.006   4.457  0.3547  0.7642  0.2372
   80MOL    C8128679   3.994   7.099   4.552  0.4274 -0.7636  0.0299
   80MOL    H8228680   4.163   7.414   4.113 -0.7771  1.9637 -2.6255
   80MOL    H8328681   4.026   7.518   4.096 -1.5378  1.2323  2.1832
   80MOL    H8428682   4.002   7.300   3.977  1.1558 -3.5184  0.6826
   80MOL    H8528683   3.932   6.954   4.245  0.0034 -0.2924 -0.6780
   80MOL    H8628684   4.094   6.967   4.325  0.0404 -0.6605 -0.0102
   80MOL    H8728685   3.821   7.023   4.451  0.3210  0.4595 -0.0347
   80MOL    H8828686   3.913   6.902   4.488 -2.8558  1.3768  0.8531
   80MOL    H8928687   4.100   7.073   4.549  1.3472  2.3921  1.9217
   80MOL    H9028688   3.958   7.076   4.652  0.1317  1.2376  0.4036
   80MOL    H9128689   3.997   7.207   4.541 -0.1158 -0.4755  2.4314
   80MOL    C9228690   3.827   7.310   4.100 -0.5859  0.0639 -0.2777
   80MOL    C9328691   3.758   7.408   4.011 -0.6487  0.6845  0.0129
   80MOL    C9428692   3.755   7.365   3.863 -0.6585 -0.0150  0.0186
   80MOL    O9528693   3.682   7.272   3.820 -0.2769  0.2550  0.5996
   80MOL    O9628694   3.834   7.440   3.781  0.0999  0.5014 -0.3241
   80MOL    C9728695   3.806   7.441   3.643 -0.0126  0.9210  0.9325
   80MOL    C9828696   3.900   7.529   3.557 -0.5918 -0.5926  0.0091
   80MOL    C9928697   3.881   7.495   3.401  0.6347 -0.8168 -0.2392
   80MOL   H10028698   3.799   7.334   4.203 -1.0029 -1.0318 -0.1301
   80MOL   H10128699   3.794   7.207   4.090 -2.4206  0.6691 -0.6805
   80MOL   H10228700   3.807   7.505   4.004 -1.5662  1.0735 -1.1580
   80MOL   H10328701   3.799   7.338   3.607  0.2841  0.3402  2.4950
   80MOL   H10428702   3.701   7.468   3.634 -0.7482 -1.9435  0.2665
   80MOL   H10528703   3.887   7.634   3.586  0.1366  0.5271 -3.4484
   80MOL   H10628704   4.003   7.514   3.590 -0.7499 -1.2308  0.2006
   80MOL   H10728705   3.897   7.388   3.387  1.3362 -0.3946 -3.0356
   80MOL   H10828706   3.938   7.559   3.334  0.0858  1.0652  1.0487
   80MOL   H10928707   3.776   7.509   3.373  1.2476  2.3036 -1.0791
   80MOL   C11028708   3.617   7.447   4.063  0.1674  0.4492 -0.1626
   80MOL   C11128709   3.544   7.560   3.980  0.2107  0.3364  0.5189
   80MOL   C11228710   3.418   7.590   4.058  0.3480 -0.2529 -0.3374
   80MOL   O11328711   3.399   7.554   4.178  0.2622  0.3573  0.3487
   80MOL   O11428712   3.338   7.672   3.988  0.0160  0.2396 -0.2359
   80MOL   C11528713   3.222   7.735   4.044  0.3022 -0.2327  0.3419
   80MOL   C11628714   3.113   7.748   3.934 -0.1884 -0.0189  0.2122
   80MOL   C11728715   3.073   7.618   3.848 -0.5297 -0.0996 -0.1043
   80MOL   H11828716   3.643   7.489   4.160  0.8070  1.4671 -0.7579
   80MOL   H11928717   3.560   7.356   4.077 -2.1221  2.0541  1.2382
   80MOL   H12028718   3.513   7.507   3.890 -0.5865 -0.1658  1.0825
   80MOL   H12128719   3.179   7.681   4.128 -0.2409  1.6377  1.2900
   80MOL   H12228720   3.252   7.828   4.092 -0.2788  0.6419 -0.9545
   80MOL   H12328721   3.032   7.780   4.000 -1.3943 -0.2704 -1.1307
   80MOL   H12428722   3.133   7.826   3.860  0.2900 -0.1897  0.1631
   80MOL   H12528723   3.151   7.600   3.774  0.6688  2.9356  0.3717
   80MOL   H12628724   2.987   7.652   3.791 -1.7405 -1.0592  1.1182
   80MOL   H12728725   3.060   7.529   3.910  1.2180  1.1023  2.0812
   80MOL   C12828726   3.633   7.682   3.951  0.1947  0.3809 -0.2914
   80MOL   C12928727   3.575   7.786   3.854  0.3565 -0.6690 -0.4704
   80MOL   C13028728   3.672   0.030   3.831 -0.5001  0.3057 -0.9503
   80MOL   O13128729   3.640   0.142   3.878  0.3453  0.3743 -0.1605
   80MOL   O13228730   3.782   0.003   3.763  0.5324 -0.0915 -0.4669
   80MOL   C13328731   3.885   0.095   3.740  0.3310  0.2640  0.3399
   80MOL   C13428732   3.998   0.009   3.693  0.0714  0.2393  1.0599
   80MOL   C13528733   4.053   7.799   3.806  0.4206  0.6373 -0.5720
   80MOL   H13628734   3.724   7.654   3.897  0.4059 -1.9705  1.2057
   80MOL   H13728735   3.660   7.730   4.045 -0.7210 -2.1253  1.3068
   80MOL   H13828736   3.492   7.824   3.913  0.4933  2.1703 -2.0536
   80MOL   H13928737   3.857   0.152   3.651 -1.1220 -1.8302 -0.5659
   80MOL   H14028738   3.909   0.173   3.813  1.0093 -1.0464  1.5220
   80MOL   H14128739   3.964   7.829   3.608  0.6717 -0.3750  1.2573
   80MOL   H14228740   4.073   0.076   3.651 -0.6308  1.3803  1.5810
   80MOL   H14328741   4.152   7.771   3.772 -0.5677  0.0539 -3.1062
   80MOL   H14428742   3.996   7.706   3.817  0.3687  0.7690  0.3067
   80MOL   H14528743   4.058   7.847   3.904 -0.5596  0.4283 -0.4047
   80MOL   C14628744   3.526   7.724   3.717  0.6399  0.4454 -0.8045
   80MOL   C14728745   3.458   7.812   3.610 -0.5125  0.4651  0.7854
   80MOL   C14828746   3.564   0.000   3.521  0.5700 -0.1232 -0.5896
   80MOL   O14928747   3.642   7.823   3.448 -0.3275  0.0892 -0.2488
   80MOL   O15028748   3.552   0.130   3.541  0.2885 -0.0387 -0.3238
   80MOL   C15128749   3.615   0.216   3.441  0.2449  0.4413  0.0134
   80MOL   C15228750   3.588   0.371   3.466  0.1439  1.1589  0.1145
   80MOL   C15328751   3.658   0.417   3.595  0.4318  0.8421 -0.3591
   80MOL   H15428752   3.446   7.657   3.747  0.2401  1.2434 -0.0477
   80MOL   H15528753   3.614   7.674   3.679  0.5921  0.2927 -0.7116
   80MOL   H15628754   3.403   0.009   3.664  0.5813  0.6831  1.6134
   80MOL   H15728755   3.721   0.195   3.436  0.5708  1.8409  0.8432
   80MOL   H15828756   3.577   0.185   3.343 -1.5170 -0.3828  0.9280
   80MOL   H15928757   3.637   0.411   3.378  1.9401  1.0564  1.0429
   80MOL   H16028758   3.480   0.387   3.459  0.1932  1.5046  0.1645
   80MOL   H16128759   3.766   0.401   3.594  0.4432  0.9642 -1.0392
   80MOL   H16228760   3.617   0.358   3.677  2.7501  0.4453  0.5779
   80MOL   H16328761   3.641   0.523   3.613 -2.6336  0.5817 -1.4713
   80MOL   C16428762   3.366   7.723   3.514  0.2217  0.1863 -0.1175
   80MOL   C16528763   3.246   7.794   3.452 -0.0302  0.2654  0.8520
   80MOL   C16628764   3.172   7.709   3.350 -0.4745 -0.3192 -0.8488
   80MOL   O16728765   3.117   7.602   3.379  0.0609 -0.4155  0.0716
   80MOL   O16828766   3.173   7.768   3.232  0.1665 -0.2528  0.0452
   80MOL   C16928767   3.077   7.712   3.135 -0.7524  0.0706  0.2482
   80MOL   C17028768   3.054   7.807   3.018 -0.2628 -0.1562 -0.6659
   80MOL   C17128769   3.170   7.807   2.925 -0.5427  0.2442 -0.5572
   80MOL   H17228770   3.317   7.641   3.566  0.5967  1.8003  2.9155
   80MOL   H17328771   3.428   7.684   3.434 -1.6322 -1.3199 -0.8453
   80MOL   H17428772   3.284   7.879   3.395  2.0158 -0.0780  1.6656
   80MOL   H17528773   3.138   7.631   3.095  0.9285  0.9580  0.9613
   80MOL   H17628774   2.985   7.674   3.178  0.1347 -1.1675  1.0620
   80MOL   H17728775   2.964   7.764   2.974 -0.2115 -1.0454  0.0812
   80MOL   H17828776   3.024   0.026   3.052 -1.4590 -1.2739  1.6536
   80MOL   H17928777   3.209   7.706   2.913 -0.9797  0.2971 -2.5211
   80MOL   H18028778   3.245   7.867   2.976  0.7091 -1.7374  0.0019
   80MOL   H18128779   3.145   7.843   2.825 -0.5420 -1.4743 -1.1858
   80MOL   C18228780   3.146   7.836   3.566  0.0780 -0.2390 -0.0591
   80MOL   C18328781   3.098   0.103   3.550  0.0100 -0.3124  0.5251
   80MOL   C18428782   3.198   0.210   3.576 -0.3646  0.0171 -0.9296
   80MOL   O18528783   3.242   0.279   3.489 -0.4485 -0.3365  0.5118
   80MOL   O18628784   3.236   0.213   3.698  0.1498 -0.4581 -0.4827
   80MOL   C18728785   3.343   0.292   3.736 -1.1042 -0.1619 -0.8191
   80MOL   C18828786   3.320   0.342   3.883 -0.2241  0.6080  0.0440
   80MOL   C18928787   3.309   0.224   3.976  1.1211  0.2535 -0.3811
   80MOL   H19028788   3.192   7.816   3.662  0.4184 -1.3681 -0.4425
   80MOL   H19128789   3.058   7.772   3.567 -0.0987 -0.0425 -1.3928
   80MOL   H19228790   3.033   0.112   3.637  0.2246 -2.1330  0.9052
   80MOL   H19328791   3.436   0.237   3.731 -1.5787 -0.9179 -1.5988
   80MOL   H19428792   3.345   0.383   3.676 -3.5932  1.2272  1.0890
   80MOL   H19528793   3.395   0.410   3.922 -1.7222  1.1172  2.1600
   80MOL   H19628794   3.225   0.395   3.888 -1.3138 -1.0371 -2.0804
   80MOL   H19728795   3.225   0.164   3.942 -0.8450  3.1995 -0.9209
   80MOL   H19828796   3.287   0.258   4.077 -2.1507  4.0374 -2.2583
   80MOL   H19928797   3.403   0.168   3.972  1.4494  0.7169  0.7356
   80MOL   C20028798   3.008   0.134   3.431  0.2261  1.0180  0.3433
   80MOL   C20128799   2.879   0.049   3.417  0.2681 -0.6952  0.2563
   80MOL   C20228800   2.769   0.071   3.518 -0.2238  0.2255  0.2041
   80MOL   O20328801   2.751   0.175   3.574 -0.0693 -0.1536 -0.3205
   80MOL   O20428802   2.694   7.842   3.542 -0.3469  0.5920 -0.8106
   80MOL   C20528803   2.566   7.846   3.620  0.6644 -0.6543  0.5557
   80MOL   C20628804   2.587   7.777   3.755 -0.1202 -0.4274  0.7278
   80MOL   C20728805   2.669   7.874   3.846  0.1861 -0.4919  0.2795
   80MOL   H20828806   3.077   0.124   3.347  0.3793 -1.6381  0.7462
   80MOL   H20928807   2.984   0.240   3.439 -0.6317  0.9179 -0.7258
   80MOL   H21028808   2.906   7.824   3.422 -0.3777 -0.9624 -1.3511
   80MOL   H21128809   2.543   0.071   3.638 -1.2619 -0.6168 -1.8384
   80MOL   H21228810   2.476   7.810   3.570 -0.0746  1.0054  0.6541
   80MOL   H21328811   2.490   7.757   3.799 -0.3120 -1.9132 -0.3428
   80MOL   H21428812   2.642   7.683   3.755  0.7121  0.0497  0.5197
   80MOL   H21528813   2.623   0.092   3.846 -0.4339 -0.7794  0.1397
   80MOL   H21628814   2.775   7.865   3.824  0.9052  1.4190  2.6886
   80MOL   H21728815   2.666   7.842   3.951 -1.7583 -0.1788  0.3387
   80MOL   C21828816   2.814   0.067   3.277  0.2546 -0.5315 -0.2787
   80MOL   C21928817   2.752   0.205   3.233 -0.5739 -0.2616  0.5991
   80MOL   C22028818   2.858   0.304   3.198  0.3170 -0.6070 -0.1914
   80MOL   O22128819   2.961   0.278   3.141 -0.5820 -0.3633 -0.1100
   80MOL   O22228820   2.815   0.424   3.232  0.4986  0.4005  0.2648
   80MOL   C22328821   2.890   0.541   3.223  0.8308  0.0222 -0.0569
   80MOL   C22428822   2.898   0.613   3.362 -0.1596  0.2826  0.0116
   80MOL   C22528823   2.999   0.538   3.451  0.2204 -0.4773  0.2729
   80MOL   H22628824   2.732   7.875   3.263 -0.4870  0.4998 -1.3090
   80MOL   H22728825   2.890   0.033   3.208  1.2366  0.4837  0.2998
   80MOL   H22828826   2.694   0.244   3.317 -0.4419  1.5032 -0.1256
   80MOL   H22928827   2.987   0.516   3.181  0.1653 -1.4716 -0.7656
   80MOL   H23028828   2.835   0.606   3.155 -0.7320 -0.0414  1.1141
   80MOL   H23128829   2.928   0.716   3.343  0.2266 -0.0033 -1.0047
   80MOL   H23228830   2.802   0.612   3.413  1.0064 -0.2404  2.2525
   80MOL   H23328831   3.094   0.524   3.399 -0.7633 -0.8734 -1.4673
   80MOL   H23428832   2.965   0.438   3.479 -1.2295  0.8958  3.6748
   80MOL   H23528833   3.025   0.587   3.544  0.1821 -0.5357  0.3139
   80MOL   C23628834   2.646   0.205   3.112  0.6785  0.1083 -0.0296
   80MOL   C23728835   2.524   0.114   3.135  0.2827 -0.0865 -0.5568
   80MOL   C23828836   2.445   0.159   3.254 -0.3338  0.6319  0.2065
   80MOL   O23928837   2.433   0.072   3.341  0.2895  0.1659  0.1387
   80MOL   O24028838   2.398   0.283   3.263  0.0087 -0.2064  0.5316
   80MOL   C24128839   2.335   0.333   3.389 -0.1094 -0.4286  1.2173
   80MOL   C24228840   2.435   0.340   3.509 -0.8266 -0.0178  0.3083
   80MOL   C24328841   2.542   0.445   3.463  0.0059  0.1182 -0.1867
   80MOL   H24428842   2.705   0.169   3.027  1.3661 -0.8574  0.8472
   80MOL   H24528843   2.618   0.308   3.092 -1.1371 -0.2492  0.6116
   80MOL   H24628844   2.563   0.017   3.165  0.6163  0.1235 -0.3021
   80MOL   H24728845   2.314   0.439   3.373 -1.5632 -1.1213 -1.8210
   80MOL   H24828846   2.248   0.273   3.414  0.6459 -1.4369  1.4410
   80MOL   H24928847   2.380   0.362   3.601 -0.9400 -3.0447  0.9874
   80MOL   H25028848   2.472   0.244   3.543 -0.7362  0.5793  1.9333
   80MOL   H25128849   2.512   0.550   3.457  0.2041  0.2159  0.4796
   80MOL   H25228850   2.585   0.427   3.364 -0.8189 -2.1742 -0.1536
   80MOL   H25328851   2.630   0.451   3.528 -1.6817  0.1796  2.1406
   80MOL   C25428852   2.432   0.086   3.018 -0.4337  0.6005 -0.2616
   80MOL   C25528853   2.502   0.030   2.893 -0.2094  0.4622 -0.5105
   80MOL   C25628854   2.594   7.791   2.922  0.1328  0.1195  0.1016
   80MOL   O25728855   2.706   7.780   2.876  0.7983 -0.2558  0.2129
   80MOL   O25828856   2.540   7.698   2.999 -0.0018  0.4883 -0.4712
   80MOL   C25928857   2.610   7.579   3.035  0.3627  0.4772 -0.0082
   80MOL   C26028858   2.724   7.591   3.131  0.0552 -0.2215  0.3172
   80MOL   C26128859   2.660   7.591   3.279 -0.0532  0.0622  0.4108
   80MOL   H26228860   2.390   0.178   2.979 -1.2402 -0.3432 -1.6695
   80MOL   H26328861   2.355   0.016   3.051  1.8271 -1.6344  0.4503
   80MOL   H26428862   2.566   0.112   2.860 -0.5930  1.1467  0.4087
   80MOL   H26528863   2.533   7.515   3.077  1.3683 -0.6373  0.1497
   80MOL   H26628864   2.645   7.553   2.935  0.9130  1.7694 -0.1613
   80MOL   H26728865   2.784   7.500   3.121 -0.3013 -0.1954 -2.4374
   80MOL   H26828866   2.788   7.678   3.112  1.0529 -1.0186 -0.0148
   80MOL   H26928867   2.752   7.592   3.338  1.0357 -1.1617 -1.2214
   80MOL   H27028868   2.603   7.499   3.293  0.2001 -0.5073 -2.1712
   80MOL   H27128869   2.592   7.675   3.292 -3.0223 -2.4183  1.4256
   80MOL   C27228870   2.400   7.876   2.776 -0.2199 -0.3508  0.9744
   80MOL   C27328871   2.460   7.865   2.629  0.4624  0.0355  0.2547
   80MOL   C27428872   2.366   7.788   2.536 -0.3944 -0.3750  0.1994
   80MOL   O27528873   2.248   7.785   2.558  0.0006  0.1213  0.7626
   80MOL   O27628874   2.434   7.741   2.433 -0.3642 -0.2782  1.0628
   80MOL   C27728875   2.372   7.666   2.329 -0.9108  0.6917  0.1031
   80MOL   C27828876   2.435   7.520   2.332 -0.0948  0.5134  0.3568
   80MOL   C27928877   2.587   7.504   2.287 -0.3610 -0.1860  0.4411
   80MOL   H28028878   2.312   0.060   2.774 -0.8597 -1.2798 -1.2866
   80MOL   H28128879   2.344   7.790   2.812  0.7894 -0.9523  1.1185
   80MOL   H28228880   2.547   7.800   2.636 -0.2059 -1.2458 -2.6389
   80MOL   H28328881   2.263   7.658   2.335 -0.8480  0.2198  0.7016
   80MOL   H28428882   2.407   7.717   2.239 -2.5188  1.4020 -0.1413
   80MOL   H28528883   2.420   7.467   2.426 -0.8204 -0.9957 -0.5851
   80MOL   H28628884   2.372   7.462   2.264 -0.8650  0.3114  1.2401
   80MOL   H28728885   2.638   7.597   2.311  2.3010 -0.7586 -2.6677
   80MOL   H28828886   2.589   7.499   2.178  2.5620  1.2405  0.3950
   80MOL   H28928887   2.640   7.417   2.326 -2.2743 -1.5145  0.2194
   80MOL   C29028888   2.521   0.117   2.579  0.1085  0.2505 -0.3365
   80MOL   C29128889   2.432   0.232   2.522 -0.0530  0.8564 -0.2941
   80MOL   C29228890   2.368   0.308   2.640  0.3210  0.7449 -0.7179
   80MOL   O29328891   2.244   0.297   2.663 -0.0065  0.2168 -0.2238
   80MOL   O29428892   2.456   0.357   2.734  0.4964  0.2607  0.3283
   80MOL   C29528893   2.406   0.446   2.836 -0.2067  0.0861 -0.7371
   80MOL   C29628894   2.503   0.548   2.887  0.4005 -0.0757 -0.9429
   80MOL   C29728895   2.472   0.617   3.021  0.7450 -0.3654  0.0214
   80MOL   H29828896   2.593   0.083   2.504 -1.6740  0.5279 -2.2220
   80MOL   H29928897   2.576   0.166   2.659 -3.2701  0.9658  1.6366
   80MOL   H30028898   2.350   0.187   2.466 -0.8088  0.7721  0.8497
   80MOL   H30128899   2.323   0.506   2.799  0.1763  0.9482 -0.2191
   80MOL   H30228900   2.372   0.388   2.921 -0.8509  0.4054 -0.7773
   80MOL   H30328901   2.597   0.492   2.893  0.1834 -0.4695 -1.2360
   80MOL   H30428902   2.523   0.624   2.811  0.5470 -0.2527 -1.0822
   80MOL   H30528903   2.467   0.552   3.109  0.9739  1.3578  1.3241
   80MOL   H30628904   2.368   0.646   3.004  1.0264 -0.5006 -2.0792
   80MOL   H30728905   2.532   0.705   3.044 -0.6386  0.5339  0.2824
   80MOL   C30828906   2.502   0.321   2.417 -0.1815 -0.2739  0.5402
   80MOL   C30928907   2.605   0.420   2.477 -1.3181  0.0808  0.4908
   80MOL   C31028908   2.727   0.344   2.534  0.1020  0.4557  0.8369
   80MOL   O31128909   2.789   0.257   2.472  0.5304 -0.3021 -0.5139
   80MOL   O31228910   2.758   0.378   2.665 -0.1017  0.0145  0.0128
   80MOL   C31328911   2.881   0.323   2.717  0.8000  0.5238 -0.8308
   80MOL   C31428912   2.901   0.394   2.849  0.1917  0.1950  0.1256
   80MOL   C31528913   2.941   0.542   2.844  0.2096 -0.1164  0.7984
   80MOL   H31628914   2.420   0.374   2.368  1.0941 -0.2109 -1.5883
   80MOL   H31728915   2.544   0.258   2.338 -1.4013 -0.1563 -0.2090
   80MOL   H31828916   2.556   0.473   2.559 -0.6635  1.9551 -0.2966
   80MOL   H31928917   2.857   0.217   2.717  0.3505  0.6160 -2.0520
   80MOL   H32028918   2.963   0.349   2.650  0.7262  1.2850 -0.6277
   80MOL   H32128919   2.808   0.375   2.904 -0.9081  1.0599 -1.3840
   80MOL   H32228920   2.985   0.346   2.899 -1.2663 -1.5601  0.9877
   80MOL   H32328921   2.998   0.570   2.932  0.1709  0.4463  0.6449
   80MOL   H32428922   2.990   0.574   2.752  0.2964  1.6207  1.4196
   80MOL   H32528923   2.848   0.597   2.831  0.9013  0.8900 -0.0082
   80MOL   C32628924   2.652   0.532   2.383 -0.4243  0.1598 -0.3579
   80MOL   C32728925   2.722   0.643   2.477  0.2457 -0.0711  0.5794
   80MOL   C32828926   2.857   0.683   2.408  0.2641  0.7000 -0.1390
   80MOL   O32928927   2.966   0.650   2.451  0.3906 -0.6161  0.3921
   80MOL   O33028928   2.840   0.758   2.301  0.0145  0.4404 -0.3330
   80MOL   C33128929   2.959   0.805   2.225 -0.7619 -0.3323  0.9007
   80MOL   C33228930   3.037   0.918   2.280 -0.2307 -0.5174  0.6624
   80MOL   C33328931   2.963   1.051   2.312 -0.7568  0.2329 -0.0869
   80MOL   H33428932   2.573   0.580   2.326 -0.1768  1.1854  0.1416
   80MOL   H33528933   2.714   0.480   2.309 -1.8342 -0.5943 -1.0222
   80MOL   H33628934   2.748   0.602   2.575  3.3515  1.6450  0.5309
   80MOL   H33728935   3.028   0.720   2.221 -0.6221 -0.2342  1.2408
   80MOL   H33828936   2.934   0.814   2.119 -4.2140 -0.6616  1.6150
   80MOL   H33928937   3.073   0.879   2.375  0.9559  1.3104  0.9835
   80MOL   H34028938   3.128   0.937   2.224 -1.2292  0.2511 -0.7547
   80MOL   H34128939   2.939   1.091   2.214  1.1327  0.9360 -0.2855
   80MOL   H34228940   2.882   1.029   2.381  0.6322 -0.2106  1.4388
   80MOL   H34328941   3.025   1.118   2.371 -1.2369  0.1893  0.4637
   80MOL   C34428942   2.628   0.768   2.521 -0.4542  0.2498  0.0710
   80MOL   C34528943   2.693   0.864   2.622 -0.2651  0.4347 -0.4439
   80MOL   C34628944   2.608   0.976   2.670 -0.4615  0.6476 -0.4014
   80MOL   O34728945   2.486   0.969   2.666 -0.0618 -0.6532 -0.1010
   80MOL   O34828946   2.681   1.080   2.697 -0.3478  0.0507  0.1880
   80MOL   C34928947   2.625   1.211   2.727  0.1555 -0.0267  0.3497
   80MOL   C35028948   2.619   1.229   2.876 -0.3362 -0.1049  0.4466
   80MOL   C35128949   2.474   1.201   2.918  0.5965 -0.5401 -0.3725
   80MOL   H35228950   2.533   0.739   2.566 -0.8239  0.6883 -0.4185
   80MOL   H35328951   2.599   0.828   2.434 -1.9693  0.8118  0.9306
   80MOL   H35428952   2.781   0.891   2.563  0.8305 -0.8193  0.6113
   80MOL   H35528953   2.690   1.282   2.675  1.4403 -2.4437 -1.4461
   80MOL   H35628954   2.521   1.220   2.695  0.5589  1.2728 -0.6583
   80MOL   H35728955   2.693   1.165   2.925  0.2302  0.1919 -0.0103
   80MOL   H35828956   2.640   1.334   2.894 -1.0336  0.6425 -2.8472
   80MOL   H35928957   2.401   1.275   2.886 -0.7734  0.5608  4.8154
   80MOL   H36028958   2.447   1.104   2.876  0.9903  0.6255 -3.4367
   80MOL   H36128959   2.455   1.183   3.024  0.9192  2.1243  0.1665
   80MOL   H36228960   2.716   0.808   2.712 -0.6851 -0.9046 -1.1642
   81MOL     C128961   5.001   3.547   5.087 -0.0611  0.1422 -0.3383
   81MOL     C228962   4.985   3.490   4.939 -1.0570  0.1137 -0.0520
   81MOL     C328963   4.834   3.501   4.911 -0.2216  0.2886 -0.1822
   81MOL     O428964   4.778   3.604   4.869  0.4722  0.2471 -0.1032
   81MOL     O528965   4.772   3.385   4.930 -1.0541 -0.5073  0.1811
   81MOL     C628966   4.635   3.378   4.909 -0.2658 -0.2115 -0.2580
   81MOL     C728967   4.595   3.342   4.767 -0.1346  0.1930 -0.7910
   81MOL     C828968   4.658   3.211   4.724 -0.2130  0.4282  0.8081
   81MOL     H928969   5.100   3.513   5.120  0.1459  0.4233 -0.6697
   81MOL    H1028970   5.014   3.655   5.096  2.8002 -0.3149  1.8432
   81MOL    H1128971   5.010   3.383   4.934 -2.7121 -0.2603 -0.4932
   81MOL    H1228972   4.606   3.288   4.964 -1.7040 -0.8107 -1.9678
   81MOL    H1328973   4.577   3.461   4.950 -2.5416 -1.5830 -0.6136
   81MOL    H1428974   4.486   3.336   4.772 -0.0265 -0.2096  1.6663
   81MOL    H1528975   4.619   3.417   4.692  2.5139  1.3153  1.1055
   81MOL    H1628976   4.625   3.184   4.623 -1.4335  0.3311  1.2300
   81MOL    H1728977   4.767   3.208   4.732 -0.1083  0.0947 -0.5547
   81MOL    H1828978   4.636   3.137   4.801  0.8053  0.4320  1.1190
   81MOL    H1928979   4.919   3.512   5.149  0.9187 -0.4697  0.6383
   81MOL    C2028980   5.083   3.560   4.845 -0.2686 -0.3300  0.2792
   81MOL    C2128981   5.153   3.474   4.745  0.1633  0.5601 -0.4279
   81MOL    C2228982   5.072   3.413   4.630 -0.0683 -0.2321 -0.6734
   81MOL    O2328983   5.078   3.294   4.606  0.2950  0.4234 -0.2474
   81MOL    O2428984   5.005   3.506   4.559  0.3582 -0.5200 -0.5379
   81MOL    C2528985   4.920   3.462   4.458  0.1131 -0.0532 -0.1084
   81MOL    C2628986   4.858   3.577   4.383  0.1685 -0.8488 -0.1892
   81MOL    C2728987   4.777   3.669   4.469  0.3137  0.4542 -0.2189
   81MOL    H2828988   5.171   3.581   4.905  0.9626  1.2584 -1.9908
   81MOL    H2928989   5.056   3.657   4.803  1.6174  0.4644  0.8843
   81MOL    H3028990   5.195   3.389   4.800  0.6746  1.0165 -0.1061
   81MOL    H3128991   4.975   3.400   4.388  0.2450 -0.3967  0.2976
   81MOL    H3228992   4.831   3.409   4.492 -0.9650  1.9792  0.3733
   81MOL    H3328993   4.940   3.636   4.342  0.8840 -1.0234  0.9544
   81MOL    H3428994   4.799   3.544   4.298 -1.4617  0.4684  0.4046
   81MOL    H3528995   4.744   3.757   4.412  0.3775  0.2526 -0.5709
   81MOL    H3628996   4.833   3.703   4.556 -0.7814  3.1400 -0.4969
   81MOL    H3728997   4.698   3.610   4.515  0.5061  0.2944 -0.0956
   81MOL    C3828998   5.271   3.550   4.681 -0.3771 -0.2512  0.1729
   81MOL    C3928999   5.407   3.482   4.661  0.4094  0.7737  0.7761
   81MOL    C4029000   5.494   3.475   4.785 -0.1043  0.8672 -0.0178
   81MOL    O4129001   5.613   3.486   4.777 -0.3328 -0.0648 -0.2773
   81MOL    O4229002   5.424   3.449   4.895 -0.5174  0.3242 -0.1712
   81MOL    C4329003   5.481   3.438   5.027 -0.3748  0.2598  0.0569
   81MOL    C4429004   5.376   3.423   5.141  0.0614  0.5201 -0.2834
   81MOL    C4529005   5.434   3.364   5.270 -0.0006  0.1311  0.0055
   81MOL    H4629006   5.299   3.638   4.739  2.2309 -0.2303 -1.0546
   81MOL    H4729007   5.234   3.600   4.591  1.6140  1.6359  0.3570
   81MOL    H4829008   5.467   3.543   4.593  0.2337  0.4085  0.2853
   81MOL    H4929009   5.546   3.351   5.020  0.0083  0.4004  1.6975
   81MOL    H5029010   5.544   3.524   5.049 -0.4735  0.4909 -0.5319
   81MOL    H5129011   5.333   3.519   5.169 -0.1391  0.4822 -0.4634
   81MOL    H5229012   5.306   3.353   5.095  0.0009  1.6768 -1.9919
   81MOL    H5329013   5.343   3.344   5.328  1.1679 -2.2226  1.1065
   81MOL    H5429014   5.485   3.432   5.337 -1.3155 -0.4594  1.6456
   81MOL    H5529015   5.496   3.275   5.267 -1.7671 -1.1030 -1.0846
   81MOL    C5629016   5.409   3.349   4.576  0.3858 -0.1881 -0.0826
   81MOL    C5729017   5.453   3.365   4.428  0.1759  0.3031  0.3795
   81MOL    C5829018   5.341   3.420   4.329 -0.5901 -0.6529 -0.1645
   81MOL    O5929019   5.252   3.346   4.288 -0.2155  0.2709 -0.6132
   81MOL    O6029020   5.343   3.555   4.313 -0.1638 -0.1721  0.0506
   81MOL    C6129021   5.225   3.635   4.285 -0.0904  0.2114 -0.0591
   81MOL    C6229022   5.210   3.678   4.139  0.2056  0.3525  0.2453
   81MOL    C6329023   5.326   3.765   4.085 -0.1104  0.2371 -0.1977
   81MOL    H6429024   5.319   3.288   4.583  0.9080 -0.9853 -0.2282
   81MOL    H6529025   5.480   3.279   4.621 -0.1931 -0.6382  0.1315
   81MOL    H6629026   5.450   3.262   4.392  0.0052 -0.2476  1.9123
   81MOL    H6729027   5.134   3.594   4.328  0.0944  0.2146  0.3408
   81MOL    H6829028   5.246   3.727   4.340  0.2828 -0.2367  0.5561
   81MOL    H6929029   5.199   3.583   4.086  1.7650  0.3175 -0.0657
   81MOL    H7029030   5.119   3.735   4.125 -0.7471 -0.7316  1.8561
   81MOL    H7129031   5.299   3.866   4.117  0.1918 -0.5004  2.5026
   81MOL    H7229032   5.345   3.756   3.978  1.3263 -1.5530  0.1863
   81MOL    H7329033   5.425   3.749   4.128  0.7002  3.2398 -0.7627
   81MOL    C7429034   5.593   3.427   4.395  0.2684  0.7608  0.2176
   81MOL    C7529035   5.725   3.350   4.438  0.2415 -0.0496 -0.9610
   81MOL    C7629036   5.726   3.211   4.378 -0.5259  0.0368 -0.4254
   81MOL    O7729037   5.690   3.185   4.266 -0.2712 -0.5746  0.1372
   81MOL    O7829038   5.769   3.127   4.468 -0.1145  0.1180  0.3562
   81MOL    C7929039   5.768   2.989   4.444 -1.0470 -0.5994 -0.0954
   81MOL    C8029040   5.817   2.910   4.566 -0.1626  0.1248 -0.2752
   81MOL    C8129041   5.746   2.935   4.700 -0.5183 -0.0247  0.3182
   81MOL    H8229042   5.601   3.529   4.432 -2.3102  2.0532 -2.5256
   81MOL    H8329043   5.596   3.432   4.287 -1.2092  0.0552  0.1286
   81MOL    H8429044   5.723   3.349   4.547  1.4384  0.9630 -0.9220
   81MOL    H8529045   5.664   2.964   4.422 -0.9387 -0.0641 -1.2278
   81MOL    H8629046   5.823   2.979   4.351 -0.9993  1.2534 -0.2860
   81MOL    H8729047   5.786   2.810   4.539  0.5883 -0.5296  1.1846
   81MOL    H8829048   5.926   2.920   4.576 -0.4014  1.5985  1.0452
   81MOL    H8929049   5.640   2.910   4.694 -0.5487 -0.0998  1.1119
   81MOL    H9029050   5.766   3.028   4.752  0.0012 -1.0202  1.9565
   81MOL    H9129051   5.777   2.861   4.774  1.3288 -0.4167 -0.8145
   81MOL    C9229052   5.850   3.427   4.395  0.9228 -0.0668  0.1198
   81MOL    C9329053   5.978   3.409   4.485 -0.2956 -0.4951 -0.3022
   81MOL    C9429054   6.090   3.494   4.432  0.0600  0.1173  0.3003
   81MOL    O9529055   6.141   3.582   4.494  0.6201  0.3387  0.4534
   81MOL    O9629056   6.127   3.460   4.303  0.1603  0.5635 -0.0225
   81MOL    C9729057   6.246   3.502   4.245 -0.2316 -0.0282 -0.9485
   81MOL    C9829058   6.254   3.466   4.102  0.5264 -0.3257 -0.7555
   81MOL    C9929059   6.137   3.520   4.013 -0.6281  0.3063  0.0708
   81MOL   H10029060   5.819   3.532   4.396  2.8456  0.5572 -1.7308
   81MOL   H10129061   5.870   3.423   4.288 -0.5356 -0.5067 -0.1508
   81MOL   H10229062   5.998   3.303   4.467 -2.7655 -1.4383  2.0942
   81MOL   H10329063   6.256   3.610   4.244 -0.1480 -0.0370 -1.0745
   81MOL   H10429064   6.328   3.458   4.303 -1.0420  0.0174  0.2488
   81MOL   H10529065   6.343   3.518   4.066  1.4147  0.2858  2.1376
   81MOL   H10629066   6.291   3.366   4.082 -0.1106 -0.5869 -0.6554
   81MOL   H10729067   6.157   3.507   3.907  1.0948  0.1441  0.4101
   81MOL   H10829068   6.107   3.624   4.026  0.2194  0.7724 -1.6107
   81MOL   H10929069   6.047   3.467   4.045  0.3074 -2.6555 -2.0271
   81MOL   C11029070   5.957   3.439   4.635 -0.0524  0.0466 -0.8978
   81MOL   C11129071   6.048   3.363   4.734 -0.4166  0.1347  0.7517
   81MOL   C11229072   6.068   3.448   4.859 -0.3449 -0.1197 -0.0169
   81MOL   O11329073   6.182   3.485   4.891  0.0514  0.0034 -1.0595
   81MOL   O11429074   5.954   3.482   4.918  0.2526 -0.4115  0.4251
   81MOL   C11529075   5.946   3.567   5.039  0.1098  0.1832 -0.4238
   81MOL   C11629076   5.945   3.718   5.007 -0.0585 -0.6711  0.4331
   81MOL   C11729077   5.809   3.749   4.939 -0.7149 -0.0910 -0.0261
   81MOL   H11829078   5.856   3.430   4.675  0.0679  1.8425 -0.1535
   81MOL   H11929079   5.967   3.546   4.655  1.9307 -0.3849  0.5219
   81MOL   H12029080   6.146   3.345   4.691 -0.3044 -0.9324  1.4386
   81MOL   H12129081   5.853   3.529   5.084 -0.4544  2.0746  0.0335
   81MOL   H12229082   6.020   3.532   5.111  1.6991  4.1768 -0.0343
   81MOL   H12329083   5.953   3.764   5.105  1.4580 -0.6060  0.2946
   81MOL   H12429084   6.028   3.741   4.941  0.7331 -2.5481  0.7311
   81MOL   H12529085   5.726   3.722   5.005 -0.7536  0.6751  0.2513
   81MOL   H12629086   5.795   3.703   4.841  0.3106 -1.1084  0.2998
   81MOL   H12729087   5.808   3.854   4.910  1.5200 -0.6055 -2.0738
   81MOL   C12829088   5.992   3.216   4.766 -0.2860 -0.3712 -0.6226
   81MOL   C12929089   6.095   3.126   4.842 -0.2631 -0.4017 -0.5370
   81MOL   C13029090   6.026   3.068   4.966  0.6752 -0.0398  0.3321
   81MOL   O13129091   5.959   2.964   4.960  0.6365 -0.6308 -0.7567
   81MOL   O13229092   6.037   3.165   5.065 -0.2701 -0.4694 -0.4181
   81MOL   C13329093   5.973   3.148   5.188  0.5096 -0.3826 -0.1848
   81MOL   C13429094   5.870   3.266   5.199  0.1328  0.2215  0.1229
   81MOL   C13529095   5.824   3.297   5.343  0.2499  0.5119 -0.4448
   81MOL   H13629096   5.952   3.165   4.679 -1.3659 -1.2337  0.3711
   81MOL   H13729097   5.910   3.241   4.833 -1.1950  1.1452 -2.2553
   81MOL   H13829098   6.175   3.195   4.868 -0.1586 -0.7412  0.0544
   81MOL   H13929099   5.920   3.052   5.189 -2.6034  1.1999 -2.8479
   81MOL   H14029100   6.047   3.160   5.267  0.3104  1.4659 -0.2553
   81MOL   H14129101   5.917   3.363   5.182  1.7502 -0.8250 -1.5339
   81MOL   H14229102   5.788   3.242   5.132 -0.8386 -0.7285  1.6072
   81MOL   H14329103   5.758   3.380   5.369  0.7556  1.3226 -1.7232
   81MOL   H14429104   5.910   3.310   5.408  1.1872  1.5209 -1.8875
   81MOL   H14529105   5.777   3.201   5.367  1.4423 -0.2429 -1.1189
   81MOL   C14629106   6.158   3.017   4.755  0.2246 -0.0457  0.0486
   81MOL   C14729107   6.249   3.069   4.633  0.5253 -0.1545  1.0746
   81MOL   C14829108   6.373   3.144   4.692 -0.2708  0.5205  0.0899
   81MOL   O14929109   6.416   3.122   4.808  0.2476  0.1905  0.2412
   81MOL   O15029110   6.417   3.235   4.614  0.3163 -0.4080 -0.2266
   81MOL   C15129111   6.520   3.316   4.651 -0.6542 -0.0869 -0.1775
   81MOL   C15229112   6.484   3.434   4.746  0.7772 -0.4094  0.6826
   81MOL   C15329113   6.605   3.520   4.782  0.4382  0.1666 -0.2654
   81MOL   H15429114   6.082   2.954   4.708 -0.1760 -1.2459  2.2396
   81MOL   H15529115   6.228   2.961   4.816  0.2158 -2.2956 -1.9349
   81MOL   H15629116   6.203   3.151   4.578  1.1614  0.1279  0.9605
   81MOL   H15729117   6.606   3.265   4.693  0.5826  2.8836  1.0670
   81MOL   H15829118   6.558   3.369   4.564  1.8740 -0.3761  0.7165
   81MOL   H15929119   6.410   3.500   4.701 -0.2919 -0.9790  1.5821
   81MOL   H16029120   6.449   3.407   4.846  1.2875 -2.1223  0.4190
   81MOL   H16129121   6.568   3.596   4.851 -0.0368 -0.0670 -0.2548
   81MOL   H16229122   6.642   3.584   4.703 -0.5506  0.0090 -0.8648
   81MOL   H16329123   6.677   3.462   4.840 -1.3588 -1.0973  0.7906
   81MOL   C16429124   6.304   2.966   4.533 -0.7269 -0.3124 -0.6123
   81MOL   C16529125   6.201   2.942   4.418 -0.0769 -0.2450  0.1422
   81MOL   C16629126   6.168   3.056   4.326 -0.0343 -0.6220 -0.0439
   81MOL   O16729127   6.228   3.162   4.336 -0.0308  0.1030 -0.4010
   81MOL   O16829128   6.073   3.032   4.244  0.0795 -0.0383  0.2989
   81MOL   C16929129   6.018   3.141   4.166  0.3617  0.9367  0.3923
   81MOL   C17029130   5.956   3.070   4.045 -0.4692 -0.3109  0.0278
   81MOL   C17129131   5.863   3.161   3.950  0.0967  0.4531  0.0181
   81MOL   H17229132   6.324   2.877   4.592  1.9134 -0.4935 -1.7219
   81MOL   H17329133   6.393   2.988   4.476 -0.7198 -2.5462 -1.5150
   81MOL   H17429134   6.103   2.926   4.463 -0.1860 -1.2120 -0.4212
   81MOL   H17529135   5.959   3.205   4.231  0.1775  1.0680  0.1002
   81MOL   H17629136   6.105   3.198   4.134 -0.7555  1.6909 -1.4433
   81MOL   H17729137   6.030   3.018   3.985  0.0206 -1.2067  1.3677
   81MOL   H17829138   5.889   2.992   4.082 -1.5549 -0.2739 -1.8155
   81MOL   H17929139   5.776   3.194   4.006 -0.5193 -2.1855  0.7244
   81MOL   H18029140   5.841   3.097   3.864  3.1645 -1.6143  0.6827
   81MOL   H18129141   5.919   3.246   3.910 -1.3177  1.1453 -0.5021
   81MOL   C18229142   6.249   2.820   4.330 -0.2409 -0.3179 -0.3470
   81MOL   C18329143   6.204   2.683   4.384 -0.1995  0.1906 -0.1109
   81MOL   C18429144   6.055   2.676   4.379  0.4719  0.4283  0.1459
   81MOL   O18529145   5.992   2.654   4.482 -0.4568  0.3191  0.3126
   81MOL   O18629146   6.007   2.687   4.254 -0.7002  0.6608  0.0909
   81MOL   C18729147   5.872   2.665   4.231 -0.1307 -0.1440 -0.1490
   81MOL   C18829148   5.844   2.698   4.077 -0.5079  0.7926  0.2018
   81MOL   C18929149   5.696   2.727   4.049 -0.6322  0.6603 -0.1415
   81MOL   H19029150   6.355   2.817   4.304 -0.5122  2.8597 -2.0351
   81MOL   H19129151   6.204   2.833   4.231 -0.4683  1.4209 -0.0226
   81MOL   H19229152   6.227   2.663   4.489 -2.7116  0.5569  0.5392
   81MOL   H19329153   5.856   2.558   4.244 -0.1213 -0.0257  0.8923
   81MOL   H19429154   5.821   2.727   4.305 -0.8827 -1.3201  0.3372
   81MOL   H19529155   5.913   2.778   4.048 -0.4179  1.0495  1.0844
   81MOL   H19629156   5.867   2.598   4.040  1.3775  0.7637  1.3686
   81MOL   H19729157   5.637   2.647   4.095 -1.6283  2.3082  1.5245
   81MOL   H19829158   5.663   2.745   3.947 -1.0744 -2.0315 -0.5240
   81MOL   H19929159   5.658   2.817   4.098 -3.5607 -0.2240 -0.6943
   81MOL   C20029160   6.272   2.569   4.302 -0.2737 -0.7436 -0.8013
   81MOL   C20129161   6.215   2.423   4.293 -0.2350 -0.7086  0.1408
   81MOL   C20229162   6.290   2.339   4.184 -0.6351 -0.5345 -0.5993
   81MOL   O20329163   6.384   2.388   4.123 -1.1554  0.8486  0.1525
   81MOL   O20429164   6.237   2.220   4.159  0.4328 -0.0497  0.3151
   81MOL   C20529165   6.295   2.128   4.067 -0.1135  0.3644 -0.5027
   81MOL   C20629166   6.186   2.045   3.992  0.4056  0.3313 -0.4646
   81MOL   C20729167   6.109   1.945   4.082  0.4411 -0.1603  0.5291
   81MOL   H20829168   6.375   2.566   4.336 -0.7125  1.7136  0.8387
   81MOL   H20929169   6.282   2.610   4.202  1.5674  2.7338  0.7187
   81MOL   H21029170   6.107   2.413   4.279 -0.4431  1.3661  0.1426
   81MOL   H21129171   6.347   2.184   3.990  1.3756  0.5650  0.6166
   81MOL   H21229172   6.373   2.067   4.113  0.2099  1.6784  0.7309
   81MOL   H21329173   6.111   2.114   3.951  1.9715  0.7767 -2.6755
   81MOL   H21429174   6.230   1.991   3.909  0.8787 -0.0032  0.0035
   81MOL   H21529175   6.034   1.908   4.013  1.2115  0.0419 -0.4247
   81MOL   H21629176   6.086   1.988   4.180 -0.1909 -1.8491  1.1328
   81MOL   H21729177   6.165   1.854   4.101  0.0854 -0.3670  0.5970
   81MOL   C21829178   6.241   2.361   4.426 -0.4095  0.4404  0.6738
   81MOL   C21929179   6.165   2.234   4.454  0.0776  0.4134  0.1574
   81MOL   C22029180   6.267   2.117   4.473 -0.6102 -0.4377  0.5870
   81MOL   O22129181   6.304   2.049   4.375  0.7438 -0.0539 -0.1678
   81MOL   O22229182   6.327   2.120   4.591 -0.7666  0.5085 -0.0609
   81MOL   C22329183   6.443   2.038   4.624 -0.7002 -0.0784 -0.4135
   81MOL   C22429184   6.490   2.065   4.775 -0.6458  0.5701  0.8077
   81MOL   C22529185   6.595   1.966   4.829 -0.9483 -0.3343 -0.5083
   81MOL   H22629186   6.220   2.426   4.511 -2.5523 -0.7167  1.0565
   81MOL   H22729187   6.350   2.353   4.434 -0.3573  1.7283  1.5263
   81MOL   H22829188   6.119   2.204   4.360 -0.9543 -0.6742  1.0002
   81MOL   H22929189   6.415   1.933   4.611 -2.6865  0.2586  0.8425
   81MOL   H23029190   6.520   2.064   4.551 -1.7434  1.7604 -0.9138
   81MOL   H23129191   6.522   2.166   4.802 -1.4471  1.0432  0.0250
   81MOL   H23229192   6.404   2.056   4.842 -0.7501  3.9311  1.2399
   81MOL   H23329193   6.597   1.860   4.802  0.8947 -0.3926 -0.2348
   81MOL   H23429194   6.619   1.985   4.934 -3.6975 -0.8338  0.2339
   81MOL   H23529195   6.686   1.997   4.777 -0.3069 -2.8975 -1.0207
   81MOL   C23629196   6.056   2.252   4.561 -0.1920 -0.1336  0.2943
   81MOL   C23729197   5.925   2.311   4.514  0.2173 -0.3257 -0.3511
   81MOL   C23829198   5.861   2.229   4.409  0.3426 -0.3162 -0.4903
   81MOL   O23929199   5.794   2.131   4.437 -0.2114 -0.5247 -0.2410
   81MOL   O24029200   5.876   2.279   4.288  0.5862  0.2624  0.2621
   81MOL   C24129201   5.824   2.213   4.174 -0.1457 -0.0016 -0.1730
   81MOL   C24229202   5.789   2.314   4.064  0.1222 -0.5948 -0.8605
   81MOL   C24329203   5.911   2.334   3.976 -0.4261 -0.2597  0.5032
   81MOL   H24429204   6.092   2.312   4.644  1.1075  1.2018 -1.2092
   81MOL   H24529205   6.030   2.159   4.612  0.3922 -0.0521  0.7474
   81MOL   H24629206   5.955   2.404   4.466  1.1703 -0.3705  0.1508
   81MOL   H24729207   5.880   2.124   4.145  0.8380  0.5245  0.0816
   81MOL   H24829208   5.730   2.170   4.209  0.8545 -1.0547  1.2847
   81MOL   H24929209   5.713   2.279   3.995  1.1613  1.4578 -3.0986
   81MOL   H25029210   5.740   2.404   4.100  0.8337  0.0951 -1.6068
   81MOL   H25129211   5.901   2.397   3.888  3.5543  1.4302  1.1488
   81MOL   H25229212   5.927   2.234   3.936  1.6289 -0.3687  1.5201
   81MOL   H25329213   5.996   2.361   4.039  0.9800  0.9474 -1.8352
   81MOL   C25429214   5.837   2.350   4.640  0.0378  0.1531 -0.4796
   81MOL   C25529215   5.687   2.392   4.613  1.0200 -0.2672 -0.6863
   81MOL   C25629216   5.614   2.405   4.753  0.0513 -0.0245  0.5300
   81MOL   O25729217   5.587   2.514   4.797 -0.3149 -1.0522  0.4357
   81MOL   O25829218   5.583   2.294   4.801 -0.1554 -0.4108 -0.1399
   81MOL   C25929219   5.516   2.285   4.922  0.3552 -0.4361 -0.1058
   81MOL   C26029220   5.495   2.145   4.962  0.2758 -0.6986 -0.6756
   81MOL   C26129221   5.596   2.098   5.063  0.4524 -0.1066 -0.8191
   81MOL   H26229222   5.881   2.427   4.703  3.9262 -1.4236 -1.1061
   81MOL   H26329223   5.846   2.259   4.699 -4.0556 -1.8381 -2.6635
   81MOL   H26429224   5.640   2.304   4.570  0.4508 -0.0053 -0.5926
   81MOL   H26529225   5.578   2.333   4.998 -1.0782  1.5148 -0.1465
   81MOL   H26629226   5.420   2.335   4.917 -0.0636 -1.0130  1.6890
   81MOL   H26729227   5.396   2.131   5.006  0.8400 -0.6948  0.6166
   81MOL   H26829228   5.489   2.082   4.873  4.3014 -2.0213 -0.0661
   81MOL   H26929229   5.697   2.124   5.030  0.7284  0.2382  0.2659
   81MOL   H27029230   5.587   1.990   5.065 -0.0852 -0.0560 -0.4746
   81MOL   H27129231   5.588   2.142   5.163 -1.1377 -2.1988  0.0179
   81MOL   C27229232   5.667   2.525   4.524 -0.3027 -0.1064  0.4627
   81MOL   C27329233   5.533   2.529   4.447  1.2273  0.0246 -0.3221
   81MOL   C27429234   5.519   2.411   4.356  0.1060  0.4476 -0.4241
   81MOL   O27529235   5.554   2.416   4.240  0.3347 -0.5219  0.4761
   81MOL   O27629236   5.465   2.305   4.415  0.0693  0.1350  0.0881
   81MOL   C27729237   5.441   2.189   4.345  0.1058  0.0172 -0.6940
   81MOL   C27829238   5.315   2.184   4.262  0.0991 -0.5033  0.0406
   81MOL   C27929239   5.295   2.051   4.191  0.7265  0.2239 -0.1287
   81MOL   H28029240   5.735   2.529   4.439  0.6114 -1.6496  1.0967
   81MOL   H28129241   5.685   2.616   4.581  1.4157 -0.9190  1.2534
   81MOL   H28229242   5.542   2.618   4.384  0.8974  0.7659  0.6560
   81MOL   H28329243   5.527   2.170   4.281  0.5709 -0.1623 -0.0186
   81MOL   H28429244   5.444   2.097   4.404  3.4615 -1.1613 -2.5797
   81MOL   H28529245   5.228   2.223   4.315  0.3667  0.3383 -0.1337
   81MOL   H28629246   5.332   2.252   4.179  1.7188  0.0871  0.8510
   81MOL   H28729247   5.374   2.031   4.118  3.1481 -0.6904  2.6470
   81MOL   H28829248   5.200   2.046   4.138  0.0787  3.2591  0.6324
   81MOL   H28929249   5.301   1.974   4.267  1.8840 -1.1025 -1.5287
   81MOL   C29029250   5.411   2.572   4.534  0.3204 -0.2514 -0.7072
   81MOL   C29129251   5.293   2.654   4.470  0.0843  0.2945 -0.1187
   81MOL   C29229252   5.336   2.796   4.425 -0.2418  0.0600  0.3143
   81MOL   O29329253   5.454   2.827   4.415 -0.0762 -0.5385 -0.2064
   81MOL   O29429254   5.233   2.882   4.395 -0.4982 -0.4566  0.5996
   81MOL   C29529255   5.262   3.017   4.354  0.4660 -0.4503 -0.1925
   81MOL   C29629256   5.231   3.014   4.203  0.5032  0.7542  0.0954
   81MOL   C29729257   5.343   2.954   4.120  0.0511  0.0154 -0.4158
   81MOL   H29829258   5.460   2.639   4.605  1.6562 -0.3573 -1.5178
   81MOL   H29929259   5.389   2.479   4.586 -2.5391  1.3800  1.1435
   81MOL   H30029260   5.223   2.663   4.554  1.6644 -0.8325  1.3477
   81MOL   H30129261   5.194   3.081   4.410  0.4076  0.9305 -1.8064
   81MOL   H30229262   5.364   3.049   4.373 -0.0250  1.3977 -0.5472
   81MOL   H30329263   5.141   2.964   4.168  0.1074  1.5208  0.0330
   81MOL   H30429264   5.207   3.114   4.168  1.7820  0.2402 -2.4203
   81MOL   H30529265   5.307   2.960   4.018 -0.5078 -0.1688 -0.2345
   81MOL   H30629266   5.365   2.850   4.145 -1.7122  0.0074  1.2267
   81MOL   H30729267   5.432   3.016   4.130 -0.3915  0.7449 -0.9359
   81MOL   C30829268   5.219   2.564   4.362 -0.9034  0.0581 -0.1228
   81MOL   C30929269   5.072   2.600   4.323  0.2280 -0.1396  0.0341
   81MOL   C31029270   5.052   2.576   4.173  0.0226  0.1894  0.2114
   81MOL   O31129271   5.089   2.477   4.114 -0.7992  0.3450  0.2392
   81MOL   O31229272   4.976   2.669   4.128  0.2453  0.6374  0.2954
   81MOL   C31329273   4.959   2.690   3.991  0.0560 -0.3605  0.3404
   81MOL   C31429274   4.907   2.832   3.950 -0.0372 -0.3821 -0.2689
   81MOL   C31529275   4.774   2.873   4.020  0.5649  0.7799  0.3494
   81MOL   H31629276   5.225   2.458   4.385  0.6545 -0.0218 -0.8390
   81MOL   H31729277   5.291   2.564   4.280 -1.5802  2.1844 -0.7440
   81MOL   H31829278   5.054   2.708   4.326  0.3125 -0.0563 -1.8181
   81MOL   H31929279   5.056   2.686   3.941  0.5644  1.4064  1.1121
   81MOL   H32029280   4.897   2.611   3.948  2.4107 -0.4430 -3.1469
   81MOL   H32129281   4.987   2.903   3.971  0.2038  0.7567 -4.5676
   81MOL   H32229282   4.880   2.831   3.844  0.8331 -1.4253 -0.4817
   81MOL   H32329283   4.782   2.860   4.128  0.5865 -0.3194  0.2210
   81MOL   H32429284   4.752   2.979   4.006  0.9699  0.6338 -1.5814
   81MOL   H32529285   4.683   2.819   3.995 -0.8863  2.0358  2.6942
   81MOL   C32629286   4.976   2.507   4.399  0.0176  0.3636 -0.2103
   81MOL   C32729287   4.967   2.531   4.548  0.0516  0.3931 -0.3404
   81MOL   C32829288   4.942   2.674   4.581  0.2900 -0.6406  0.4397
   81MOL   O32929289   5.013   2.728   4.667 -0.2852 -0.0291 -0.6370
   81MOL   O33029290   4.830   2.730   4.518  0.0456 -0.3182 -0.2279
   81MOL   C33129291   4.799   2.871   4.527  0.1115  0.1304  0.5592
   81MOL   C33229292   4.889   2.946   4.431  0.6935 -0.6646  0.0078
   81MOL   C33329293   4.844   3.098   4.413 -0.6085  0.0836 -0.1069
   81MOL   H33429294   5.001   2.402   4.383 -0.3341  0.1321  0.7219
   81MOL   H33529295   4.876   2.515   4.356  0.0827 -0.9530 -0.6313
   81MOL   H33629296   5.066   2.513   4.590 -1.0850 -0.1779  2.1603
   81MOL   H33729297   4.694   2.880   4.499 -0.0277  0.4765  1.1885
   81MOL   H33829298   4.803   2.907   4.629 -0.0259 -0.5482  0.8088
   81MOL   H33929299   4.996   2.939   4.450  1.1205  2.6913 -0.8225
   81MOL   H34029300   4.875   2.893   4.337 -2.0996  0.6832 -0.3891
   81MOL   H34129301   4.906   3.155   4.343 -1.1965  0.2983 -0.4610
   81MOL   H34229302   4.745   3.130   4.379 -0.4463  0.9982  0.2816
   81MOL   H34329303   4.860   3.146   4.509  2.2099  0.2172 -0.6027
   81MOL   C34429304   4.868   2.440   4.621  0.2811 -0.9048 -1.2968
   81MOL   C34529305   4.867   2.443   4.782 -0.5356  0.0014 -0.1012
   81MOL   C34629306   4.947   2.324   4.834 -0.4824  0.7326 -0.3017
   81MOL   O34729307   4.902   2.243   4.918 -0.1350 -0.1106 -0.1077
   81MOL   O34829308   5.062   2.304   4.762  0.6481  0.5945 -0.4518
   81MOL   C34929309   5.140   2.192   4.785 -0.1471 -0.1693 -0.6434
   81MOL   C35029310   5.205   2.134   4.655 -0.4956 -0.2887  0.7156
   81MOL   C35129311   5.096   2.089   4.552  0.7554  0.4945 -0.6494
   81MOL   H35229312   4.880   2.338   4.583  2.1226 -1.3596  0.4067
   81MOL   H35329313   4.766   2.466   4.593 -0.0316  0.4619  0.9994
   81MOL   H35429314   4.765   2.427   4.817 -1.3293 -0.2454 -2.4294
   81MOL   H35529315   5.211   2.214   4.865 -1.3375 -1.0630  0.6913
   81MOL   H35629316   5.079   2.117   4.835  2.2173 -0.7195  1.5315
   81MOL   H35729317   5.251   2.215   4.598 -2.0431  0.3270  0.3227
   81MOL   H35829318   5.275   2.052   4.671 -0.9676 -0.9274 -0.4863
   81MOL   H35929319   5.054   2.174   4.499  0.8025  1.3624  0.6716
   81MOL   H36029320   5.124   2.017   4.475 -0.1810 -1.6765  0.9926
   81MOL   H36129321   5.009   2.049   4.603  1.1100 -0.7639 -1.0323
   81MOL   H36229322   4.904   2.531   4.835 -0.9459 -1.2735  2.3838
   82MOL     C129323   3.948   7.199   0.647 -0.4268  0.7495 -0.1135
   82MOL     C229324   3.964   7.254   0.788  0.1359  0.5781  0.2354
   82MOL     C329325   4.112   7.240   0.846  0.2482  0.0346  1.2759
   82MOL     O429326   4.176   7.333   0.888 -0.3791  0.7432 -0.4099
   82MOL     O529327   4.150   7.107   0.848 -0.8187 -0.2545  0.0187
   82MOL     C629328   4.283   7.068   0.888  0.3236  0.3222 -0.0302
   82MOL     C729329   4.289   7.032   1.040 -0.7611 -0.6883 -0.0727
   82MOL     C829330   4.431   6.978   1.073  0.2892  0.0119  0.0776
   82MOL     H929331   4.010   7.245   0.570 -0.3614  0.4953 -0.2142
   82MOL    H1029332   3.974   7.093   0.658  1.6239  1.3475  1.2212
   82MOL    H1129333   3.904   7.204   0.864  0.5796  0.8772  0.7920
   82MOL    H1229334   4.315   6.977   0.837  1.7281 -0.6961  2.6140
   82MOL    H1329335   4.360   7.145   0.877  1.6020 -1.1405 -1.7015
   82MOL    H1429336   4.264   7.119   1.100 -0.0170  1.1037 -2.2930
   82MOL    H1529337   4.198   6.977   1.064 -1.0591 -0.0829  0.2011
   82MOL    H1629338   4.457   6.981   1.179 -1.7140 -0.5137  0.6020
   82MOL    H1729339   4.441   6.873   1.044  0.8646  0.2557 -0.6045
   82MOL    H1829340   4.506   7.025   1.010  1.2073  1.3529  2.0923
   82MOL    H1929341   3.845   7.198   0.611 -0.5433  3.2246  0.0594
   82MOL    C2029342   3.916   7.405   0.787  0.4848  0.2543 -0.0205
   82MOL    C2129343   3.764   7.429   0.771  0.2141 -0.6513  0.0040
   82MOL    C2229344   3.678   7.376   0.885  0.1957 -0.2818  0.7004
   82MOL    O2329345   3.731   7.368   0.995  0.0219  0.5668  0.1854
   82MOL    O2429346   3.558   7.353   0.846  0.0011  0.6624 -0.2204
   82MOL    C2529347   3.460   7.288   0.924 -0.6117 -0.2690  0.3861
   82MOL    C2629348   3.329   7.305   0.850  0.0554 -0.7064 -0.1927
   82MOL    C2729349   3.273   7.453   0.846  0.2275 -0.2603 -0.6474
   82MOL    H2829350   3.956   7.447   0.695 -0.4841 -0.1088 -0.6050
   82MOL    H2929351   3.962   7.468   0.864  0.3067  1.8302 -1.1812
   82MOL    H3029352   3.732   7.374   0.683  2.1549  0.8434 -1.6868
   82MOL    H3129353   3.479   7.181   0.933 -0.3656 -0.1656  1.1213
   82MOL    H3229354   3.457   7.335   1.022 -1.5831  2.1787 -0.7764
   82MOL    H3329355   3.343   7.274   0.746  0.5375  0.6673 -0.5494
   82MOL    H3429356   3.255   7.236   0.889 -2.2414 -0.3802 -3.7333
   82MOL    H3529357   3.172   7.461   0.806 -0.1714  1.3201  0.6193
   82MOL    H3629358   3.342   7.500   0.776 -0.0821 -0.3673 -1.0267
   82MOL    H3729359   3.277   7.510   0.940  0.8517  0.3263 -1.0260
   82MOL    C3829360   3.729   7.581   0.740  0.4033  0.1080 -1.1802
   82MOL    C3929361   3.585   7.612   0.697 -0.7705  0.0211  0.4753
   82MOL    C4029362   3.522   7.705   0.801 -0.0656  0.5547 -0.7538
   82MOL    O4129363   3.478   7.818   0.776 -0.3617  0.1136  0.0547
   82MOL    O4229364   3.516   7.642   0.928  0.3095  0.0056 -0.0213
   82MOL    C4329365   3.480   7.719   1.039 -0.2955  0.2632 -0.6435
   82MOL    C4429366   3.596   7.717   1.142 -0.7430 -0.1690 -0.1442
   82MOL    C4529367   3.543   7.742   1.279  0.4024  0.4271  0.5519
   82MOL    H4629368   3.802   7.614   0.665  2.3907  0.6954  0.9356
   82MOL    H4729369   3.750   7.649   0.823  2.4601  0.8999 -2.2852
   82MOL    H4829370   3.521   7.523   0.695  0.1496 -0.6257 -0.6392
   82MOL    H4929371   3.472   7.826   1.020  0.6798  0.6243  0.8435
   82MOL    H5029372   3.382   7.685   1.073 -0.1668  2.1907  1.8104
   82MOL    H5129373   3.626   7.613   1.151 -0.0843  0.2502  3.0127
   82MOL    H5229374   3.675   7.785   1.110 -0.0853 -2.0374 -2.6549
   82MOL    H5329375   3.510   7.846   1.281 -0.7101  0.0773  0.9845
   82MOL    H5429376   3.615   7.717   1.358 -0.6817 -2.6068  0.6613
   82MOL    H5529377   3.460   7.675   1.301 -0.2683  0.4900 -1.6393
   82MOL    C5629378   3.571   7.677   0.553 -0.7388 -0.9652 -0.6575
   82MOL    C5729379   3.623   7.594   0.430 -0.4307 -0.1674  0.1071
   82MOL    C5829380   3.583   7.447   0.445 -0.3670 -0.8526  0.3492
   82MOL    O5929381   3.667   7.362   0.443  0.0082  0.1940  0.0871
   82MOL    O6029382   3.447   7.423   0.434 -0.4969 -0.2844 -0.6955
   82MOL    C6129383   3.400   7.287   0.429  0.0346 -0.2696 -0.2756
   82MOL    C6229384   3.250   7.289   0.464 -0.6037 -0.5586 -0.1730
   82MOL    C6329385   3.185   7.152   0.496 -0.5587 -0.7041 -0.1103
   82MOL    H6429386   3.608   7.780   0.551 -3.3022  0.0202  0.5996
   82MOL    H6529387   3.464   7.687   0.537 -0.9089 -0.1716  0.9467
   82MOL    H6629388   3.732   7.595   0.428 -0.3659  0.1405  2.6756
   82MOL    H6729389   3.424   7.251   0.328 -2.2690  2.2111 -1.7724
   82MOL    H6829390   3.455   7.223   0.498 -0.5215 -1.1314 -0.6152
   82MOL    H6929391   3.227   7.353   0.549  0.3362 -0.1456 -0.2252
   82MOL    H7029392   3.193   7.332   0.382  3.5665  1.2596 -2.2985
   82MOL    H7129393   3.090   7.177   0.543 -0.1624 -2.1761  1.5243
   82MOL    H7229394   3.240   7.085   0.562 -1.1889  0.2276  1.3936
   82MOL    H7329395   3.171   7.095   0.404 -1.0999 -1.6808  0.5580
   82MOL    C7429396   3.577   7.652   0.297  0.8749  0.3611 -0.1716
   82MOL    C7529397   3.638   7.590   0.171 -0.9898  0.6618  0.1703
   82MOL    C7629398   3.557   7.614   0.048  0.3214  0.7079  0.3586
   82MOL    O7729399   3.581   7.706   7.848  0.1888 -0.7370 -0.5457
   82MOL    O7829400   3.453   7.527   0.044  0.4422  0.3651  0.2056
   82MOL    C7929401   3.373   7.516   7.810  0.2661 -0.9121 -0.1125
   82MOL    C8029402   3.233   7.535   7.859  0.3464  0.9311  0.4154
   82MOL    C8129403   3.207   7.681   0.022  0.2705  0.0200  0.6505
   82MOL    H8229404   3.597   7.759   0.293  1.7957  0.1735 -0.6385
   82MOL    H8329405   3.471   7.637   0.280  1.2470 -0.8698 -1.4526
   82MOL    H8429406   3.638   7.483   0.194 -0.1094  0.6370  0.0865
   82MOL    H8529407   3.388   7.582   7.725  1.3082 -1.0612 -0.0482
   82MOL    H8629408   3.368   7.411   7.781 -0.9316 -1.2620  1.2808
   82MOL    H8729409   3.162   7.511   7.779 -0.5370  0.4005  1.3471
   82MOL    H8829410   3.219   7.467   0.063 -0.6386 -0.2037 -0.6292
   82MOL    H8929411   3.231   7.748   7.820 -2.6081  0.4067  0.0674
   82MOL    H9029412   3.258   7.710   0.113 -0.5532 -1.0081  1.4622
   82MOL    H9129413   3.101   7.703   0.035  0.6067  2.5393 -0.6732
   82MOL    C9229414   3.786   7.634   0.148 -0.5669  0.7536  0.5178
   82MOL    C9329415   3.902   7.550   0.207  0.0254  0.0207  0.0560
   82MOL    C9429416   3.911   7.413   0.126 -0.0773 -0.3755  0.3790
   82MOL    O9529417   3.840   7.398   0.030 -0.0393  0.2771  0.0194
   82MOL    O9629418   3.996   7.326   0.179 -0.5349  0.2524 -0.0814
   82MOL    C9729419   3.990   7.184   0.144  0.2763  0.4489 -0.1404
   82MOL    C9829420   3.928   7.094   0.251 -0.0123  0.3335  0.0899
   82MOL    C9929421   3.961   6.941   0.224 -0.6672 -0.2689  0.2947
   82MOL   H10029422   3.800   7.734   0.188 -0.3469  1.1489 -0.5431
   82MOL   H10129423   3.806   7.644   0.041 -0.1838  0.7136  0.5843
   82MOL   H10229424   3.891   7.532   0.314  0.4470  0.4755  0.1759
   82MOL   H10329425   3.916   7.179   0.064 -0.1691 -0.6771  0.3247
   82MOL   H10429426   4.087   7.146   0.112 -1.1188 -1.7798 -1.8547
   82MOL   H10529427   3.968   7.103   0.352 -0.6731 -2.6798  0.6583
   82MOL   H10629428   3.821   7.115   0.257 -0.0802 -0.2850  1.1681
   82MOL   H10729429   4.068   6.920   0.235 -0.1877  0.0278 -3.2289
   82MOL   H10829430   3.944   6.925   0.118 -0.0560 -0.0322  0.1586
   82MOL   H10929431   3.898   6.867   0.273  0.2197 -0.7221  0.7683
   82MOL   C11029432   4.034   7.632   0.192  0.0706  0.1753 -0.0500
   82MOL   C11129433   4.079   7.713   0.319 -0.2265  0.6676 -0.0680
   82MOL   C11229434   4.116   7.620   0.436  0.8677 -0.0369 -0.1976
   82MOL   O11329435   4.035   7.594   0.523  0.1658 -0.6315 -0.4235
   82MOL   O11429436   4.232   7.559   0.418 -0.0104 -0.2908  0.5524
   82MOL   C11529437   4.289   7.482   0.526  0.2625  0.2056 -0.1435
   82MOL   C11629438   4.434   7.441   0.483 -0.0533 -0.1326  0.6641
   82MOL   C11729439   4.514   7.405   0.607  0.0139 -0.2071  0.3240
   82MOL   H11829440   4.024   7.696   0.105  1.9424  0.0132 -0.4055
   82MOL   H11929441   4.123   7.575   0.166  0.1664  1.5159 -2.8146
   82MOL   H12029442   3.997   7.776   0.354 -0.6388  0.7400 -1.1545
   82MOL   H12129443   4.284   7.542   0.617 -4.3323 -0.1305 -0.0453
   82MOL   H12229444   4.224   7.396   0.541 -0.6117  0.8201 -0.3511
   82MOL   H12329445   4.433   7.361   0.409  0.3551 -1.4229  2.0163
   82MOL   H12429446   4.485   7.523   0.433 -3.6606  1.5707 -0.4285
   82MOL   H12529447   4.481   7.310   0.650 -1.1306  1.2750  2.8252
   82MOL   H12629448   4.499   7.475   0.688 -1.3659 -1.1023  0.8616
   82MOL   H12729449   4.621   7.402   0.588 -0.1810 -1.0091 -0.7418
   82MOL   C12829450   4.199   7.812   0.292 -0.4263 -0.4147  0.0493
   82MOL   C12929451   4.157   0.054   0.206 -0.1402 -0.4200  0.0866
   82MOL   C13029452   4.084   0.157   0.287 -0.0807 -0.4248  0.0367
   82MOL   O13129453   4.144   0.227   0.374 -0.1428 -0.0470  0.0603
   82MOL   O13229454   3.951   0.152   0.265  0.1480 -0.3842 -0.1755
   82MOL   C13329455   3.863   0.245   0.332  0.8956  0.2323 -0.3665
   82MOL   C13429456   3.718   0.212   0.303  0.2639  0.3391 -0.1449
   82MOL   C13529457   3.672   0.255   0.160 -1.0524 -0.7683 -0.0975
   82MOL   H13629458   4.280   7.759   0.242 -1.0647  0.4811 -2.0044
   82MOL   H13729459   4.240   7.845   0.387 -0.8186  1.5954 -0.4611
   82MOL   H13829460   4.082   0.007   0.142 -0.9150  4.1474 -2.6278
   82MOL   H13929461   3.889   0.236   0.438  0.0298 -1.9399 -0.3106
   82MOL   H14029462   3.883   0.348   0.303  0.0869  0.4181 -0.2530
   82MOL   H14129463   3.702   0.104   0.308 -2.8177  0.8375  1.8574
   82MOL   H14229464   3.666   0.271   0.378  1.8090  3.9787 -1.8476
   82MOL   H14329465   3.690   0.361   0.148  0.7153 -0.7428  2.3533
   82MOL   H14429466   3.565   0.249   0.143 -1.0987 -0.1036 -0.0418
   82MOL   H14529467   3.720   0.205   0.075  0.3447 -1.3774  1.0159
   82MOL   C14629468   4.263   0.121   0.110 -0.3299  0.9275 -0.2644
   82MOL   C14729469   4.327   0.023   0.008  0.3269 -0.1478  0.1080
   82MOL   C14829470   4.215   7.858   7.784 -0.4190 -0.1197  0.0588
   82MOL   O14929471   4.152   7.754   7.800  0.4476  0.4745  0.2638
   82MOL   O15029472   4.197   0.059   7.687  0.4129 -0.4196 -0.6730
   82MOL   C15129473   4.096   0.043   7.590 -0.3775 -0.2019 -1.0416
   82MOL   C15229474   3.969   0.132   7.619  0.2780  0.2319  0.0839
   82MOL   C15329475   3.887   0.068   7.729  0.2588  0.4843 -0.4970
   82MOL   H15429476   4.349   0.159   0.166  0.8866  0.1319 -1.5724
   82MOL   H15529477   4.231   0.205   0.049 -2.2691  1.1804  1.0367
   82MOL   H15629478   4.361   7.808   0.050 -0.7108 -1.1876 -1.3570
   82MOL   H15729479   4.143   0.058   7.493  2.2059 -1.7274 -0.0601
   82MOL   H15829480   4.062   7.820   7.582 -0.4842 -0.2434 -0.1826
   82MOL   H15929481   4.001   0.230   7.655 -0.4114 -0.0241  1.4351
   82MOL   H16029482   3.917   0.142   7.524 -0.0865 -1.5769  0.0731
   82MOL   H16129483   3.946   0.061   7.821  1.3011 -0.5533 -1.2313
   82MOL   H16229484   3.867   7.843   7.709  0.9160  0.1856  0.3965
   82MOL   H16329485   3.794   0.122   7.748 -0.5986 -1.0285 -0.2936
   82MOL   C16429486   4.454   0.070   7.815  0.2517  0.8265 -0.6256
   82MOL   C16529487   4.580   0.087   0.027  0.2248  0.0560 -0.0143
   82MOL   C16629488   4.645   7.838   0.092 -0.1289  0.6082 -0.3158
   82MOL   O16729489   4.628   7.813   0.210 -0.1102  0.4149 -0.1345
   82MOL   O16829490   4.691   7.743   0.006  1.2697 -0.3279  0.6805
   82MOL   C16929491   4.738   7.619   0.049  0.2175 -0.0920  0.2997
   82MOL   C17029492   4.812   7.542   7.818 -0.1121 -1.0613 -0.2092
   82MOL   C17129493   4.937   7.620   7.774  0.5189  0.2607 -0.1907
   82MOL   H17229494   4.422   0.162   7.765  0.1804 -0.3975 -2.9069
   82MOL   H17329495   4.480   7.874   7.742  2.6223  0.5407  0.5030
   82MOL   H17429496   4.558   0.156   0.108 -1.8577 -0.0161 -0.5009
   82MOL   H17529497   4.811   7.633   0.128  0.7861  1.0934 -0.4233
   82MOL   H17629498   4.650   7.564   0.082  0.6499 -0.1381  1.3798
   82MOL   H17729499   4.835   7.444   7.860 -1.3143 -0.1518  2.7360
   82MOL   H17829500   4.749   7.532   7.730  0.4441  0.0815 -0.7480
   82MOL   H17929501   4.984   7.570   7.690  4.1635  2.8248  0.1940
   82MOL   H18029502   4.999   7.641   7.861 -0.6826 -0.8104  0.9541
   82MOL   H18129503   4.915   7.718   7.732  0.9924  0.6917  0.5547
   82MOL   C18229504   4.684   0.157   7.815  0.1276  0.6311 -0.2968
   82MOL   C18329505   4.783   0.252   0.014  0.0116  0.0919  0.0000
   82MOL   C18429506   4.915   0.271   7.820  0.2068  0.1215  0.1852
   82MOL   O18529507   4.946   0.382   7.775  0.1299  0.1132  0.3263
   82MOL   O18629508   4.983   0.154   7.812  0.3033 -0.3030  0.4665
   82MOL   C18729509   5.105   0.147   7.743 -0.1674  0.7670 -0.5959
   82MOL   C18829510   5.215   0.168   7.846 -0.0623  0.2440 -0.4477
   82MOL   C18929511   5.349   0.181   7.786 -0.0770 -0.3231  0.0067
   82MOL   H19029512   4.647   0.215   7.730 -3.2032 -0.5055  0.2922
   82MOL   H19129513   4.737   0.083   7.755 -0.5069  0.3605 -0.5298
   82MOL   H19229514   4.814   0.179   0.088  1.8455 -0.8280 -1.6304
   82MOL   H19329515   5.107   0.047   7.699  0.4039  1.6660 -2.7005
   82MOL   H19429516   5.119   0.221   7.664  1.8899  0.5124 -0.5143
   82MOL   H19529517   5.183   0.262   0.011 -1.0862  1.2111 -3.0872
   82MOL   H19629518   5.217   0.093   0.045  2.3787  0.6870 -0.0541
   82MOL   H19729519   5.348   0.245   7.697  1.4046  0.5049  0.5638
   82MOL   H19829520   5.391   0.085   7.754 -1.5952  0.0662 -3.4323
   82MOL   H19929521   5.433   0.211   7.849 -0.0188 -0.6144  0.0682
   82MOL   C20029522   4.729   0.381   0.075  0.1304 -0.0501  0.1087
   82MOL   C20129523   4.663   0.479   7.847  0.5441 -0.2589 -0.1118
   82MOL   C20229524   4.506   0.484   7.867  0.4763  0.0647 -0.0688
   82MOL   O20329525   4.426   0.476   7.772  0.3970  0.2163  0.2352
   82MOL   O20429526   4.475   0.495   0.112 -0.1364  0.2947  0.3495
   82MOL   C20529527   4.337   0.502   0.151 -0.5464 -0.4384  0.6423
   82MOL   C20629528   4.328   0.561   0.295  0.2693  0.0200 -0.1975
   82MOL   C20729529   4.185   0.607   0.330 -0.0830  0.1025 -0.4631
   82MOL   H20829530   4.803   0.440   0.130 -1.3748  1.2297  0.8212
   82MOL   H20929531   4.662   0.351   0.155  0.3025  0.6866  0.5358
   82MOL   H21029532   4.672   0.432   7.749  1.6414 -1.7448  0.6858
   82MOL   H21129533   4.283   0.569   0.083 -1.0604  1.3712  2.7898
   82MOL   H21229534   4.285   0.406   0.157  0.4190 -1.1436 -1.6482
   82MOL   H21329535   4.358   0.478   0.359  0.5348  0.2210 -0.0639
   82MOL   H21429536   4.391   0.647   0.317  2.1235 -1.0738 -1.0643
   82MOL   H21529537   4.144   0.680   0.260 -3.5506 -1.7576 -0.4917
   82MOL   H21629538   4.187   0.639   0.434  2.1480 -0.4289 -0.3223
   82MOL   H21729539   4.121   0.520   0.312  1.0564 -0.7561 -0.3956
   82MOL   C21829540   4.718   0.627   7.845 -0.1739  0.0990  0.1117
   82MOL   C21929541   4.711   0.706   7.714  0.5729  0.6211 -0.7351
   82MOL   C22029542   4.564   0.745   7.689 -0.4497  0.0955  0.3677
   82MOL   O22129543   4.489   0.779   7.783 -0.0175  0.0970 -0.3766
   82MOL   O22229544   4.530   0.738   7.552  0.3143 -0.6387 -0.0278
   82MOL   C22329545   4.399   0.768   7.512  0.1942 -0.0588  0.0101
   82MOL   C22429546   4.371   0.921   7.521  0.1008  0.8208 -0.2711
   82MOL   C22529547   4.221   0.957   7.478 -0.3947  0.5834  1.3076
   82MOL   H22629548   4.823   0.628   7.876  0.0777  0.7529 -0.7355
   82MOL   H22729549   4.674   0.685   0.046 -0.4713  1.3348 -0.9318
   82MOL   H22829550   4.755   0.637   7.642  0.3677  0.1886 -0.4462
   82MOL   H22929551   4.383   0.729   7.412 -0.4779  0.9534 -0.2849
   82MOL   H23029552   4.326   0.722   7.579 -1.1806  2.3355  0.2215
   82MOL   H23129553   4.392   0.959   7.621 -2.8935 -1.2662  1.2172
   82MOL   H23229554   4.433   0.987   7.460  2.0967  0.7785  1.6604
   82MOL   H23329555   4.201   0.939   7.373 -1.7410 -1.5218  1.8935
   82MOL   H23429556   4.201   1.061   7.503  0.2725  1.2948 -1.0287
   82MOL   H23529557   4.142   0.902   7.531 -1.4129  1.0317  0.2812
   82MOL   C23629558   4.802   0.833   7.719 -0.1888 -1.1374  0.0136
   82MOL   C23729559   4.809   0.925   7.589 -0.1837 -0.5708 -0.4656
   82MOL   C23829560   4.894   1.059   7.611 -0.0285 -0.3858  0.5174
   82MOL   O23929561   5.002   1.069   7.670  0.2110 -0.7474 -0.7179
   82MOL   O24029562   4.839   1.169   7.558  0.0856  0.6337 -0.1624
   82MOL   C24129563   4.893   1.300   7.597  0.1445  0.7108 -0.5938
   82MOL   C24229564   4.789   1.409   7.574 -0.4803 -0.2267 -0.2681
   82MOL   C24329565   4.728   1.408   7.435  0.6914 -0.3918 -0.0729
   82MOL   H24429566   4.897   0.798   7.759 -0.8260 -0.1134  2.5206
   82MOL   H24529567   4.764   0.904   7.792  0.6204  1.6548 -2.2052
   82MOL   H24629568   4.706   0.944   7.559 -0.2440 -1.2471 -0.6948
   82MOL   H24729569   4.920   1.302   7.702 -1.0468 -0.3251 -0.2558
   82MOL   H24829570   4.984   1.316   7.539  0.7355  0.5326  0.2817
   82MOL   H24929571   4.715   1.405   7.653  1.3613 -1.0515  1.4621
   82MOL   H25029572   4.834   1.508   7.585 -1.1073  0.0655 -0.3222
   82MOL   H25129573   4.685   1.312   7.408 -1.6756  0.2899  1.1137
   82MOL   H25229574   4.797   1.442   7.358 -1.0752 -0.5733 -1.7909
   82MOL   H25329575   4.656   1.490   7.443  1.6553  0.4457  0.1705
   82MOL   C25429576   4.866   0.842   7.470 -0.9448  0.1125 -0.1796
   82MOL   C25529577   4.887   0.907   7.337  0.4424 -0.0485  0.8051
   82MOL   C25629578   4.929   0.804   7.229 -0.1072  0.0227 -0.3517
   82MOL   O25729579   5.045   0.800   7.197 -0.2112 -0.1666  0.7669
   82MOL   O25829580   4.836   0.718   7.185  0.0602 -0.1949 -0.0664
   82MOL   C25929581   4.857   0.629   7.077  0.2992  0.2458  0.2923
   82MOL   C26029582   4.785   0.678   6.946 -0.0662 -0.3566 -0.2365
   82MOL   C26129583   4.626   0.678   6.957 -0.2919 -0.5395  0.5878
   82MOL   H26229584   4.803   0.754   7.459 -0.6220 -0.1609  0.1415
   82MOL   H26329585   4.956   0.793   7.507 -0.0629  2.5195  0.9767
   82MOL   H26429586   4.956   0.991   7.337  0.5032 -0.0993  1.0506
   82MOL   H26529587   4.965   0.615   7.069  0.0563 -0.9717 -1.2430
   82MOL   H26629588   4.809   0.534   7.100 -0.6870  0.1010 -2.1206
   82MOL   H26729589   4.825   0.772   6.908 -1.6917 -0.9321 -3.5526
   82MOL   H26829590   4.819   0.613   6.865 -1.4076  0.9391 -1.8752
   82MOL   H26929591   4.589   0.715   6.861  1.5027  2.1535  0.8855
   82MOL   H27029592   4.590   0.744   7.036 -1.4491  0.5444 -0.8271
   82MOL   H27129593   4.589   0.576   6.967  0.6270 -1.0067 -0.6661
   82MOL   C27229594   4.752   0.973   7.291  0.6316  0.2800  0.2368
   82MOL   C27329595   4.748   1.034   7.148 -0.2552  0.1317 -0.4372
   82MOL   C27429596   4.597   1.073   7.117 -1.4041 -0.0244  0.4085
   82MOL   O27529597   4.561   1.191   7.126  0.3139  0.4600  0.4057
   82MOL   O27629598   4.520   0.971   7.086  0.5415 -0.2015  0.0155
   82MOL   C27729599   4.391   0.996   7.059  0.6328  0.1465 -0.1474
   82MOL   C27829600   4.310   0.882   7.000  0.0279  0.0474  0.6739
   82MOL   C27929601   4.295   0.768   7.098  0.6488 -0.2141 -0.4860
   82MOL   H28029602   4.736   1.055   7.361 -0.0160  0.0780  0.3243
   82MOL   H28129603   4.674   0.898   7.305  0.5037  0.3097 -0.3346
   82MOL   H28229604   4.764   0.960   7.069  2.1931  0.8727 -0.6720
   82MOL   H28329605   4.332   1.013   7.149 -1.9623 -0.1938 -1.7141
   82MOL   H28429606   4.374   1.085   6.998 -2.6240  0.8167  1.5997
   82MOL   H28529607   4.207   0.907   6.973 -0.8522 -2.7215  1.3638
   82MOL   H28629608   4.356   0.850   6.906 -3.4382 -0.1440 -1.0464
   82MOL   H28729609   4.380   0.756   7.165 -0.1341  0.7466  0.7130
   82MOL   H28829610   4.303   0.676   7.039 -1.3068 -1.2274  0.7696
   82MOL   H28929611   4.202   0.756   7.153 -0.1352 -0.2088 -1.7763
   82MOL   C29029612   4.841   1.153   7.127  0.7003  0.1216 -0.0437
   82MOL   C29129613   4.853   1.208   6.987 -0.0699 -0.1554  0.7835
   82MOL   C29229614   4.877   1.358   6.998  0.2738  0.8184 -0.4465
   82MOL   O29329615   4.974   1.399   7.059  0.3843 -0.5789 -0.1389
   82MOL   O29429616   4.787   1.433   6.930 -0.2282 -0.1170 -0.7936
   82MOL   C29529617   4.790   1.574   6.936  0.8902 -0.6288 -0.5233
   82MOL   C29629618   4.680   1.628   7.033  0.1848 -0.7494 -0.2104
   82MOL   C29729619   4.667   1.781   7.024 -0.1270  0.1856 -0.3812
   82MOL   H29829620   4.940   1.123   7.162  2.5611  2.2978 -3.1582
   82MOL   H29929621   4.817   1.238   7.192  1.0614  0.1623  0.0398
   82MOL   H30029622   4.760   1.201   6.931  1.8225  1.8150 -2.7854
   82MOL   H30129623   4.887   1.624   6.941  1.1988 -1.1416 -1.2796
   82MOL   H30229624   4.748   1.606   6.841 -0.0056 -2.4677 -0.7734
   82MOL   H30329625   4.589   1.577   6.999 -1.1478  0.0157  2.0954
   82MOL   H30429626   4.694   1.610   7.139  3.5764  0.7570 -0.3416
   82MOL   H30529627   4.620   1.821   7.113  0.8232  1.8308 -0.6015
   82MOL   H30629628   4.609   1.807   6.935 -0.9928 -0.3754  0.0086
   82MOL   H30729629   4.765   1.829   7.029 -1.3971  2.9129 -0.6850
   82MOL   C30829630   4.962   1.130   6.911  0.1742 -0.1925 -0.3568
   82MOL   C30929631   5.006   1.197   6.777 -0.3152  0.2553  0.1102
   82MOL   C31029632   5.157   1.190   6.749  0.7570  0.2560  0.4308
   82MOL   O31129633   5.233   1.244   6.825  0.0535 -0.0700 -0.1175
   82MOL   O31229634   5.191   1.118   6.639  0.2032 -0.0866  0.7389
   82MOL   C31329635   5.328   1.114   6.610 -0.4371 -0.2345 -0.1982
   82MOL   C31429636   5.357   1.049   6.481  0.0153 -0.2330  0.1737
   82MOL   C31529637   5.505   1.063   6.447 -0.2606  0.2509 -0.0994
   82MOL   H31629638   4.922   1.030   6.894 -0.5878  0.3411 -1.7842
   82MOL   H31729639   5.044   1.111   6.980 -1.6207 -0.0438  1.8779
   82MOL   H31829640   4.986   1.304   6.781 -2.1248  0.0078 -1.4836
   82MOL   H31929641   5.362   1.217   6.601  1.0004 -0.8221 -1.7658
   82MOL   H32029642   5.388   1.070   6.689 -0.9215 -0.0711  0.2613
   82MOL   H32129643   5.325   0.944   6.482 -1.0530  0.0771 -0.5114
   82MOL   H32229644   5.288   1.084   6.404  0.8814  0.1403 -0.4347
   82MOL   H32329645   5.573   1.026   6.523 -0.8198  0.6230  0.5909
   82MOL   H32429646   5.543   1.032   6.350  0.6974  0.8496  0.0772
   82MOL   H32529647   5.533   1.168   6.445  1.7596 -0.2645  0.5452
   82MOL   C32629648   4.907   1.143   6.675 -0.5906 -0.0403  0.4651
   82MOL   C32729649   4.912   1.234   6.550  0.2921 -0.6326 -0.0554
   82MOL   C32829650   4.920   1.139   6.427 -0.0280 -0.0166  0.2526
   82MOL   O32929651   5.021   1.080   6.397  0.3376 -0.3830  0.4125
   82MOL   O33029652   4.808   1.121   6.365  0.0625  0.3808  0.1032
   82MOL   C33129653   4.789   1.018   6.270  0.1832  0.0077  0.1171
   82MOL   C33229654   4.646   0.991   6.239 -0.7267 -0.3658  0.1660
   82MOL   C33329655   4.567   1.111   6.191  0.4057  0.4875  0.1816
   82MOL   H33429656   4.804   1.133   6.709 -0.5443 -0.6215  0.4425
   82MOL   H33529657   4.919   1.040   6.644 -0.9116  0.3222 -0.8898
   82MOL   H33629658   5.001   1.296   6.543  0.0073  0.0624  2.0200
   82MOL   H33729659   4.842   1.046   6.178 -1.9851  2.0805 -0.5759
   82MOL   H33829660   4.839   0.929   6.307  0.7210  0.6656  0.9682
   82MOL   H33929661   4.649   0.915   6.161 -0.4471 -0.8714  0.6669
   82MOL   H34029662   4.602   0.956   6.332  0.6657 -2.1790  0.1570
   82MOL   H34129663   4.568   1.204   6.248 -1.5557  1.1237 -0.7790
   82MOL   H34229664   4.623   1.146   6.104  0.5614  0.8152  0.4120
   82MOL   H34329665   4.466   1.085   6.160  0.3300 -0.5139  1.2608
   82MOL   C34429666   4.799   1.340   6.545  0.0478  0.1932 -0.8349
   82MOL   C34529667   4.820   1.451   6.441  0.7748  0.0777 -0.4900
   82MOL   C34629668   4.699   1.541   6.416  0.7029  0.2268  0.5403
   82MOL   O34729669   4.655   1.566   6.301 -0.5614  0.2613 -0.5448
   82MOL   O34829670   4.640   1.582   6.528  0.0575  0.4269  0.2243
   82MOL   C34929671   4.521   1.652   6.524  0.6382  0.1190  0.0559
   82MOL   C35029672   4.532   1.780   6.613  0.0608 -0.4104  0.8334
   82MOL   C35129673   4.386   1.833   6.604 -0.5661  0.2192 -0.2370
   82MOL   H35229674   4.792   1.381   6.646  0.5569  1.9183 -1.4785
   82MOL   H35329675   4.700   1.303   6.524  0.1972  0.2269 -1.5962
   82MOL   H35429676   4.834   1.415   6.339  0.5388  0.1205 -0.5389
   82MOL   H35529677   4.501   1.691   6.424  0.2850  2.2504  0.9329
   82MOL   H35629678   4.451   1.572   6.549 -0.0400 -0.1789 -2.5885
   82MOL   H35729679   4.541   1.748   6.717 -0.6224 -0.1065  0.9938
   82MOL   H35829680   4.617   1.838   6.578  1.5122 -2.0095  1.6767
   82MOL   H35929681   4.351   1.839   6.501 -1.3460 -0.1754  0.0014
   82MOL   H36029682   4.327   1.751   6.644  1.5386 -1.7286 -0.9786
   82MOL   H36129683   4.371   1.926   6.659 -0.0901 -0.3689  0.8923
   82MOL   H36229684   4.908   1.505   6.475  0.2368  0.8160 -0.2507
   83MOL     C129685   6.238   3.256   5.510 -0.1471  0.2403 -0.3312
   83MOL     C229686   6.358   3.192   5.594 -0.3684  0.6414  0.2766
   83MOL     C329687   6.410   3.062   5.532  1.0623 -0.4984 -0.1384
   83MOL     O429688   6.414   2.955   5.588  0.1232 -0.1835  0.3302
   83MOL     O529689   6.444   3.076   5.404  0.1759 -0.6652 -0.4059
   83MOL     C629690   6.494   2.973   5.321 -0.1072 -0.0711 -0.6858
   83MOL     C729691   6.374   2.912   5.239  0.5989  0.7536 -0.1552
   83MOL     C829692   6.343   3.009   5.119 -0.0587  0.3459 -0.4340
   83MOL     H929693   6.152   3.276   5.574 -1.3645 -1.2877 -1.4461
   83MOL    H1029694   6.270   3.345   5.457 -1.0885  0.3654 -0.7025
   83MOL    H1129695   6.325   3.178   5.697 -2.1539  0.5321 -0.2893
   83MOL    H1229696   6.563   3.023   5.254 -0.8683  0.9505 -0.7113
   83MOL    H1329697   6.554   2.898   5.374 -0.3219 -0.7700 -1.4190
   83MOL    H1429698   6.389   2.811   5.204  0.1051  0.6451 -0.0560
   83MOL    H1529699   6.293   2.918   5.312 -1.2269  1.0822 -2.1571
   83MOL    H1629700   6.306   3.103   5.161 -1.3179 -0.0580 -0.6189
   83MOL    H1729701   6.434   3.041   5.068  0.3336 -0.2069 -0.0856
   83MOL    H1829702   6.269   2.961   5.055 -2.6869  0.1216  2.6315
   83MOL    H1929703   6.208   3.179   5.439 -1.3105  1.5135 -1.2451
   83MOL    C2029704   6.484   3.281   5.608 -1.1222 -0.4629  0.2063
   83MOL    C2129705   6.459   3.393   5.705 -0.0807 -0.0418  0.0850
   83MOL    C2229706   6.416   3.350   5.847 -0.2064  0.3168  0.1632
   83MOL    O2329707   6.296   3.352   5.879  0.5177 -0.0119 -0.1774
   83MOL    O2429708   6.522   3.304   5.928 -0.4601  0.3754  0.6046
   83MOL    C2529709   6.494   3.257   6.059 -0.0990  0.0937  0.4872
   83MOL    C2629710   6.611   3.286   6.163 -0.5719  0.1684  0.5293
   83MOL    C2729711   6.621   3.433   6.189  0.2434 -0.0814  0.2240
   83MOL    H2829712   6.486   3.324   5.508 -1.3613  1.2936  0.9350
   83MOL    H2929713   6.568   3.221   5.643 -1.1402  0.3486  1.6638
   83MOL    H3029714   6.368   3.436   5.662  0.6279  0.8160 -0.5982
   83MOL    H3129715   6.403   3.312   6.082  1.0008  1.1892  2.3967
   83MOL    H3229716   6.467   3.151   6.051 -4.4744  1.2910 -2.3689
   83MOL    H3329717   6.596   3.231   6.256 -0.9477  1.5521  1.2854
   83MOL    H3429718   6.707   3.248   6.128 -0.6468  0.8772 -0.4532
   83MOL    H3529719   6.553   3.447   6.273 -0.7329 -0.7997 -0.4433
   83MOL    H3629720   6.588   3.496   6.106 -2.4832 -1.1200  0.4608
   83MOL    H3729721   6.712   3.464   6.240 -0.2131 -0.7905  1.4883
   83MOL    C3829722   6.561   3.515   5.706 -0.6825 -0.3235  0.2108
   83MOL    C3929723   6.605   3.569   5.566  0.5174 -0.0355 -0.2153
   83MOL    C4029724   6.486   3.608   5.482 -0.0718  0.2795  0.8146
   83MOL    O4129725   6.376   3.645   5.530 -1.0436  0.0896 -0.2700
   83MOL    O4229726   6.508   3.580   5.350 -0.0962 -0.0762  0.0732
   83MOL    C4329727   6.406   3.590   5.252  0.3253 -0.8648  0.3258
   83MOL    C4429728   6.440   3.482   5.143  0.1463  0.0545  0.0345
   83MOL    C4529729   6.426   3.336   5.191 -0.3835  0.9658 -0.0986
   83MOL    H4629730   6.654   3.481   5.752  2.4584  1.3114 -4.5003
   83MOL    H4729731   6.520   3.587   5.777  2.3609 -0.7887  2.5399
   83MOL    H4829732   6.649   3.483   5.516  2.6537 -0.1166  1.6815
   83MOL    H4929733   6.308   3.569   5.295  0.2423 -0.0405  0.5483
   83MOL    H5029734   6.397   3.687   5.202 -0.9790 -1.1032  0.0792
   83MOL    H5129735   6.382   3.497   5.052 -1.0899 -0.3450  0.7445
   83MOL    H5229736   6.542   3.496   5.109 -0.6556  2.0959 -1.6407
   83MOL    H5329737   6.448   3.267   5.109  0.5227  1.3201 -0.1576
   83MOL    H5429738   6.320   3.321   5.211 -0.5946  0.1654 -1.7060
   83MOL    H5529739   6.497   3.307   5.268  0.5181  0.0187 -1.2713
   83MOL    C5629740   6.711   3.682   5.571  0.5395  0.2064 -0.3797
   83MOL    C5729741   6.838   3.654   5.648  0.1949  0.0951 -0.0921
   83MOL    C5829742   6.921   3.537   5.585  0.3314  0.0131 -0.3124
   83MOL    O5929743   6.990   3.559   5.488  0.1989 -0.2550  0.0876
   83MOL    O6029744   6.900   3.413   5.635  0.3580 -0.2832 -0.2050
   83MOL    C6129745   6.961   3.306   5.571 -0.5510 -0.0996 -0.4648
   83MOL    C6229746   6.973   3.185   5.670 -0.0576 -0.5305 -0.2331
   83MOL    C6329747   7.020   3.069   5.582  0.3926  0.1940 -0.2934
   83MOL    H6429748   6.659   3.756   5.633  1.0341 -1.5501  2.2356
   83MOL    H6529749   6.715   3.729   5.473  0.5203  0.5063 -0.2383
   83MOL    H6629750   6.820   3.617   5.749 -0.5403  1.8198  0.4245
   83MOL    H6729751   6.901   3.283   5.483  0.0932  0.2730 -1.0118
   83MOL    H6829752   7.060   3.336   5.536 -0.3221 -1.2664 -0.8319
   83MOL    H6929753   7.038   3.201   5.755  0.8384  1.3166 -1.2441
   83MOL    H7029754   6.876   3.152   5.707 -0.5904 -0.1260 -1.2328
   83MOL    H7129755   7.117   3.083   5.534  1.0657 -1.3960  0.5739
   83MOL    H7229756   6.951   3.041   5.503 -0.0733  0.5135 -0.0049
   83MOL    H7329757   7.038   2.980   5.641  0.8645  0.6235  0.2208
   83MOL    C7429758   6.927   3.780   5.663  0.2193 -0.2674  0.0829
   83MOL    C7529759   6.868   3.909   5.722 -0.2766  0.0302  0.1197
   83MOL    C7629760   6.854   3.887   5.873  0.7751  0.5620 -0.3886
   83MOL    O7729761   6.961   3.869   5.938 -0.1824  0.6412 -0.2758
   83MOL    O7829762   6.730   3.871   5.914  0.2299  0.2360  1.0333
   83MOL    C7929763   6.701   3.825   6.045  0.0320  0.0437  0.1299
   83MOL    C8029764   6.575   3.886   6.108  0.6025  0.8949  0.4067
   83MOL    C8129765   6.594   4.037   6.118  0.8526 -0.0286  0.2058
   83MOL    H8229766   6.949   3.804   5.559  0.2884  1.9320  0.5765
   83MOL    H8329767   7.019   3.759   5.718 -0.6812 -1.3758  1.1807
   83MOL    H8429768   6.765   3.914   5.685 -0.7019 -1.8243  0.9880
   83MOL    H8529769   6.693   3.716   6.042 -0.3500  0.0892 -0.5534
   83MOL    H8629770   6.779   3.839   6.120 -0.0997  1.6305 -0.0181
   83MOL    H8729771   6.482   3.867   6.054  0.8377  1.1915 -0.1083
   83MOL    H8829772   6.563   3.844   6.208  1.8969 -1.7816 -0.5078
   83MOL    H8929773   6.511   4.060   6.184  0.8498  0.2358  0.1099
   83MOL    H9029774   6.572   4.087   6.024 -2.0269  0.3169  1.0391
   83MOL    H9129775   6.693   4.076   6.140  0.2210  0.4474  2.3023
   83MOL    C9229776   6.944   4.033   5.676 -0.4727  0.4450  0.1063
   83MOL    C9329777   6.887   4.170   5.708  0.3100 -0.0613  0.8301
   83MOL    C9429778   6.767   4.201   5.623  0.8808  1.1759  0.3530
   83MOL    O9529779   6.762   4.301   5.546  0.0949  0.9549  0.0469
   83MOL    O9629780   6.670   4.114   5.641 -0.0902 -0.6057  0.4568
   83MOL    C9729781   6.550   4.127   5.572  0.3604 -0.8032 -0.3877
   83MOL    C9829782   6.468   4.002   5.576  0.5286 -0.3371  0.0160
   83MOL    C9929783   6.405   3.976   5.714  0.9503  0.5223 -0.3967
   83MOL   H10029784   6.956   4.012   5.569  0.1919  1.0535  0.0570
   83MOL   H10129785   7.042   4.028   5.724  0.0295  1.1452 -0.8160
   83MOL   H10229786   6.958   4.235   5.657  0.1607 -0.4901  0.0681
   83MOL   H10329787   6.491   4.208   5.615 -0.9628 -2.2703  0.5966
   83MOL   H10429788   6.573   4.157   5.470  0.1984 -1.9538 -0.7603
   83MOL   H10529789   6.388   4.024   5.506 -0.1300 -3.4461 -0.2975
   83MOL   H10629790   6.517   3.916   5.529  1.3424  0.3629 -0.4158
   83MOL   H10729791   6.347   4.064   5.742 -0.5990  0.1437 -2.3363
   83MOL   H10829792   6.490   3.960   5.781 -0.2186 -0.7784  0.8151
   83MOL   H10929793   6.337   3.891   5.712 -0.7003  1.7532  1.2229
   83MOL   C11029794   6.869   4.199   5.862  0.0549 -0.3670  1.1868
   83MOL   C11129795   6.884   4.346   5.899 -0.0146  0.2672  0.1492
   83MOL   C11229796   6.841   4.365   6.047  0.5519 -0.6631  0.1455
   83MOL   O11329797   6.784   4.470   6.081 -0.5978  0.1541  0.1188
   83MOL   O11429798   6.880   4.263   6.119 -0.2137 -0.2535 -0.2507
   83MOL   C11529799   6.883   4.272   6.263 -0.3552 -0.7604 -0.0111
   83MOL   C11629800   7.004   4.203   6.319  0.6582 -0.1726  0.4654
   83MOL   C11729801   7.035   4.067   6.255  0.1580  0.0157 -0.2363
   83MOL   H11829802   6.946   4.146   5.918 -0.2686  1.5545  3.5011
   83MOL   H11929803   6.771   4.165   5.895  0.2394 -0.2931  1.8124
   83MOL   H12029804   6.811   4.402   5.840 -1.5530 -0.4532  1.3110
   83MOL   H12129805   6.863   4.369   6.311  1.9109 -0.0422 -0.4820
   83MOL   H12229806   6.794   4.213   6.284 -1.5535  0.4643 -1.4998
   83MOL   H12329807   7.083   4.278   6.310  0.0999  0.4346  0.5872
   83MOL   H12429808   6.991   4.172   6.423  1.2140 -0.5568  0.4198
   83MOL   H12529809   6.961   3.990   6.276  2.1508 -1.8853 -0.0442
   83MOL   H12629810   7.121   4.019   6.303  0.2243  0.3620 -0.0005
   83MOL   H12729811   7.047   4.074   6.147 -1.6347 -3.7879 -0.7521
   83MOL   C12829812   7.017   4.416   5.877 -0.3997 -0.0531 -0.2792
   83MOL   C12929813   7.146   4.369   5.947  0.1406 -0.1527  0.0820
   83MOL   C13029814   7.205   4.241   5.880  0.0407  0.4969 -0.6879
   83MOL   O13129815   7.242   4.253   5.760 -0.0854  0.7521 -0.7126
   83MOL   O13229816   7.222   4.140   5.965  0.1866  0.0257  0.0797
   83MOL   C13329817   7.272   4.015   5.921 -1.0896  0.1910 -0.0210
   83MOL   C13429818   7.412   4.031   5.868  0.6797  0.2330 -0.0014
   83MOL   C13529819   7.517   4.125   5.941 -0.4310  1.0841 -0.0676
   83MOL   H13629820   7.003   4.518   5.914 -1.0423 -0.4992  0.7284
   83MOL   H13729821   7.034   4.431   5.771  1.6223 -1.0969 -0.1179
   83MOL   H13829822   7.143   4.344   6.053  0.3265 -0.3105  0.0511
   83MOL   H13929823   7.272   3.936   5.996  1.2247 -0.6530 -0.8501
   83MOL   H14029824   7.208   3.983   5.838 -2.6799  0.9667  0.8920
   83MOL   H14129825   7.438   3.925   5.864 -1.0423 -0.1570 -1.6105
   83MOL   H14229826   7.415   4.053   5.762  1.9348  0.6059  0.1043
   83MOL   H14329827   7.556   4.082   6.033  0.5182  0.5077 -0.7320
   83MOL   H14429828   7.476   4.225   5.955 -0.3506  1.2356 -0.9103
   83MOL   H14529829   7.600   4.143   5.873 -0.7914  0.2020 -0.7395
   83MOL   C14629830   7.259   4.474   5.941  0.2086 -0.4236 -0.0883
   83MOL   C14729831   7.255   4.583   6.054  0.1227 -0.2293  0.3820
   83MOL   C14829832   7.296   4.519   6.187  1.0685 -0.4994  0.1319
   83MOL   O14929833   7.218   4.499   6.284 -1.0676 -0.7068 -0.0599
   83MOL   O15029834   7.427   4.478   6.180 -0.8473 -0.0162  0.4183
   83MOL   C15129835   7.498   4.407   6.275 -0.1491 -0.2484 -0.6254
   83MOL   C15229836   7.648   4.426   6.270  0.2985  0.2293  0.0303
   83MOL   C15329837   7.719   4.353   6.158 -0.0247 -0.7694 -0.1407
   83MOL   H15429838   7.240   4.520   5.843 -2.0803 -0.8230  0.1450
   83MOL   H15529839   7.359   4.431   5.936  0.0309 -1.3946  3.3876
   83MOL   H15629840   7.155   4.624   6.062  0.3598  0.3969  0.1539
   83MOL   H15729841   7.457   4.427   6.374 -0.5663 -1.3557 -0.5745
   83MOL   H15829842   7.481   4.301   6.260 -1.3590 -0.0643 -0.6165
   83MOL   H15929843   7.683   4.529   6.274  0.7845  0.0439  0.8160
   83MOL   H16029844   7.676   4.383   6.367 -1.4671  2.2775  1.4832
   83MOL   H16129845   7.676   4.254   6.173 -0.3405 -0.6699 -0.3957
   83MOL   H16229846   7.825   4.345   6.182  0.0554  2.0905  0.6618
   83MOL   H16329847   7.707   4.406   6.064  2.4404  0.8724  0.4089
   83MOL   C16429848   7.342   4.700   6.015  0.0354  0.2170  0.4199
   83MOL   C16529849   7.343   4.818   6.109 -0.3243  0.0955  0.2761
   83MOL   C16629850   7.461   4.915   6.078 -0.1129  0.2977  0.7273
   83MOL   O16729851   7.449   5.024   6.028  0.9253 -0.6510 -0.0667
   83MOL   O16829852   7.577   4.863   6.119 -0.2488  0.0333 -0.0010
   83MOL   C16929853   7.704   4.909   6.074  0.0411 -0.0034 -0.3048
   83MOL   C17029854   7.806   4.797   6.105  0.0823  0.1244  0.1051
   83MOL   C17129855   7.775   4.676   6.020 -1.0564 -0.0467 -0.0612
   83MOL   H17229856   7.316   4.741   5.918  1.2534  0.0119 -0.0047
   83MOL   H17329857   7.445   4.669   5.994 -0.1985  1.5162 -2.9662
   83MOL   H17429858   7.373   4.778   6.205 -0.5466 -1.0761 -0.1317
   83MOL   H17529859   7.707   4.941   5.970  0.3169  0.5836 -0.1195
   83MOL   H17629860   7.733   4.996   6.134 -1.2252 -1.2362  2.1528
   83MOL   H17729861   0.031   4.824   6.099  0.7503 -2.5188 -1.2046
   83MOL   H17829862   7.800   4.779   6.213  1.2021  0.9627  0.3146
   83MOL   H17929863   7.762   4.708   5.917 -1.9524 -2.0189 -0.5875
   83MOL   H18029864   7.690   4.616   6.055 -1.0066  0.2575  0.5885
   83MOL   H18129865   7.856   4.603   6.026  0.0167  0.9997 -1.5365
   83MOL   C18229866   7.203   4.888   6.110  0.0740  0.2991 -0.5051
   83MOL   C18329867   7.164   4.928   6.260 -0.3128 -0.1127  0.4099
   83MOL   C18429868   7.163   5.079   6.272  0.9836 -0.7777 -0.4402
   83MOL   O18529869   7.230   5.125   6.357 -0.1241 -0.0094  0.1699
   83MOL   O18629870   7.084   5.153   6.191  0.1896 -0.7561 -0.2231
   83MOL   C18729871   7.069   5.296   6.216  0.0859  0.0774 -0.7463
   83MOL   C18829872   6.928   5.328   6.271  0.0897 -0.4352 -0.9101
   83MOL   C18929873   6.825   5.289   6.167  0.3241 -0.3189  0.0372
   83MOL   H19029874   7.124   4.815   6.090 -0.7368  1.4767 -1.7195
   83MOL   H19129875   7.196   4.972   6.041 -1.7862  1.9757  1.6494
   83MOL   H19229876   7.244   4.887   6.322 -0.7646 -1.0233  0.4050
   83MOL   H19329877   7.149   5.335   6.278 -2.2378  1.6161  1.3381
   83MOL   H19429878   7.087   5.350   6.123  3.0014  0.8861  0.2539
   83MOL   H19529879   6.918   5.286   6.371 -1.7561  1.2886 -0.3587
   83MOL   H19629880   6.915   5.435   6.285  1.6168 -0.1615 -1.3879
   83MOL   H19729881   6.819   5.180   6.160  1.9064 -0.6801  3.4904
   83MOL   H19829882   6.847   5.338   6.072 -0.7267 -0.1197 -0.1079
   83MOL   H19929883   6.731   5.336   6.194  1.5155  0.6230  2.7328
   83MOL   C20029884   7.036   4.872   6.310 -0.7496 -0.1436  0.3538
   83MOL   C20129885   7.021   4.894   6.462 -0.8097  0.1317  0.3802
   83MOL   C20229886   6.872   4.879   6.488  0.2620  0.3664  0.0216
   83MOL   O20329887   6.803   4.975   6.522  0.0830 -0.1084  0.3093
   83MOL   O20429888   6.833   4.755   6.468  0.2059  0.5671 -0.5403
   83MOL   C20529889   6.698   4.720   6.482  0.1993  0.1109 -0.5192
   83MOL   C20629890   6.682   4.664   6.625 -0.0479 -1.3609 -0.5233
   83MOL   C20729891   6.767   4.541   6.651 -0.0070  0.0210 -0.8156
   83MOL   H20829892   7.033   4.766   6.284  0.2491 -0.3964  1.2078
   83MOL   H20929893   6.950   4.907   6.253  1.0372  0.2467 -2.1782
   83MOL   H21029894   7.037   5.000   6.479 -3.3657  0.3511  1.6693
   83MOL   H21129895   6.631   4.804   6.462  2.0020  2.3525  2.4377
   83MOL   H21229896   6.681   4.653   6.397  2.0184 -0.6600 -0.3069
   83MOL   H21329897   6.694   4.742   6.700 -1.2758 -0.8609 -0.8385
   83MOL   H21429898   6.580   4.627   6.640  0.4411 -1.5220  2.8892
   83MOL   H21529899   6.707   4.477   6.716 -0.1815  0.2086 -0.7896
   83MOL   H21629900   6.856   4.555   6.711 -0.9041 -2.2502  1.1448
   83MOL   H21729901   6.795   4.480   6.565  0.1375  0.1840 -0.8839
   83MOL   C21829902   7.120   4.814   6.545  0.1601  0.4970  0.6975
   83MOL   C21929903   7.222   4.904   6.619  0.1018 -0.5671  0.2933
   83MOL   C22029904   7.156   5.013   6.703  0.4227  0.4971  0.2555
   83MOL   O22129905   7.042   5.004   6.743  0.9242  0.7774 -0.1113
   83MOL   O22229906   7.245   5.116   6.732  0.6584 -0.0431 -0.0539
   83MOL   C22329907   7.194   5.226   6.802 -0.4993 -0.2533 -0.3284
   83MOL   C22429908   7.166   5.343   6.713 -0.5123  0.6715  0.1263
   83MOL   C22529909   7.178   5.473   6.794  0.4449 -0.5220  0.0155
   83MOL   H22629910   7.180   4.739   6.493  0.2356 -0.2754  1.8866
   83MOL   H22729911   7.056   4.750   6.606  1.1129  0.5931  1.8171
   83MOL   H22829912   7.281   4.953   6.542 -0.2083 -0.3029  0.2207
   83MOL   H22929913   7.110   5.193   6.863 -0.0551 -0.9063 -0.0560
   83MOL   H23029914   7.277   5.257   6.866  0.1785 -0.2618 -1.1942
   83MOL   H23129915   7.242   5.352   6.634  0.9955 -0.6575  1.3980
   83MOL   H23229916   7.068   5.322   6.670 -1.5369  1.6017  1.9624
   83MOL   H23329917   7.267   5.477   6.857 -1.1928 -2.7945  2.5619
   83MOL   H23429918   7.084   5.487   6.848  1.3085 -0.3824  1.4962
   83MOL   H23529919   7.187   5.559   6.727 -1.1280 -0.9634 -0.7849
   83MOL   C23629920   7.313   4.813   6.719 -0.8322  0.7719  0.2390
   83MOL   C23729921   7.398   4.700   6.641  0.5096  0.5871 -0.0554
   83MOL   C23829922   7.484   4.751   6.523 -0.5377  0.8772  0.2296
   83MOL   O23929923   7.490   4.680   6.424  0.4265  0.3466 -0.3626
   83MOL   O24029924   7.553   4.860   6.550  0.2580 -0.7160 -0.9557
   83MOL   C24129925   7.649   4.905   6.465 -0.3773  0.0752 -0.3251
   83MOL   C24229926   7.715   5.040   6.512  0.5927  0.4125 -0.3973
   83MOL   C24329927   7.606   5.150   6.507 -0.5686  0.6230  0.0252
   83MOL   H24429928   7.256   4.777   6.804 -1.4919  1.6227  0.1647
   83MOL   H24529929   7.391   4.884   6.747  0.2719 -0.0335 -0.7300
   83MOL   H24629930   7.330   4.623   6.604  0.1896  0.2242  1.2522
   83MOL   H24729931   7.737   4.841   6.471 -0.8391 -0.8082 -2.4759
   83MOL   H24829932   7.615   4.911   6.362  1.3110  0.7697 -0.8531
   83MOL   H24929933   7.759   5.038   6.611 -0.4988  1.2469  0.1134
   83MOL   H25029934   7.797   5.057   6.442  1.7110 -1.1873  0.4996
   83MOL   H25129935   7.568   5.164   6.406 -0.2703 -2.0117 -0.4827
   83MOL   H25229936   7.653   5.245   6.534 -0.0097  0.1960  0.5761
   83MOL   H25329937   7.527   5.127   6.578 -0.9963  0.0157 -0.6354
   83MOL   C25429938   7.484   4.611   6.740  0.6227  0.3734  0.4433
   83MOL   C25529939   7.502   4.467   6.686 -0.1745 -0.0584  0.4990
   83MOL   C25629940   7.628   4.407   6.750 -0.1481  0.3465  0.0059
   83MOL   O25729941   7.707   4.343   6.678  0.2736  0.1946 -0.3279
   83MOL   O25829942   7.639   4.425   6.882  0.0519  0.0534  0.4515
   83MOL   C25929943   7.729   4.348   6.950 -0.5617 -0.0654 -0.2694
   83MOL   C26029944   7.662   4.281   7.073 -0.5488  0.8603  0.0784
   83MOL   C26129945   7.569   4.165   7.029  0.3613 -0.1863  0.0486
   83MOL   H26229946   7.428   4.598   6.832 -0.9088 -1.1744 -0.6837
   83MOL   H26329947   7.579   4.654   6.772  1.5034 -0.7296 -0.6368
   83MOL   H26429948   7.520   4.482   6.580  0.1564  0.2069  0.5910
   83MOL   H26529949   7.786   4.279   6.889  2.2067  1.4658  0.5209
   83MOL   H26629950   7.803   4.414   6.994  0.7376  0.9401 -3.7567
   83MOL   H26729951   7.743   4.245   7.136 -2.0164  0.3211  1.6917
   83MOL   H26829952   7.618   4.357   7.138 -1.0625  0.1598  0.5505
   83MOL   H26929953   7.461   4.176   7.037  0.0152 -3.2299  0.1691
   83MOL   H27029954   7.598   4.082   7.094  0.3317  0.3317  0.7348
   83MOL   H27129955   7.594   4.122   6.932  1.7545  0.6271  0.0206
   83MOL   C27229956   7.376   4.378   6.708 -0.5743 -0.5819  0.2017
   83MOL   C27329957   7.398   4.227   6.682  0.5474 -0.5049 -0.5686
   83MOL   C27429958   7.277   4.153   6.738 -0.2486 -0.1333  0.2497
   83MOL   O27529959   7.290   4.050   6.810  0.6561 -0.2734 -0.6109
   83MOL   O27629960   7.159   4.191   6.679 -0.3974 -0.3526  0.1339
   83MOL   C27729961   7.042   4.132   6.726 -0.1071  0.6426 -0.3736
   83MOL   C27829962   6.952   4.248   6.777  0.0341 -0.9047 -0.8613
   83MOL   C27929963   7.016   4.346   6.880  0.0478  0.5167 -0.5558
   83MOL   H28029964   7.299   4.414   6.639 -1.5705 -2.3660  0.3554
   83MOL   H28129965   7.343   4.388   6.811 -0.8037 -2.3555  0.3241
   83MOL   H28229966   7.479   4.187   6.744 -0.8577 -1.0537  0.9539
   83MOL   H28329967   6.999   4.077   6.643 -0.2612 -1.2127  0.9017
   83MOL   H28429968   7.066   4.058   6.802 -1.1738 -1.5582 -2.1406
   83MOL   H28529969   6.934   4.301   6.684  1.8811  1.1044 -0.1114
   83MOL   H28629970   6.859   4.201   6.812 -0.5250  1.3294  0.7816
   83MOL   H28729971   7.046   4.279   6.960  1.9199  2.8238  0.7135
   83MOL   H28829972   6.940   4.415   6.918 -0.2142 -0.2100  0.2332
   83MOL   H28929973   7.103   4.405   6.851 -0.2002  0.9854 -0.3524
   83MOL   C29029974   7.424   4.192   6.531  0.3538 -0.3663 -0.1156
   83MOL   C29129975   7.482   4.049   6.500  1.0884  0.7297 -0.2816
   83MOL   C29229976   7.447   3.997   6.359 -0.6728 -0.1155  0.4041
   83MOL   O29329977   7.402   4.067   6.269  0.0361 -0.2745 -0.0250
   83MOL   O29429978   7.487   3.870   6.340  0.8289  0.2318 -0.1161
   83MOL   C29529979   7.478   3.807   6.215  0.1765  0.4309 -0.2154
   83MOL   C29629980   7.357   3.710   6.188 -0.0775 -0.3556  0.4466
   83MOL   C29729981   7.374   3.646   6.062 -0.1809  0.6628  0.5086
   83MOL   H29829982   7.498   4.257   6.485  0.3930 -0.2954  0.0491
   83MOL   H29929983   7.333   4.209   6.474  0.0908  1.3881  0.8384
   83MOL   H30029984   7.439   3.985   6.576  1.5105 -0.7616 -1.2697
   83MOL   H30129985   7.478   3.875   6.130 -0.7350  2.0017  1.0134
   83MOL   H30229986   7.575   3.757   6.212  0.7111  1.4425  0.0807
   83MOL   H30329987   7.333   3.631   6.260 -0.5110 -1.0214 -0.4241
   83MOL   H30429988   7.273   3.778   6.174  0.4387  0.1142 -0.4607
   83MOL   H30529989   7.467   3.589   6.061  0.8618  2.3058  0.4267
   83MOL   H30629990   7.392   3.722   5.986  1.0826  0.2932  0.4268
   83MOL   H30729991   7.290   3.586   6.029  2.8476 -4.3973  1.5026
   83MOL   C30829992   7.639   4.036   6.525 -0.9199 -0.3667 -0.2940
   83MOL   C30929993   7.701   3.891   6.532 -0.3784  0.3331  0.3616
   83MOL   C31029994   7.850   3.893   6.540  0.0541  0.0835 -0.1541
   83MOL   O31129995   0.041   3.860   6.444 -0.4068 -0.5500  0.0114
   83MOL   O31229996   0.010   3.943   6.653  0.0270  0.9542  0.2575
   83MOL   C31329997   0.150   3.960   6.680 -0.0384 -0.2035 -0.1375
   83MOL   C31429998   0.172   4.062   6.790  0.1778  0.1593 -0.8842
   83MOL   C31529999   0.101   4.025   6.921  0.1162  0.3870  0.3954
   83MOL   H31630000   7.677   4.089   6.613 -1.6941 -0.6322  0.2041
   83MOL   H31730001   7.689   4.091   6.445  1.5652 -0.8734  0.8716
   83MOL   H31830002   7.683   3.833   6.442  0.7220  0.2993  0.1458
   83MOL   H31930003   0.184   3.862   6.711  1.3939 -0.4934 -2.5356
   83MOL   H32030004   0.205   3.986   6.590 -0.0165  2.9837  0.7353
   83MOL   H32130005   0.278   4.049   6.809  0.4451  0.5505 -2.0973
   83MOL   H32230006   0.164   4.167   6.762  3.8376  1.2344  1.7893
   83MOL   H32330007   0.103   3.924   6.963 -0.6096  0.5553  0.8537
   83MOL   H32430008   0.148   4.085   6.999 -2.3712  1.0441  1.4438
   83MOL   H32530009   7.876   4.052   6.917  0.6198  2.1886 -0.9557
   83MOL   C32630010   7.637   3.810   6.658  0.4521 -0.5322  0.4777
   83MOL   C32730011   7.656   3.657   6.636  0.2317  0.1252 -0.3079
   83MOL   C32830012   7.723   3.597   6.761 -0.0587  0.6819  0.5815
   83MOL   O32930013   7.672   3.504   6.824 -0.0219  0.1654  0.0717
   83MOL   O33030014   7.843   3.650   6.790  0.1079 -0.2621  0.2550
   83MOL   C33130015   0.036   3.607   6.909  0.0592 -0.9070  0.5439
   83MOL   C33230016   0.139   3.506   6.863 -0.1175  0.1103  0.4118
   83MOL   C33330017   0.083   3.367   6.825  0.1236 -0.1481 -0.4418
   83MOL   H33430018   7.528   3.818   6.661  0.5172 -0.1502  2.4931
   83MOL   H33530019   7.667   3.848   6.756  1.8687  0.5664 -0.3605
   83MOL   H33630020   7.734   3.648   6.561 -0.0348 -0.8447 -0.4826
   83MOL   H33730021   0.092   3.681   6.966  1.5704 -1.3504 -0.3457
   83MOL   H33830022   7.838   3.572   6.976 -1.3509  0.7055 -0.2305
   83MOL   H33930023   0.207   3.549   6.789 -0.3959  3.3459  1.9616
   83MOL   H34030024   0.208   3.491   6.946  1.7772  1.9819 -0.7640
   83MOL   H34130025   0.176   3.311   6.816  0.9825  0.9475  1.3539
   83MOL   H34230026   0.031   3.326   6.912  2.3046  1.6551  1.7830
   83MOL   H34330027   0.023   3.368   6.734  1.6795 -2.8740 -1.5674
   83MOL   C34430028   7.525   3.579   6.580 -0.1480 -1.0881 -0.9828
   83MOL   C34530029   7.554   3.449   6.503  0.4666 -0.0726  0.5339
   83MOL   C34630030   7.428   3.373   6.489  0.1271  0.2942  0.1373
   83MOL   O34730031   7.325   3.422   6.444  0.0892 -0.1784  0.7985
   83MOL   O34830032   7.445   3.250   6.531 -0.2158  0.3326 -0.0642
   83MOL   C34930033   7.359   3.158   6.476  0.2129 -0.4149 -0.3780
   83MOL   C35030034   7.367   3.018   6.529  0.0680  0.5168 -0.2156
   83MOL   C35130035   7.336   3.012   6.686 -0.1626  0.2972  0.1635
   83MOL   H35230036   7.472   3.644   6.510  0.3672 -0.3621 -0.6990
   83MOL   H35330037   7.458   3.560   6.664  0.1275  0.6210 -0.3601
   83MOL   H35430038   7.627   3.386   6.553  1.0019  0.5412  0.5302
   83MOL   H35530039   7.256   3.191   6.489 -0.0184 -1.7215  1.2051
   83MOL   H35630040   7.371   3.155   6.367 -0.6639  0.4082 -0.5020
   83MOL   H35730041   7.294   2.955   6.479  0.6657 -0.9957  0.7975
   83MOL   H35830042   7.455   2.960   6.502 -0.7162 -0.7915  0.0196
   83MOL   H35930043   7.412   3.072   6.736 -1.0272  1.3572  0.2167
   83MOL   H36030044   7.247   3.062   6.724  1.9605  3.8549  0.6088
   83MOL   H36130045   7.360   2.910   6.716  0.1149  0.5235  0.7031
   83MOL   H36230046   7.607   3.466   6.410 -2.8983  1.4857 -1.2262
   84MOL     C130047   5.410   4.733   1.164 -0.3857  0.1572 -0.8075
   84MOL     C230048   5.367   4.829   1.054 -0.2745 -0.0817  0.0168
   84MOL     C330049   5.287   4.954   1.121  1.2383  0.5646  0.4354
   84MOL     O430050   5.275   4.965   1.246  0.0246 -0.2920  0.2149
   84MOL     O530051   5.218   5.021   1.040 -0.1074  0.2831 -0.1764
   84MOL     C630052   5.161   5.146   1.081 -0.5777 -0.5607 -0.3735
   84MOL     C730053   5.208   5.253   0.990 -0.1426 -0.5907  0.0033
   84MOL     C830054   5.187   5.224   0.845  0.1609  0.4926 -0.5273
   84MOL     H930055   5.489   4.776   1.226 -4.3817  0.9366  4.0248
   84MOL    H1030056   5.325   4.708   1.228 -0.3069 -0.1455 -0.8177
   84MOL    H1130057   5.296   4.786   0.984 -0.6962 -1.2483  1.1408
   84MOL    H1230058   5.053   5.135   1.083 -0.3367 -3.0494  1.3477
   84MOL    H1330059   5.175   5.176   1.185 -0.2189  0.8605 -0.8205
   84MOL    H1430060   5.143   5.335   1.019 -0.2779 -1.0037  0.8747
   84MOL    H1530061   5.310   5.278   1.019 -0.6254 -0.1442  1.3589
   84MOL    H1630062   5.091   5.180   0.819  0.6408  0.3996 -2.2766
   84MOL    H1730063   5.205   5.303   0.772 -1.7303  0.1133 -1.4368
   84MOL    H1830064   5.263   5.151   0.815 -2.7867 -1.8300 -2.6325
   84MOL    H1930065   5.456   4.647   1.115  1.9362  1.7247 -1.4643
   84MOL    C2030066   5.489   4.868   0.964 -0.7216  0.2531  0.3093
   84MOL    C2130067   5.553   4.755   0.878 -0.1309 -0.5737 -0.1728
   84MOL    C2230068   5.469   4.744   0.748 -0.5311  0.5447  0.0616
   84MOL    O2330069   5.471   4.833   0.663 -0.0387  0.0935  0.0719
   84MOL    O2430070   5.402   4.628   0.737  0.2621 -0.7657 -0.1617
   84MOL    C2530071   5.298   4.621   0.639 -0.2251 -0.1494 -0.0931
   84MOL    C2630072   5.258   4.480   0.586 -0.3752 -0.3396  0.1043
   84MOL    C2730073   5.128   4.492   0.503 -0.5802  0.3773 -0.7450
   84MOL    H2830074   5.555   4.895   1.046 -2.1048  3.0820  0.5472
   84MOL    H2930075   5.464   4.958   0.908 -2.5033 -1.1812 -1.2880
   84MOL    H3030076   5.557   4.658   0.929  0.1479 -1.0725 -1.1284
   84MOL    H3130077   5.206   4.659   0.684 -0.6596 -1.0511 -0.2181
   84MOL    H3230078   5.330   4.674   0.549 -0.0150 -0.0919  0.0165
   84MOL    H3330079   5.339   4.453   0.518 -0.4324  0.1587 -0.1637
   84MOL    H3430080   5.244   4.396   0.654  0.3323 -0.2672  0.3427
   84MOL    H3530081   5.052   4.556   0.547  0.2315  1.4010 -0.8275
   84MOL    H3630082   5.102   4.388   0.481  0.0787 -0.1483  0.8018
   84MOL    H3730083   5.152   4.536   0.407  0.2860  1.0510 -0.2312
   84MOL    C3830084   5.703   4.778   0.841 -0.2448 -0.4929  0.7388
   84MOL    C3930085   5.768   4.657   0.777 -0.4785  0.6325 -0.5594
   84MOL    C4030086   5.899   4.698   0.709  0.3779  0.2171 -0.0232
   84MOL    O4130087   5.919   4.669   0.590  0.1783  0.1528 -0.0668
   84MOL    O4230088   5.983   4.767   0.787 -0.6235  0.0587 -0.1819
   84MOL    C4330089   6.102   4.827   0.741 -0.2373  0.4550  0.0060
   84MOL    C4430090   6.150   4.905   0.862  0.4548 -0.0202  0.0952
   84MOL    C4530091   6.295   4.957   0.842 -0.0770  0.0634  0.1153
   84MOL    H4630092   5.761   4.814   0.926  0.0996 -1.2948  0.8432
   84MOL    H4730093   5.704   4.857   0.766 -1.0729  1.6371  2.8757
   84MOL    H4830094   5.711   4.599   0.705 -0.3727 -4.0284  2.8238
   84MOL    H4930095   6.171   4.746   0.721 -0.5429  0.5098 -1.3445
   84MOL    H5030096   6.074   4.884   0.652 -1.9018 -0.3476  0.0004
   84MOL    H5130097   6.083   4.989   0.881  0.0587 -0.2277 -0.3878
   84MOL    H5230098   6.144   4.836   0.946 -2.3344  2.1988  1.8170
   84MOL    H5330099   6.363   4.872   0.847 -0.2211 -0.0831 -0.4579
   84MOL    H5430100   6.320   5.020   0.927 -0.7923  0.8115 -0.2220
   84MOL    H5530101   6.317   5.001   0.745 -2.4768 -0.1133 -0.5230
   84MOL    C5630102   5.802   4.545   0.884 -0.8572 -0.6642 -0.2974
   84MOL    C5730103   5.716   4.415   0.877  0.0335 -0.4251 -0.4945
   84MOL    C5830104   5.698   4.358   0.736 -0.3423  0.5022  0.0515
   84MOL    O5930105   5.590   4.321   0.703  0.2763  0.0375  0.4004
   84MOL    O6030106   5.824   4.338   0.673 -0.1584 -0.7028 -0.2281
   84MOL    C6130107   5.835   4.272   0.542  0.3526  0.5295 -0.4993
   84MOL    C6230108   5.790   4.369   0.425  0.2958  0.0032 -0.0979
   84MOL    C6330109   5.641   4.404   0.416  0.4944 -0.5536  0.9605
   84MOL    H6430110   5.800   4.577   0.988  1.2258 -2.3932  0.3315
   84MOL    H6530111   5.907   4.520   0.866  0.4082  3.4304  0.8783
   84MOL    H6630112   5.612   4.445   0.889 -0.4316 -1.1639 -2.4852
   84MOL    H6730113   5.941   4.248   0.530  0.5046  1.6351 -1.4288
   84MOL    H6830114   5.777   4.180   0.549  0.9739  0.1920  0.2386
   84MOL    H6930115   5.856   4.455   0.421 -0.7460  0.8427  0.5929
   84MOL    H7030116   5.812   4.323   0.328  0.6794 -1.4668  0.6554
   84MOL    H7130117   5.619   4.449   0.320  0.7198 -0.1893  1.0791
   84MOL    H7230118   5.617   4.474   0.496  0.7655 -2.7368  3.0500
   84MOL    H7330119   5.581   4.314   0.430  3.2425 -2.3962  1.3356
   84MOL    C7430120   5.749   4.305   0.982  0.1770  0.1027  0.3184
   84MOL    C7530121   5.642   4.201   0.999  0.1057  0.1991 -0.4742
   84MOL    C7630122   5.710   4.074   1.064 -0.0673  0.2886 -0.0374
   84MOL    O7730123   5.694   3.966   1.015  0.3117 -0.4864  0.2561
   84MOL    O7830124   5.788   4.096   1.179  0.4586 -0.1319 -0.2163
   84MOL    C7930125   5.838   3.989   1.260 -0.1397  0.1709  0.6820
   84MOL    C8030126   5.985   3.968   1.221 -0.2526  1.0922 -0.7553
   84MOL    C8130127   6.069   4.094   1.215 -0.0343 -0.2591 -0.2145
   84MOL    H8230128   5.783   4.339   1.080 -0.0196 -0.8481  0.7209
   84MOL    H8330129   5.839   4.257   0.943  0.1339  0.4451 -0.2005
   84MOL    H8430130   5.611   4.169   0.899 -0.4184 -1.2009  0.1266
   84MOL    H8530131   5.834   4.027   1.363 -0.5253 -0.5058  0.9196
   84MOL    H8630132   5.787   3.894   1.250 -2.3777  1.5146 -1.1269
   84MOL    H8730133   6.033   3.889   1.280 -1.1024  0.5497 -0.7930
   84MOL    H8830134   5.983   3.929   1.119  0.1108  1.4664 -0.9079
   84MOL    H8930135   6.093   4.125   1.316  1.5685  0.5149 -0.8092
   84MOL    H9030136   6.029   4.179   1.159  1.0936  1.7434  1.9144
   84MOL    H9130137   6.171   4.085   1.177  0.4639 -0.2346  1.1003
   84MOL    C9230138   5.511   4.254   1.074  0.0253  0.1421 -0.1145
   84MOL    C9330139   5.370   4.225   1.013  0.3332 -0.0951 -0.4990
   84MOL    C9430140   5.339   4.084   0.972  0.5795  0.0032  0.2420
   84MOL    O9530141   5.273   4.006   1.041 -0.0438  0.2445 -0.3248
   84MOL    O9630142   5.386   4.054   0.851  0.2513  0.1162 -0.5382
   84MOL    C9730143   5.367   3.919   0.808  0.4081 -0.5421  0.4031
   84MOL    C9830144   5.499   3.861   0.755 -0.0398 -0.4117 -0.2117
   84MOL    C9930145   5.537   3.898   0.617 -0.0459  1.1041  0.2341
   84MOL   H10030146   5.519   4.362   1.080 -0.2825  0.3463 -2.9344
   84MOL   H10130147   5.504   4.210   1.174  1.1550  0.6683  0.1948
   84MOL   H10230148   5.367   4.279   0.918  0.6044  1.6680  0.4644
   84MOL   H10330149   5.339   3.864   0.897 -2.0889  1.9414  1.2281
   84MOL   H10430150   5.286   3.919   0.735 -0.5643 -0.3047  1.4840
   84MOL   H10530151   5.578   3.886   0.826 -1.8692  4.6095  0.2712
   84MOL   H10630152   5.478   3.754   0.748 -1.5944 -0.3998  3.4352
   84MOL   H10730153   5.451   3.890   0.551  1.2834 -0.5085 -1.3497
   84MOL   H10830154   5.616   3.831   0.585 -2.3621 -1.3412 -0.5761
   84MOL   H10930155   5.575   4.000   0.621 -3.1521  2.2461  3.4921
   84MOL   C11030156   5.252   4.268   1.113 -0.2927 -0.4851 -0.3304
   84MOL   C11130157   5.220   4.423   1.121 -0.3054  0.0391  0.3409
   84MOL   C11230158   5.140   4.466   0.999  0.0790  0.3444  0.2931
   84MOL   O11330159   5.086   4.384   0.928 -0.3449  0.3736 -0.2243
   84MOL   O11430160   5.124   4.600   0.987 -0.5028  0.3947  0.4041
   84MOL   C11530161   5.024   4.671   0.919  0.3007  0.1492  0.4133
   84MOL   C11630162   4.908   4.711   1.018 -0.2453  0.1505 -0.0628
   84MOL   C11730163   4.932   4.849   1.073 -0.4312 -1.0851 -0.6439
   84MOL   H11830164   5.263   4.224   1.212  0.9558 -0.3611 -0.3998
   84MOL   H11930165   5.151   4.233   1.092 -1.2776  0.8126  2.0677
   84MOL   H12030166   5.312   4.476   1.097 -1.4905  2.3383  0.7745
   84MOL   H12130167   5.065   4.758   0.868 -2.6688  1.2623 -0.1595
   84MOL   H12230168   4.992   4.604   0.838  1.5302  0.0381  0.0089
   84MOL   H12330169   4.816   4.722   0.961 -0.0423 -1.1091 -0.6417
   84MOL   H12430170   4.881   4.639   1.096  1.1599 -3.5742 -2.8376
   84MOL   H12530171   5.002   4.843   1.156 -1.5764 -1.3046  0.3194
   84MOL   H12630172   4.841   4.891   1.117 -0.8409 -0.2655 -2.2228
   84MOL   H12730173   4.961   4.920   0.995 -1.0788 -0.0314  0.0586
   84MOL   C12830174   5.168   4.471   1.261 -0.2884 -0.7539 -0.1486
   84MOL   C12930175   5.041   4.404   1.315  0.7009  0.1093 -0.8595
   84MOL   C13030176   5.065   4.264   1.383 -0.0774 -0.6805  0.1716
   84MOL   O13130177   5.151   4.250   1.470  0.0581  0.1376  0.3741
   84MOL   O13230178   4.982   4.167   1.344 -0.3145  0.6059 -0.0453
   84MOL   C13330179   4.998   4.030   1.374 -0.0843  0.4840  0.7790
   84MOL   C13430180   4.893   3.932   1.314  0.2715 -0.2400 -0.7377
   84MOL   C13530181   4.909   3.914   1.160  0.2792  0.4349  0.1409
   84MOL   H13630182   5.154   4.578   1.247  1.9016 -0.4831 -0.3555
   84MOL   H13730183   5.248   4.452   1.332 -0.9458 -2.5744  0.1406
   84MOL   H13830184   4.972   4.376   1.236 -0.1166 -1.9437  0.5233
   84MOL   H13930185   5.101   4.000   1.351 -0.7753  0.6521 -2.8418
   84MOL   H14030186   5.007   4.018   1.482  1.4260 -2.2205  0.4074
   84MOL   H14130187   4.908   3.838   1.368  0.9487  0.9117  1.1348
   84MOL   H14230188   4.793   3.969   1.336  0.2136 -1.2099  0.7888
   84MOL   H14330189   4.899   4.005   1.102 -1.3578 -0.5710 -1.2133
   84MOL   H14430190   4.830   3.850   1.122  0.6703  1.2562 -2.1473
   84MOL   H14530191   5.001   3.871   1.120 -0.6185  0.2024 -1.7398
   84MOL   C14630192   4.955   4.489   1.406 -0.4338  0.1268 -0.1948
   84MOL   C14730193   5.016   4.549   1.532  0.3933 -0.0198  0.3254
   84MOL   C14830194   5.104   4.672   1.501 -0.1862 -0.6538 -0.0979
   84MOL   O14930195   5.064   4.770   1.432 -0.6255  0.2988 -0.0852
   84MOL   O15030196   5.218   4.657   1.552  0.2898  0.0401  0.6603
   84MOL   C15130197   5.313   4.761   1.532 -0.4256 -0.2789  0.5675
   84MOL   C15230198   5.369   4.806   1.667 -0.3265  0.4301 -1.3049
   84MOL   C15330199   5.444   4.943   1.675  0.2601  0.2136 -0.3723
   84MOL   H15430200   4.876   4.421   1.437  1.5461 -2.3702 -0.4581
   84MOL   H15530201   4.889   4.553   1.348  1.3262  1.3939 -0.8674
   84MOL   H15630202   5.080   4.471   1.573 -0.7107 -0.9784  0.2585
   84MOL   H15730203   5.395   4.720   1.472  1.8266  2.2595  1.7835
   84MOL   H15830204   5.269   4.844   1.477  2.5909  0.2708 -1.1373
   84MOL   H15930205   5.291   4.798   1.743  0.1296 -2.0232 -1.0703
   84MOL   H16030206   5.442   4.735   1.704 -1.5778 -0.1828  0.0428
   84MOL   H16130207   5.367   5.019   1.662 -0.3030 -0.4842 -1.2037
   84MOL   H16230208   5.523   4.943   1.600  2.0310  0.9348  1.4495
   84MOL   H16330209   5.496   4.968   1.767  0.1346 -1.1532  0.0844
   84MOL   C16430210   4.906   4.577   1.640  0.3510 -0.4601  0.7635
   84MOL   C16530211   4.967   4.608   1.783 -0.0092  0.0238  0.1716
   84MOL   C16630212   4.865   4.689   1.862  0.5594  0.0795  0.0709
   84MOL   O16730213   4.747   4.651   1.873 -0.0112  0.1040  0.0042
   84MOL   O16830214   4.916   4.800   1.912  0.0700 -0.0118 -0.2159
   84MOL   C16930215   4.840   4.888   1.989 -0.1178 -0.0897  0.7349
   84MOL   C17030216   4.927   4.953   2.092  0.3050 -0.2767 -0.6702
   84MOL   C17130217   4.841   5.025   2.195  0.2705 -0.4172  0.4639
   84MOL   H17230218   4.843   4.489   1.649 -3.4256  2.0044 -0.3511
   84MOL   H17330219   4.847   4.662   1.604  0.4442 -2.0302 -3.4178
   84MOL   H17430220   5.040   4.686   1.761  0.0863  0.1901  1.0613
   84MOL   H17530221   4.798   4.965   1.926 -1.4185  0.3308  2.0942
   84MOL   H17630222   4.750   4.838   2.024 -2.1941  1.6131 -1.9560
   84MOL   H17730223   4.988   4.875   2.138  0.8872  1.0696  0.8913
   84MOL   H17830224   4.995   5.022   2.041  1.2367 -1.2235 -0.7140
   84MOL   H17930225   4.755   4.982   2.247  1.3941 -0.0858  2.6747
   84MOL   H18030226   4.799   5.115   2.151 -0.1912 -0.5402  0.6502
   84MOL   H18130227   4.908   5.061   2.273 -0.4316 -0.1351  0.9475
   84MOL   C18230228   5.030   4.488   1.865 -0.3421 -0.3234 -0.0619
   84MOL   C18330229   4.948   4.364   1.897  0.7315  0.2630 -1.0815
   84MOL   C18430230   4.972   4.246   1.802 -0.2454  0.0906  0.0531
   84MOL   O18530231   4.884   4.185   1.751  0.4150  0.0936 -0.2876
   84MOL   O18630232   5.101   4.213   1.799  0.4922 -0.0863 -0.7845
   84MOL   C18730233   5.151   4.098   1.741  0.3893 -0.7441 -0.1205
   84MOL   C18830234   5.166   3.979   1.835 -0.2478  0.3669  0.4180
   84MOL   C18930235   5.038   3.904   1.875  0.3155  0.2605  0.4288
   84MOL   H19030236   5.077   4.535   1.952  0.8236 -0.3315 -0.6702
   84MOL   H19130237   5.117   4.458   1.806  0.3970  0.7626  0.4631
   84MOL   H19230238   4.844   4.398   1.897 -0.4850 -3.2058 -1.6910
   84MOL   H19330239   5.099   4.057   1.654 -1.0639  0.0753  0.3378
   84MOL   H19430240   5.250   4.124   1.705  0.4601 -0.8476 -0.0003
   84MOL   H19530241   5.230   3.901   1.795  0.2294  1.2315 -0.5174
   84MOL   H19630242   5.216   4.005   1.928  0.6958  1.9524 -0.5044
   84MOL   H19730243   4.976   3.971   1.935 -1.7659  0.4364 -1.8404
   84MOL   H19830244   5.066   3.810   1.923  1.6639  0.9390  1.0125
   84MOL   H19930245   4.988   3.875   1.783 -0.0827 -0.7533  0.9552
   84MOL   C20030246   4.974   4.313   2.043  0.3888  0.1557  0.6379
   84MOL   C20130247   4.878   4.207   2.087  0.0455  0.2233 -0.6477
   84MOL   C20230248   4.931   4.141   2.216 -0.3614  0.3669 -0.1957
   84MOL   O20330249   4.966   4.021   2.222  0.1489  0.7508 -0.2934
   84MOL   O20430250   4.936   4.227   2.319  0.6456 -0.0151 -0.0734
   84MOL   C20530251   4.998   4.194   2.441  0.0335 -0.6671 -0.4653
   84MOL   C20630252   4.906   4.118   2.534  0.4587  0.2228  0.7333
   84MOL   C20730253   4.788   4.197   2.580  0.2387 -0.3353  0.3133
   84MOL   H20830254   4.978   4.401   2.108  1.2455 -1.1996  2.4610
   84MOL   H20930255   5.075   4.272   2.049 -0.4352 -2.2157 -1.4181
   84MOL   H21030256   4.857   4.127   2.016  1.3226  0.5396 -1.4012
   84MOL   H21130257   5.086   4.132   2.430 -0.2356 -1.1714  0.2301
   84MOL   H21230258   5.023   4.285   2.495  0.2772 -1.7909  1.3483
   84MOL   H21330259   4.866   4.032   2.481 -2.5282  0.3892  2.5891
   84MOL   H21430260   4.948   4.087   2.630  1.3720 -1.5381 -0.2152
   84MOL   H21530261   4.825   4.281   2.639 -0.8510  0.0531  0.4654
   84MOL   H21630262   4.722   4.128   2.631  1.4855  0.6720  3.3666
   84MOL   H21730263   4.729   4.244   2.500  0.5079  1.7624  1.3092
   84MOL   C21830264   4.738   4.262   2.125 -0.0659  0.1552  0.3447
   84MOL   C21930265   4.640   4.183   2.212 -0.2280  0.2740 -0.3551
   84MOL   C22030266   4.521   4.272   2.248  0.0584 -1.1702 -0.2112
   84MOL   O22130267   4.521   4.392   2.232  0.0117 -0.5820  0.0760
   84MOL   O22230268   4.422   4.202   2.303  0.6775  0.4468  0.3945
   84MOL   C22330269   4.299   4.260   2.348 -0.0773  0.4327  0.5893
   84MOL   C22430270   4.294   4.245   2.499 -0.6861  1.1459  0.5373
   84MOL   C22530271   4.406   4.330   2.563 -0.9927 -0.5271  0.4760
   84MOL   H22630272   4.691   4.294   2.032 -2.6969 -0.9094  1.2723
   84MOL   H22730273   4.766   4.351   2.181  2.6346 -2.3538  3.1799
   84MOL   H22830274   4.686   4.145   2.303  0.5128  0.2787 -0.7174
   84MOL   H22930275   4.288   4.364   2.320  1.1932  0.9289  1.8767
   84MOL   H23030276   4.219   4.202   2.300 -0.7562  1.1847  0.8128
   84MOL   H23130277   4.199   4.285   2.536 -0.7686  2.0247 -0.5995
   84MOL   H23230278   4.295   4.137   2.517 -0.5020  1.3467  1.7307
   84MOL   H23330279   4.417   4.416   2.496  0.0849 -1.6895 -0.8772
   84MOL   H23430280   4.503   4.281   2.569  0.1735  1.5268 -0.9231
   84MOL   H23530281   4.386   4.363   2.665  0.7267 -0.6951  0.8873
   84MOL   C23630282   4.598   4.058   2.131 -0.1989  0.4300  0.5344
   84MOL   C23730283   4.643   3.912   2.186 -0.7014  0.3121 -0.2872
   84MOL   C23830284   4.563   3.882   2.313  0.7533  0.3446 -0.2786
   84MOL   O23930285   4.620   3.880   2.423 -0.7765 -0.4197  0.6008
   84MOL   O24030286   4.432   3.856   2.286 -0.5482  0.2010  0.1604
   84MOL   C24130287   4.346   3.813   2.391 -0.2468 -0.3945  0.8491
   84MOL   C24230288   4.207   3.866   2.358  0.0474 -0.2339 -0.3661
   84MOL   C24330289   4.113   3.843   2.482 -0.0192  0.2382  0.7982
   84MOL   H24430290   4.621   4.060   2.025 -0.8211 -2.6060  0.2923
   84MOL   H24530291   4.489   4.049   2.127 -0.0929 -1.0753  0.9018
   84MOL   H24630292   4.745   3.912   2.224 -1.0116 -0.8550  0.5734
   84MOL   H24730293   4.350   3.705   2.405 -1.8057 -0.2871  2.2081
   84MOL   H24830294   4.381   3.855   2.485 -1.9468  1.5384  0.6645
   84MOL   H24930295   4.218   3.973   2.338  1.1240 -0.1523  0.6187
   84MOL   H25030296   4.163   3.822   2.268  2.2261  0.3704 -1.7690
   84MOL   H25130297   4.130   3.747   2.531 -1.3083 -0.7991 -0.7335
   84MOL   H25230298   4.007   3.867   2.470  0.0714  1.3964  2.1233
   84MOL   H25330299   4.162   3.898   2.563  1.6622 -0.3369  0.1805
   84MOL   C25430300   4.640   3.804   2.077  0.3788 -0.4177  0.6957
   84MOL   C25530301   4.674   3.660   2.121 -0.6461 -0.1193  0.2316
   84MOL   C25630302   4.637   3.563   2.005 -0.1811 -0.6456 -0.7762
   84MOL   O25730303   4.537   3.491   2.008  0.3250 -0.0585  0.5312
   84MOL   O25830304   4.722   3.570   1.904 -0.0592  0.4136  0.0748
   84MOL   C25930305   4.689   3.492   1.790  0.5285  0.1434  0.1922
   84MOL   C26030306   4.812   3.486   1.701  0.3998 -0.1321  0.3238
   84MOL   C26130307   4.863   3.625   1.662  0.4094  0.2466 -0.0167
   84MOL   H26230308   4.706   3.833   1.995 -1.3206 -2.3362 -1.4028
   84MOL   H26330309   4.546   3.813   2.022  0.7992 -1.8273 -0.2539
   84MOL   H26430310   4.607   3.627   2.200 -0.9269  0.7236  0.3515
   84MOL   H26530311   4.674   3.389   1.823 -0.8988  0.1409 -0.4248
   84MOL   H26630312   4.603   3.538   1.741 -1.8111 -3.0049  1.1628
   84MOL   H26730313   4.890   3.425   1.746  0.6978  0.0978  0.1195
   84MOL   H26830314   4.791   3.427   1.612  0.5931 -0.1634  0.2984
   84MOL   H26930315   4.787   3.693   1.623  0.5684  1.1216  1.1843
   84MOL   H27030316   4.941   3.628   1.587 -0.2457  1.1345 -0.6682
   84MOL   H27130317   4.903   3.676   1.749  0.7606  1.4287 -0.8627
   84MOL   C27230318   4.828   3.645   2.162  0.1232  0.0817 -0.4894
   84MOL   C27330319   4.853   3.673   2.313  0.2451  0.6832 -0.1107
   84MOL   C27430320   4.784   3.570   2.396  0.1408 -0.1588  0.8208
   84MOL   O27530321   4.690   3.601   2.467  0.7212  0.4709 -0.6327
   84MOL   O27630322   4.834   3.443   2.382  0.3386 -0.1214  0.3662
   84MOL   C27730323   4.780   3.340   2.460  0.6539 -0.5057  0.3593
   84MOL   C27830324   4.654   3.272   2.408  0.1606 -0.0667  0.0238
   84MOL   C27930325   4.581   3.201   2.519 -0.1989 -0.1648 -0.2119
   84MOL   H28030326   4.892   3.704   2.097  0.8043  1.8005  1.6770
   84MOL   H28130327   4.854   3.541   2.141  1.1995  0.0248  1.0427
   84MOL   H28230328   4.817   3.772   2.338 -0.5230  0.4332 -0.2279
   84MOL   H28330329   4.859   3.266   2.450  0.3976 -0.5497 -1.5093
   84MOL   H28430330   4.779   3.361   2.567 -2.0410  0.5315  0.1594
   84MOL   H28530331   4.589   3.337   2.350  2.2463  2.2435  0.2319
   84MOL   H28630332   4.684   3.193   2.339 -0.7047 -0.7115  0.3588
   84MOL   H28730333   4.646   3.130   2.570 -1.1331  0.4971  1.9315
   84MOL   H28830334   4.492   3.150   2.482  0.7211 -0.6120 -1.8641
   84MOL   H28930335   4.565   3.279   2.593  1.7131 -2.8226  3.1142
   84MOL   C29030336   5.008   3.671   2.340 -0.1042  0.2916  0.5130
   84MOL   C29130337   5.062   3.760   2.462  0.0041  0.5127 -0.4806
   84MOL   C29230338   5.013   3.706   2.592  0.5857 -0.3200 -0.0105
   84MOL   O29330339   4.996   3.582   2.610  0.4708  0.1879  0.3926
   84MOL   O29430340   4.995   3.798   2.679 -0.4538  0.0348 -0.4623
   84MOL   C29530341   4.906   3.777   2.784  0.2593 -0.9715 -0.6097
   84MOL   C29630342   4.868   3.905   2.858  0.2386 -0.3482 -0.5700
   84MOL   C29730343   4.758   3.892   2.956 -0.3907  1.2175 -0.3088
   84MOL   H29830344   5.060   3.694   2.247 -1.2067  1.5166  0.1888
   84MOL   H29930345   5.044   3.570   2.356 -1.9788 -0.3565  0.8008
   84MOL   H30030346   5.021   3.860   2.447  1.3945  1.2755  0.6915
   84MOL   H30130347   4.819   3.728   2.742  0.8621 -1.1669 -1.6585
   84MOL   H30230348   4.942   3.698   2.850  1.5935  0.2843  0.2228
   84MOL   H30330349   4.953   3.927   2.922 -1.3881  0.3291  1.4196
   84MOL   H30430350   4.849   3.988   2.790  1.8932  0.6057  0.1028
   84MOL   H30530351   4.771   3.803   3.018 -0.7875  1.9209  0.7942
   84MOL   H30630352   4.670   3.865   2.898 -0.0534 -1.4111  0.3285
   84MOL   H30730353   4.747   3.987   3.008 -1.1402 -0.6876  3.2387
   84MOL   C30830354   5.213   3.788   2.447  0.3244 -0.5090  0.1224
   84MOL   C30930355   5.294   3.827   2.575 -0.2723  1.1752 -0.1941
   84MOL   C31030356   5.429   3.762   2.569  0.1992 -0.2323 -0.9658
   84MOL   O31130357   5.455   3.663   2.635  0.1742  0.6707  0.1427
   84MOL   O31230358   5.500   3.809   2.465  0.1145  0.1024  0.4076
   84MOL   C31330359   5.613   3.736   2.423 -0.1811 -0.2592  0.7337
   84MOL   C31430360   5.701   3.820   2.316  0.2158 -0.0317 -0.4429
   84MOL   C31530361   5.844   3.767   2.304  0.6419 -0.6969  0.5894
   84MOL   H31630362   5.223   3.862   2.368 -2.0729 -0.1375  0.1169
   84MOL   H31730363   5.259   3.697   2.407  0.5555  0.3637 -1.6465
   84MOL   H31830364   5.248   3.781   2.663  0.3314 -1.3084 -1.1236
   84MOL   H31930365   5.676   3.725   2.512  0.1271 -0.8579  0.4424
   84MOL   H32030366   5.591   3.634   2.393 -0.9607  0.2927 -0.6183
   84MOL   H32130367   5.652   3.816   2.219  0.1360  1.9890 -0.5062
   84MOL   H32230368   5.705   3.925   2.348  0.6498 -0.9475  2.6752
   84MOL   H32330369   5.915   3.775   2.386  1.6830  1.1330 -0.4447
   84MOL   H32430370   5.854   3.660   2.287 -1.9987 -0.8135 -0.4924
   84MOL   H32530371   5.891   3.813   2.216 -1.6819  0.2295 -0.1949
   84MOL   C32630372   5.303   3.973   2.607  0.3250  0.2786 -0.0141
   84MOL   C32730373   5.369   4.003   2.746  0.3439  0.2350 -0.2886
   84MOL   C32830374   5.426   4.147   2.765  0.4960 -0.2450 -0.1939
   84MOL   O32930375   5.530   4.167   2.824 -0.9894  0.1521 -0.6921
   84MOL   O33030376   5.340   4.242   2.718  0.1741  0.0095  0.0314
   84MOL   C33130377   5.359   4.375   2.743  0.2424 -0.8643 -0.0391
   84MOL   C33230378   5.262   4.431   2.845  0.3688 -0.1585  0.7714
   84MOL   C33330379   5.298   4.578   2.888  0.4409  0.1963 -0.5282
   84MOL   H33430380   5.203   4.015   2.602 -1.3288 -3.3345  0.7831
   84MOL   H33530381   5.362   4.019   2.527 -0.5662  0.2695 -0.6846
   84MOL   H33630382   5.449   3.932   2.764  1.8872  1.8427 -0.6501
   84MOL   H33730383   5.457   4.404   2.782 -0.4917  0.5791  0.7507
   84MOL   H33830384   5.351   4.429   2.649  1.6242 -0.8459 -0.1646
   84MOL   H33930385   5.160   4.413   2.811  1.4655 -0.7237 -2.3598
   84MOL   H34030386   5.286   4.369   2.931  3.4244  0.0422  0.0997
   84MOL   H34130387   5.248   4.609   2.979 -2.4583  0.4253 -2.1520
   84MOL   H34230388   5.400   4.589   2.925 -0.1621 -1.1802  1.6314
   84MOL   H34330389   5.274   4.643   2.804 -0.3759  0.0255 -0.4250
   84MOL   C34430390   5.263   3.967   2.855 -0.6361 -0.0557  0.1386
   84MOL   C34530391   5.326   3.945   3.001 -0.5387 -0.3035  1.4268
   84MOL   C34630392   5.222   3.918   3.107 -0.0713 -0.2195 -0.3708
   84MOL   O34730393   5.170   3.805   3.110 -0.1414  0.1836  0.4879
   84MOL   O34830394   5.183   4.024   3.174  0.1753  0.0353  0.4380
   84MOL   C34930395   5.065   4.016   3.258 -0.1238 -0.2031  0.0154
   84MOL   C35030396   5.060   4.129   3.362 -0.1683  0.1984 -0.8327
   84MOL   C35130397   5.159   4.123   3.485  0.2257 -0.5700  0.5855
   84MOL   H35230398   5.204   3.877   2.839 -0.2116 -0.6138  1.6134
   84MOL   H35330399   5.192   4.050   2.851  0.2244  0.6442 -0.9527
   84MOL   H35430400   5.369   4.041   3.030 -2.3767  1.4652 -1.4495
   84MOL   H35530401   4.981   4.019   3.189 -0.4987 -0.6557  0.4427
   84MOL   H35630402   5.068   3.924   3.316  0.8763  0.8683  1.6965
   84MOL   H35730403   5.071   4.222   3.306  0.4309  0.7450  0.1706
   84MOL   H35830404   4.957   4.128   3.396 -0.2663  1.2018 -1.0552
   84MOL   H35930405   5.158   4.225   3.525 -1.5437 -0.8394  1.2933
   84MOL   H36030406   5.125   4.048   3.556  0.8666  0.3612  1.8966
   84MOL   H36130407   5.260   4.106   3.448 -0.4064 -1.6273 -0.7054
   84MOL   H36230408   5.409   3.875   3.006  0.4044  0.6053 -1.0017
   85MOL     C130409   1.771   2.040   1.147  0.1915  0.4004 -0.3151
   85MOL     C230410   1.759   2.173   1.069  0.1332 -0.6076  0.0196
   85MOL     C330411   1.711   2.274   1.172 -0.1058 -0.0271  0.3064
   85MOL     O430412   1.785   2.353   1.216 -0.3968  0.7092  0.7733
   85MOL     O530413   1.580   2.274   1.208  0.6191 -0.3306 -0.0998
   85MOL     C630414   1.520   2.382   1.269  0.1990  0.2917 -0.1795
   85MOL     C730415   1.499   2.344   1.419 -0.0457  0.8281  0.1751
   85MOL     C830416   1.419   2.445   1.495  0.1407 -0.6053 -0.2590
   85MOL     H930417   1.872   2.044   1.189 -0.1012  0.4134  0.3891
   85MOL    H1030418   1.698   2.023   1.226  1.4336  1.3699  1.0793
   85MOL    H1130419   1.672   2.164   1.004 -0.8185 -1.3915  1.3582
   85MOL    H1230420   1.559   2.478   1.237 -0.6173  1.5354  2.3554
   85MOL    H1330421   1.426   2.367   1.215  0.9151 -2.8924 -0.6367
   85MOL    H1430422   1.452   2.249   1.443 -0.8584  1.4959  1.3012
   85MOL    H1530423   1.595   2.357   1.470  0.6484 -0.9764 -0.6289
   85MOL    H1630424   1.314   2.445   1.466 -0.3336  0.2099  1.3935
   85MOL    H1730425   1.425   2.413   1.599  3.0593  1.8677  0.3729
   85MOL    H1830426   1.459   2.545   1.481  0.5805 -0.7616 -0.1208
   85MOL    H1930427   1.762   1.955   1.079  0.0181  1.0455 -1.0990
   85MOL    C2030428   1.872   2.211   0.977 -0.5532 -0.0242  0.7060
   85MOL    C2130429   1.849   2.189   0.826 -0.4456 -0.3361  0.1836
   85MOL    C2230430   1.719   2.252   0.778  0.0715  0.3508 -0.1466
   85MOL    O2330431   1.630   2.187   0.727 -0.3587 -0.1109 -0.7525
   85MOL    O2430432   1.719   2.385   0.785 -0.1757 -0.1374  0.0304
   85MOL    C2530433   1.626   2.458   0.711  0.0301  0.0765 -0.8570
   85MOL    C2630434   1.634   2.607   0.736  0.7492  0.5233  0.3589
   85MOL    C2730435   1.559   2.657   0.856  0.0238 -0.3565 -0.3279
   85MOL    H2830436   1.961   2.154   1.003 -0.9460  0.3518  2.9868
   85MOL    H2930437   1.901   2.315   0.991 -0.6300  0.0805  0.0685
   85MOL    H3030438   1.852   2.080   0.812 -0.5881 -0.3124 -0.0365
   85MOL    H3130439   1.654   2.440   0.607  0.9311 -1.3456 -0.3794
   85MOL    H3230440   1.525   2.418   0.723  1.0305 -1.7863  1.8090
   85MOL    H3330441   1.737   2.637   0.754  1.3382 -1.5907  0.6763
   85MOL    H3430442   1.607   2.670   0.651 -1.7467  1.3611  1.7232
   85MOL    H3530443   1.591   2.604   0.946 -1.8196  1.6272  1.5531
   85MOL    H3630444   1.451   2.647   0.840 -0.6181  0.8327  2.9742
   85MOL    H3730445   1.572   2.763   0.877  0.4380 -0.6570  0.9581
   85MOL    C3830446   1.981   2.235   0.752  1.0069  0.6185  0.5524
   85MOL    C3930447   1.991   2.178   0.607  0.0548 -0.2098  0.4205
   85MOL    C4030448   2.052   2.283   0.505 -0.3007  0.1548 -0.3689
   85MOL    O4130449   2.159   2.262   0.446  0.5567 -0.3584 -0.5564
   85MOL    O4230450   1.967   2.395   0.509 -0.1231  0.3099 -0.4357
   85MOL    C4330451   1.985   2.510   0.424 -0.0341 -0.8833 -0.3726
   85MOL    C4430452   1.883   2.619   0.453  0.3294 -0.2403 -0.4761
   85MOL    C4530453   1.902   2.715   0.563  0.3425  0.4494  0.4900
   85MOL    H4630454   2.070   2.221   0.813  1.0744  1.5162  0.6675
   85MOL    H4730455   1.970   2.344   0.750 -1.9519  0.3646 -0.4536
   85MOL    H4830456   1.887   2.169   0.578  0.0257 -0.7980  0.6895
   85MOL    H4930457   2.085   2.554   0.432 -1.2339  2.2088 -1.5197
   85MOL    H5030458   1.969   2.473   0.323 -1.3451  0.1767 -0.5694
   85MOL    H5130459   1.862   2.678   0.364  2.5902 -0.0706 -0.9413
   85MOL    H5230460   1.789   2.566   0.464 -0.2705  0.6785 -1.1911
   85MOL    H5330461   1.988   2.776   0.537  1.4878 -1.0147  0.7463
   85MOL    H5430462   1.916   2.668   0.660  0.6381 -2.7713 -1.0175
   85MOL    H5530463   1.825   2.792   0.551 -0.2332 -0.3784 -1.4237
   85MOL    C5630464   2.050   2.031   0.607  0.9596 -0.3244 -0.1580
   85MOL    C5730465   2.006   1.933   0.498  0.2642  0.1938  0.2422
   85MOL    C5830466   1.852   1.911   0.513  0.3704  0.5000 -0.6591
   85MOL    O5930467   1.781   1.882   0.413 -0.1889 -0.1973 -0.0472
   85MOL    O6030468   1.805   1.913   0.637 -0.3177  0.3408 -0.1504
   85MOL    C6130469   1.668   1.881   0.657  0.1913 -0.4040 -0.8327
   85MOL    C6230470   1.637   1.872   0.809  0.7666  0.0182 -0.3639
   85MOL    C6330471   1.701   1.747   0.872 -0.8214 -0.3695  0.3196
   85MOL    H6430472   2.039   1.979   0.702 -1.4522 -1.1056 -0.8298
   85MOL    H6530473   2.158   2.039   0.599  1.0533  2.9680  2.7622
   85MOL    H6630474   2.049   1.835   0.520 -2.0505 -0.9760 -0.3063
   85MOL    H6730475   1.612   1.964   0.613 -1.3402 -0.8346  0.2648
   85MOL    H6830476   1.642   1.784   0.614 -1.4516 -0.2769 -0.1538
   85MOL    H6930477   1.667   1.954   0.875 -0.2133 -0.8918  1.2445
   85MOL    H7030478   1.529   1.868   0.820  0.9581 -1.0043  1.3582
   85MOL    H7130479   1.787   1.776   0.933 -0.4123  3.5757 -1.9822
   85MOL    H7230480   1.729   1.672   0.798  0.8001 -0.9433  1.4602
   85MOL    H7330481   1.634   1.712   0.951  1.2115 -1.7164  1.5086
   85MOL    C7430482   2.044   1.976   0.356 -0.0477  0.7890 -0.0266
   85MOL    C7530483   2.051   1.862   0.259  0.8276 -0.5946 -0.1967
   85MOL    C7630484   2.076   1.927   0.123 -0.7560  0.3572  0.1793
   85MOL    O7730485   2.186   1.982   0.094  0.0973 -0.1080 -0.0992
   85MOL    O7830486   1.974   1.919   0.040 -0.2264  0.1543  0.4950
   85MOL    C7930487   1.963   1.964   7.787 -0.5649  0.1459  0.2386
   85MOL    C8030488   1.970   1.847   7.695 -0.7574  0.5051  0.6804
   85MOL    C8130489   1.837   1.777   7.675 -0.2010 -0.6032 -0.0769
   85MOL    H8230490   2.140   2.027   0.356  0.5962 -0.4047  1.0403
   85MOL    H8330491   1.973   2.050   0.318 -2.4096 -1.9250 -1.1056
   85MOL    H8430492   1.950   1.820   0.256  0.2074  0.7985  0.8962
   85MOL    H8530493   1.865   2.012   7.781 -1.4743 -1.6865 -0.1306
   85MOL    H8630494   2.043   2.032   7.760  0.2130  0.1369  2.3777
   85MOL    H8730495   1.996   1.895   7.601 -2.0101  0.3298  0.2363
   85MOL    H8830496   2.057   1.782   7.708  1.5131  2.9378 -1.7734
   85MOL    H8930497   1.768   1.842   7.621  1.4186  2.2016  1.1841
   85MOL    H9030498   1.788   1.740   7.765 -0.0603  0.4445  0.4364
   85MOL    H9130499   1.857   1.696   7.605 -2.3973 -2.1610  1.0267
   85MOL    C9230500   2.161   1.759   0.301 -0.0425 -0.4077  0.6250
   85MOL    C9330501   2.131   1.618   0.261 -0.7702  0.4371 -0.1735
   85MOL    C9430502   2.167   1.589   0.117 -0.3115  0.2328  0.6139
   85MOL    O9530503   2.258   1.643   0.055  0.0023  0.3063 -0.4637
   85MOL    O9630504   2.094   1.486   0.068  0.0245 -0.2530 -0.2044
   85MOL    C9730505   2.098   1.463   7.804 -0.5553 -0.8240  0.2264
   85MOL    C9830506   2.052   1.318   7.765 -0.0661  0.7108  0.1580
   85MOL    C9930507   2.137   1.211   7.837 -0.5163 -0.0244  0.3652
   85MOL   H10030508   2.193   1.763   0.405  0.6973  1.3318  0.3515
   85MOL   H10130509   2.253   1.789   0.249 -1.3104 -1.2856 -2.2337
   85MOL   H10230510   2.025   1.596   0.272 -1.0333  0.8878 -1.6612
   85MOL   H10330511   2.035   1.541   7.762  1.5044  1.3240  1.0426
   85MOL   H10430512   2.197   1.484   7.765 -1.4227  1.8143 -0.6329
   85MOL   H10530513   1.948   1.317   7.795  0.0191  0.1660  0.4439
   85MOL   H10630514   2.055   1.304   7.657 -2.6469 -0.4227  0.2081
   85MOL   H10730515   2.138   1.227   0.064 -1.3993 -1.6598  0.6281
   85MOL   H10830516   2.242   1.213   7.807  0.1620 -1.5466  2.5164
   85MOL   H10930517   2.115   1.108   7.809 -1.3465  0.4367 -0.6973
   85MOL   C11030518   2.205   1.512   0.348  0.4151 -0.2919  0.4845
   85MOL   C11130519   2.121   1.442   0.463  0.1133 -0.5455  0.7611
   85MOL   C11230520   2.028   1.333   0.403  0.0576  0.3357 -0.6039
   85MOL   O11330521   1.904   1.355   0.402 -0.2646  0.2109  0.4241
   85MOL   O11430522   2.092   1.216   0.379  0.1976  0.1263  0.3556
   85MOL   C11530523   2.012   1.114   0.325  0.4813 -0.1789  0.0984
   85MOL   C11630524   2.001   1.002   0.422  0.0433 -0.4105 -1.0234
   85MOL   C11730525   1.903   1.032   0.535 -0.4834  0.7759 -0.7112
   85MOL   H11830526   2.291   1.562   0.391 -0.3713  1.2889  0.2528
   85MOL   H11930527   2.267   1.445   0.289 -0.4493 -1.5281  0.9450
   85MOL   H12030528   2.051   1.513   0.506 -0.7861 -0.1731 -1.2337
   85MOL   H12130529   1.918   1.147   0.283  0.7937  0.1335 -0.3578
   85MOL   H12230530   2.070   1.080   0.239 -0.9221  2.0347 -1.7923
   85MOL   H12330531   1.952   0.927   0.359 -1.9441 -0.4236  0.4831
   85MOL   H12430532   2.094   0.952   0.450  1.0869  1.5411 -0.9385
   85MOL   H12530533   1.899   0.942   0.597  2.0334  0.7058 -0.6251
   85MOL   H12630534   1.807   1.060   0.493  0.3149  1.3506 -2.1577
   85MOL   H12730535   1.936   1.115   0.598 -0.6984  0.4817 -0.1991
   85MOL   C12830536   2.215   1.388   0.575  0.3766  0.1234  0.8240
   85MOL   C12930537   2.306   1.492   0.649  0.2075 -0.0625  0.3039
   85MOL   C13030538   2.221   1.611   0.705  0.4181 -0.1649  0.2307
   85MOL   O13130539   2.223   1.725   0.649 -0.2140 -0.6289  0.4764
   85MOL   O13230540   2.155   1.579   0.810  0.5618 -0.5118  0.2068
   85MOL   C13330541   2.075   1.672   0.881 -0.5023  0.3170 -1.1063
   85MOL   C13430542   2.176   1.759   0.969 -0.2464  0.1029 -0.0714
   85MOL   C13530543   2.101   1.876   1.034  0.6877 -0.6545 -0.3279
   85MOL   H13630544   2.277   1.303   0.546 -0.8295 -0.1035 -1.2457
   85MOL   H13730545   2.163   1.332   0.652 -1.4166  1.3130  0.5095
   85MOL   H13830546   2.363   1.543   0.571 -0.5537  0.3972  0.0370
   85MOL   H13930547   2.016   1.727   0.809 -1.5727 -1.4629 -1.6368
   85MOL   H14030548   2.008   1.611   0.942  0.4386 -0.0484 -0.4130
   85MOL   H14130549   2.230   1.699   1.043  1.2004  1.8458  0.3118
   85MOL   H14230550   2.262   1.799   0.916  0.3319 -0.6847  0.2445
   85MOL   H14330551   2.164   1.940   1.097  0.2148 -1.8417  1.4028
   85MOL   H14430552   2.018   1.860   1.102  0.3528 -0.8039 -0.7729
   85MOL   H14530553   2.088   1.958   0.963 -0.1108 -0.0940  0.4634
   85MOL   C14630554   2.406   1.434   0.751  0.6972 -0.3411  0.4082
   85MOL   C14730555   2.516   1.531   0.802 -0.6509 -0.0223  0.5551
   85MOL   C14830556   2.529   1.514   0.954  0.0996 -0.1625  0.8367
   85MOL   O14930557   2.519   1.609   1.029  0.4541 -0.0065  0.0186
   85MOL   O15030558   2.556   1.390   0.994  0.2522  0.2544  0.8910
   85MOL   C15130559   2.577   1.356   1.131  0.0908 -0.3937  0.2637
   85MOL   C15230560   2.601   1.208   1.137 -0.2560 -0.2789 -0.1599
   85MOL   C15330561   2.641   1.139   1.263  0.5666 -0.0082  0.2857
   85MOL   H15430562   2.446   1.345   0.701  0.2452 -0.2191 -0.1833
   85MOL   H15530563   2.355   1.391   0.837  0.6073  0.0474  0.5504
   85MOL   H15630564   2.484   1.633   0.781  1.7420  0.4772 -0.8153
   85MOL   H15730565   2.659   1.404   1.184  0.3706 -1.1544  0.5303
   85MOL   H15830566   2.489   1.384   1.189 -0.3199 -1.1252  0.0032
   85MOL   H15930567   2.524   1.153   1.083  1.6033 -2.9801 -0.1464
   85MOL   H16030568   2.679   1.196   1.061 -0.2381  2.8915 -0.7449
   85MOL   H16130569   2.688   1.193   1.345 -0.2779 -2.1587  2.2386
   85MOL   H16230570   2.694   1.047   1.236  0.1076 -0.4590  0.9110
   85MOL   H16330571   2.547   1.101   1.302 -0.1944  0.2223 -1.2902
   85MOL   C16430572   2.644   1.511   0.719  0.3976 -0.3767 -0.4098
   85MOL   C16530573   2.769   1.591   0.771 -0.1130  0.8451  0.0316
   85MOL   C16630574   2.894   1.545   0.688  0.5208 -0.6210 -0.0445
   85MOL   O16730575   2.888   1.499   0.576 -0.0409  0.6903 -0.0500
   85MOL   O16830576   3.007   1.573   0.754  0.6663  0.2712  0.0241
   85MOL   C16930577   3.133   1.556   0.690 -0.5640 -0.2104 -0.0692
   85MOL   C17030578   3.199   1.693   0.658 -0.3627 -0.0137  0.2273
   85MOL   C17130579   3.321   1.689   0.574 -0.7063 -0.0102  0.4837
   85MOL   H17230580   2.619   1.532   0.615 -2.6079 -1.6237  0.0267
   85MOL   H17330581   2.663   1.404   0.721  1.3344 -0.1956  0.9101
   85MOL   H17430582   2.788   1.560   0.874  0.4329  2.6183  0.4739
   85MOL   H17530583   3.188   1.488   0.755  0.3566 -0.3321 -0.9716
   85MOL   H17630584   3.129   1.498   0.598  0.4362  0.4639 -0.5445
   85MOL   H17730585   3.130   1.758   0.604  0.6848 -0.4696 -1.6968
   85MOL   H17830586   3.233   1.753   0.744 -0.9432  0.1581  0.3388
   85MOL   H17930587   3.305   1.658   0.471  0.7650 -1.1217  0.5662
   85MOL   H18030588   3.390   1.616   0.616  0.5482  0.2228 -1.1066
   85MOL   H18130589   3.361   1.790   0.577 -2.0109  0.6338 -2.3708
   85MOL   C18230590   2.741   1.740   0.745  0.6265 -0.0591 -0.4458
   85MOL   C18330591   2.857   1.829   0.797  0.3605 -0.5569 -0.3650
   85MOL   C18430592   2.861   1.961   0.718 -0.1154 -0.0649  0.6533
   85MOL   O18530593   2.836   2.067   0.773  0.1750 -0.0359  0.6496
   85MOL   O18630594   2.896   1.941   0.591  0.4074 -0.9091 -0.1290
   85MOL   C18730595   2.878   2.043   0.492  0.3544  0.6519 -0.4664
   85MOL   C18830596   2.982   2.158   0.484  0.3008 -1.0037 -0.4354
   85MOL   C18930597   2.943   2.291   0.546 -0.2789 -0.3959  0.0207
   85MOL   H19030598   2.655   1.759   0.810  0.5125 -2.0609  0.0008
   85MOL   H19130599   2.722   1.756   0.639 -0.5916  0.3815 -0.1744
   85MOL   H19230600   2.947   1.785   0.754  0.2037  0.1323 -1.3996
   85MOL   H19330601   2.894   1.985   0.401 -0.2984  2.7368 -1.9426
   85MOL   H19430602   2.774   2.076   0.487 -0.2969 -1.4064 -1.1371
   85MOL   H19530603   3.075   2.121   0.528 -0.5046 -3.1332 -0.4864
   85MOL   H19630604   2.997   2.191   0.381  0.6250  1.1209  0.2507
   85MOL   H19730605   2.936   2.288   0.655  0.3838  0.8266  0.1013
   85MOL   H19830606   2.848   2.325   0.504 -0.4024  0.1462  0.7379
   85MOL   H19930607   3.016   2.365   0.517  1.3068 -0.6172  3.2540
   85MOL   C20030608   2.873   1.833   0.955  0.3491  0.1185 -0.1347
   85MOL   C20130609   3.022   1.830   1.004  0.2306  0.5585 -0.6295
   85MOL   C20230610   3.078   1.970   1.016 -0.2707  0.3287 -0.0816
   85MOL   O20330611   3.022   2.057   1.088  0.3613  0.2391  0.4310
   85MOL   O20430612   3.184   1.991   0.938 -0.4481  0.1684  0.2267
   85MOL   C20530613   3.261   2.108   0.956 -0.7268 -0.8121 -0.1651
   85MOL   C20630614   3.282   2.188   0.824 -0.0295 -0.1412 -0.4273
   85MOL   C20730615   3.339   2.089   0.717 -0.4910 -0.3393 -0.4972
   85MOL   H20830616   2.837   1.739   0.997 -0.1684  1.2747  2.1035
   85MOL   H20930617   2.814   1.908   1.008 -0.2194  1.5376 -2.7174
   85MOL   H21030618   3.088   1.790   0.928  0.1114 -3.1415  1.0594
   85MOL   H21130619   3.214   2.172   1.030  0.7038 -0.7880  0.7379
   85MOL   H21230620   3.358   2.089   1.000 -0.4771 -0.5148 -0.5865
   85MOL   H21330621   3.185   2.227   0.792  1.0577  2.9696 -0.1708
   85MOL   H21430622   3.341   2.279   0.838  0.3876 -0.4175 -0.4098
   85MOL   H21530623   3.382   2.154   0.641  0.9995  0.8313  1.3108
   85MOL   H21630624   3.263   2.031   0.665 -0.6321  0.2524 -0.9635
   85MOL   H21730625   3.418   2.022   0.750 -0.2294 -1.0956 -2.5580
   85MOL   C21830626   3.039   1.733   1.131 -0.2258  0.7540 -0.6555
   85MOL   C21930627   3.190   1.715   1.167  0.6226 -0.5989 -0.0597
   85MOL   C22030628   3.202   1.636   1.297  0.3709  0.4837 -0.7828
   85MOL   O22130629   3.234   1.520   1.299  0.2662 -0.0506 -0.6900
   85MOL   O22230630   3.190   1.708   1.413 -0.4503 -0.1002 -0.2483
   85MOL   C22330631   3.213   1.649   1.543 -0.0281  0.0090 -0.6853
   85MOL   C22430632   3.226   1.760   1.644 -0.2604  0.0905  0.4314
   85MOL   C22530633   3.256   1.701   1.786  0.8877  0.4627  0.0526
   85MOL   H22630634   3.005   1.632   1.111  1.9211 -0.1666  0.1465
   85MOL   H22730635   3.003   1.774   1.225  3.2250 -0.2188  1.1789
   85MOL   H22830636   3.225   1.818   1.177  2.0762 -1.3567  3.1531
   85MOL   H22930637   3.132   1.578   1.554 -0.6438  0.9340  0.8840
   85MOL   H23030638   3.311   1.602   1.550  0.6395  1.6147  1.1900
   85MOL   H23130639   3.296   1.839   1.620  1.0436 -0.8743  1.0012
   85MOL   H23230640   3.129   1.809   1.646 -1.0515 -1.4603  1.1025
   85MOL   H23330641   3.365   1.697   1.798  0.8402 -1.9199 -0.1505
   85MOL   H23430642   3.211   1.605   1.811  0.9527 -0.0167 -1.6006
   85MOL   H23530643   3.221   1.766   1.867  2.1846  0.5305  0.5732
   85MOL   C23630644   3.272   1.647   1.056  0.0540  0.8310  0.5151
   85MOL   C23730645   3.425   1.660   1.080  0.1470  0.0096  0.0173
   85MOL   C23830646   3.504   1.554   1.009  0.6227  0.5763 -0.1667
   85MOL   O23930647   3.456   1.471   0.932 -0.0050  0.1762 -0.0102
   85MOL   O24030648   3.624   1.552   1.054 -0.7516  0.9099 -0.1483
   85MOL   C24130649   3.720   1.464   0.998  0.5795 -0.3601 -0.7008
   85MOL   C24230650   3.857   1.513   1.044 -0.2698 -0.6503 -0.2686
   85MOL   C24330651   3.873   1.518   1.196  0.2010 -0.3297  1.0093
   85MOL   H24430652   3.246   1.683   0.956 -0.3792 -1.2920 -0.1636
   85MOL   H24530653   3.239   1.543   1.056  0.0638  0.8267 -0.0291
   85MOL   H24630654   3.446   1.640   1.185  0.9203  1.6391  0.1844
   85MOL   H24730655   3.702   1.363   1.034  2.4117 -1.3008 -2.3006
   85MOL   H24830656   3.704   1.468   0.890 -2.7473  0.8126 -0.2086
   85MOL   H24930657   3.931   1.440   1.012 -0.6395 -2.0297  1.8965
   85MOL   H25030658   3.871   1.613   1.003  0.4747 -0.9670 -0.8032
   85MOL   H25130659   3.821   1.429   1.231 -3.2380  0.7469 -1.0607
   85MOL   H25230660   3.833   1.603   1.252  0.1436 -1.0635  2.0946
   85MOL   H25330661   3.978   1.504   1.221  0.2169  2.3186  2.6248
   85MOL   C25430662   3.462   1.809   1.050  0.1466  0.3258 -0.3129
   85MOL   C25530663   3.593   1.869   1.106 -0.3649  0.3983 -0.3487
   85MOL   C25630664   3.684   1.940   1.001  0.1115  0.3587 -0.0234
   85MOL   O25730665   3.783   1.893   0.947 -0.0625  0.9314 -0.2054
   85MOL   O25830666   3.634   2.063   0.969 -0.1181  0.0597 -0.1601
   85MOL   C25930667   3.723   2.152   0.902 -0.0825 -0.3279  0.2480
   85MOL   C26030668   3.654   2.292   0.902 -0.7857  0.2077  0.3531
   85MOL   C26130669   3.645   2.348   1.048  0.1817  0.2413  0.3915
   85MOL   H26230670   3.374   1.870   1.068 -2.1309 -2.1329 -2.6005
   85MOL   H26330671   3.476   1.816   0.942 -0.5840 -0.8987 -0.4935
   85MOL   H26430672   3.668   1.796   1.138 -0.4154  1.4870  2.3609
   85MOL   H26530673   3.824   2.156   0.943  0.1988 -1.2855 -0.3405
   85MOL   H26630674   3.732   2.116   0.800  0.7908  3.1552 -0.9591
   85MOL   H26730675   3.721   2.352   0.839 -0.6356 -0.9045 -0.5789
   85MOL   H26830676   3.557   2.291   0.852 -0.5661  1.8207 -0.1276
   85MOL   H26930677   3.568   2.298   1.107  2.2560 -1.3277  1.8314
   85MOL   H27030678   3.612   2.452   1.048  0.5755  0.3815 -2.2590
   85MOL   H27130679   3.747   2.348   1.086  0.1364 -3.0344  0.6356
   85MOL   C27230680   3.572   1.974   1.219  0.3816 -0.4828 -0.0572
   85MOL   C27330681   3.509   1.924   1.358  0.0048 -0.1849  0.3226
   85MOL   C27430682   3.596   1.808   1.401  0.5258  0.7329 -0.3552
   85MOL   O27530683   3.716   1.793   1.385 -0.3351  0.0077  0.0273
   85MOL   O27630684   3.518   1.722   1.471  0.1964 -0.7730  1.0339
   85MOL   C27730685   3.578   1.598   1.516 -0.1928 -0.0599 -0.5153
   85MOL   C27830686   3.581   1.500   1.403 -0.1653 -0.4362  0.4440
   85MOL   C27930687   3.622   1.367   1.460  0.2162  0.0862 -0.3139
   85MOL   H28030688   3.511   2.058   1.188 -2.8058 -1.7596  2.3821
   85MOL   H28130689   3.668   2.022   1.239 -0.2043 -0.5402  3.1174
   85MOL   H28230690   3.404   1.898   1.346 -0.3499  0.9435  0.8532
   85MOL   H28330691   3.680   1.618   1.547 -0.0513 -0.8775 -0.4509
   85MOL   H28430692   3.533   1.551   1.603  3.6667 -0.8456  1.1714
   85MOL   H28530693   3.480   1.485   1.363  0.1140 -1.4984  0.1237
   85MOL   H28630694   3.641   1.538   1.320 -2.4066  2.4286  0.0280
   85MOL   H28730695   3.730   1.360   1.473  0.7284  1.0344 -3.4587
   85MOL   H28830696   3.599   1.286   1.391 -0.1307 -0.0287 -0.0636
   85MOL   H28930697   3.567   1.336   1.548  0.5708 -0.9881 -0.4715
   85MOL   C29030698   3.505   2.033   1.459 -0.7905 -0.0329  0.0551
   85MOL   C29130699   3.427   2.163   1.416 -0.0273 -0.6544 -0.7456
   85MOL   C29230700   3.287   2.121   1.373  0.2425  0.0541 -0.0876
   85MOL   O29330701   3.258   2.097   1.257 -0.0459  0.2072  0.4138
   85MOL   O29430702   3.201   2.088   1.475  1.0044  0.0869  0.5583
   85MOL   C29530703   3.071   2.044   1.448 -0.9697 -0.1966  0.5231
   85MOL   C29630704   2.965   2.128   1.524 -0.2236 -0.2332  0.5913
   85MOL   C29730705   2.989   2.114   1.675  0.5682 -0.5516  0.3412
   85MOL   H29830706   3.600   2.070   1.497  0.3808 -0.7960 -2.0652
   85MOL   H29930707   3.456   1.986   1.544 -0.9864 -0.7387 -0.4462
   85MOL   H30030708   3.472   2.223   1.337 -0.3527 -0.2322 -0.6087
   85MOL   H30130709   3.040   2.050   1.344 -0.3303 -1.9077  0.2228
   85MOL   H30230710   3.068   1.937   1.465 -0.9596  0.0883  2.4002
   85MOL   H30330711   2.985   2.231   1.494 -1.6045 -0.4229 -1.0732
   85MOL   H30430712   2.862   2.106   1.495  0.3826  0.9869 -2.7749
   85MOL   H30530713   3.071   2.046   1.700  0.0609 -0.6270  1.8436
   85MOL   H30630714   2.897   2.082   1.724  1.1983  0.4765  2.2764
   85MOL   H30730715   3.005   2.212   1.720 -2.7574  1.4582 -2.6300
   85MOL   C30830716   3.428   2.260   1.543  0.3015  0.8141  0.1054
   85MOL   C30930717   3.325   2.379   1.535 -0.4384  1.2418  0.7142
   85MOL   C31030718   3.311   2.462   1.658  0.1350 -0.4347 -0.1691
   85MOL   O31130719   3.409   2.483   1.729  0.0403 -0.2737  0.0897
   85MOL   O31230720   3.184   2.507   1.676  0.3254  0.3662 -0.4499
   85MOL   C31330721   3.142   2.571   1.799 -0.1136 -0.0141  0.2253
   85MOL   C31430722   2.997   2.612   1.774  0.3905 -0.0587  0.0038
   85MOL   C31530723   2.908   2.496   1.735  0.4687 -0.2219 -0.9741
   85MOL   H31630724   3.530   2.289   1.569  1.0747  0.4448 -2.3631
   85MOL   H31730725   3.399   2.202   1.631  1.8687  0.2466  0.2730
   85MOL   H31830726   3.227   2.337   1.508  0.2549  0.6051 -0.8820
   85MOL   H31930727   3.133   2.500   1.881 -2.2475  1.7708  1.6104
   85MOL   H32030728   3.204   2.655   1.832  0.3315 -0.5269  0.7126
   85MOL   H32130729   2.963   2.654   1.869 -0.2418 -0.4127 -0.0660
   85MOL   H32230730   2.977   2.684   1.695 -0.3475 -0.0279  0.2172
   85MOL   H32330731   2.919   2.465   1.631  1.7792  1.2034 -1.2736
   85MOL   H32430732   2.926   2.417   1.808  0.7326  0.6041 -0.1306
   85MOL   H32530733   2.803   2.526   1.738  0.3610 -0.6386 -0.3846
   85MOL   C32630734   3.362   2.475   1.416 -0.5786 -0.2637 -0.2049
   85MOL   C32730735   3.265   2.588   1.387  0.5500 -0.2131  0.0255
   85MOL   C32830736   3.324   2.714   1.323 -0.2248 -0.0820 -0.2790
   85MOL   O32930737   3.446   2.732   1.316  0.5201  0.6707  0.2544
   85MOL   O33030738   3.233   2.805   1.273 -0.3752  0.4240 -0.5207
   85MOL   C33130739   3.280   2.922   1.204 -0.1928  0.8862  0.3972
   85MOL   C33230740   3.155   3.000   1.160  0.3244 -1.0071 -0.3850
   85MOL   C33330741   3.074   2.919   1.062  0.2432 -0.2216  0.1039
   85MOL   H33430742   3.399   2.421   1.328  0.1347  0.4097 -0.3275
   85MOL   H33530743   3.462   2.507   1.445 -0.7399  2.2586 -2.1719
   85MOL   H33630744   3.235   2.632   1.483  2.1792 -2.3768  1.5727
   85MOL   H33730745   3.356   2.980   1.255 -0.0349  0.5021  0.5946
   85MOL   H33830746   3.336   2.889   1.116  0.6728  3.4441 -0.0452
   85MOL   H33930747   3.092   3.038   1.240  1.7255  2.6406 -0.9188
   85MOL   H34030748   3.191   3.092   1.113 -0.2861  0.5435  2.1440
   85MOL   H34130749   3.059   2.817   1.099 -1.7176 -0.1457 -0.4168
   85MOL   H34230750   2.982   2.970   1.034  0.8948  1.5630  1.0972
   85MOL   H34330751   3.135   2.924   0.972  1.6105 -1.6347  0.9290
   85MOL   C34430752   3.138   2.529   1.326 -0.1320  0.1784  0.0018
   85MOL   C34530753   3.147   2.436   1.197  0.0336  0.0140 -0.1884
   85MOL   C34630754   3.232   2.492   1.079  0.8444  0.0042  0.2040
   85MOL   O34730755   3.352   2.477   1.069  0.2421  0.4502 -0.1095
   85MOL   O34830756   3.159   2.564   0.993  0.4990  0.2188 -0.1592
   85MOL   C34930757   3.219   2.641   0.886  0.0397  0.7625  0.3583
   85MOL   C35030758   3.215   2.570   0.755  0.0718 -0.7818 -0.7115
   85MOL   C35130759   3.291   2.648   0.648  0.6720  0.3993 -0.4031
   85MOL   H35230760   3.082   2.613   1.284  1.4687  0.8000 -0.9378
   85MOL   H35330761   3.083   2.487   1.409  0.2373 -1.3540 -0.5175
   85MOL   H35430762   3.042   2.424   1.169 -0.0782  1.5710 -0.4590
   85MOL   H35530763   3.167   2.736   0.875 -2.7771 -0.8376 -0.7861
   85MOL   H35630764   3.322   2.672   0.903  0.0059  0.8734  0.3580
   85MOL   H35730765   3.275   2.480   0.760  0.6454 -0.4019 -0.7179
   85MOL   H35830766   3.116   2.544   0.719  0.1772  1.8461 -3.0773
   85MOL   H35930767   3.261   2.750   0.624 -0.2908  0.0825 -0.5483
   85MOL   H36030768   3.400   2.651   0.655  0.5495  0.9968  1.3576
   85MOL   H36130769   3.275   2.595   0.554 -1.3663  0.4844 -0.1163
   85MOL   H36230770   3.187   2.338   1.221  1.7816  0.5426 -0.8895
   86MOL     C130771   6.907   1.316   6.124 -0.3118 -0.7036  0.0352
   86MOL     C230772   6.838   1.270   6.256 -0.0685 -0.6194 -0.1903
   86MOL     C330773   6.745   1.373   6.328 -0.9568  0.0258  0.7541
   86MOL     O430774   6.671   1.343   6.420 -0.3028  0.2583 -0.4781
   86MOL     O530775   6.750   1.501   6.275  0.5129  0.7540 -0.9390
   86MOL     C630776   6.675   1.603   6.335  0.7658 -0.3900 -0.1065
   86MOL     C730777   6.752   1.735   6.314  0.3604 -0.4753 -0.6631
   86MOL     C830778   6.768   1.780   6.164 -0.1033  0.5137 -1.1703
   86MOL     H930779   6.996   1.255   6.108  1.5737  1.7235  0.9936
   86MOL    H1030780   6.839   1.292   6.042 -1.2036  1.5882  0.0761
   86MOL    H1130781   6.920   1.266   6.328 -0.6065 -0.6508  0.4292
   86MOL    H1230782   6.580   1.613   6.283 -0.0963  0.6095  1.6246
   86MOL    H1330783   6.662   1.581   6.441  0.3178  0.5844  0.0435
   86MOL    H1430784   6.712   1.813   6.380  1.4361 -2.8042  2.9146
   86MOL    H1530785   6.853   1.721   6.352 -0.1574 -0.1895  0.8656
   86MOL    H1630786   6.669   1.797   6.122 -1.5106 -1.1379  1.3849
   86MOL    H1730787   6.826   1.872   6.157  0.6057  0.0770 -1.0156
   86MOL    H1830788   6.822   1.698   6.116 -0.0180 -0.4065  0.4629
   86MOL    H1930789   6.941   1.419   6.127  0.5522 -1.0131  1.2436
   86MOL    C2030790   6.765   1.137   6.253 -0.4747 -0.0912 -0.2199
   86MOL    C2130791   6.855   1.019   6.203 -0.2855  0.2612  0.0497
   86MOL    C2230792   6.964   0.992   6.304 -0.1507  0.0903 -0.3607
   86MOL    O2330793   6.957   1.030   6.422  0.5064  0.0017  0.2727
   86MOL    O2430794   7.066   0.913   6.248  0.7493 -0.0236  0.1213
   86MOL    C2530795   7.171   0.870   6.332  0.0717  0.4237  0.2106
   86MOL    C2630796   7.244   0.744   6.271  0.0296  0.1848  0.1076
   86MOL    C2730797   7.157   0.624   6.235 -0.2071  0.1498  1.0237
   86MOL    H2830798   6.679   1.160   6.189 -1.1635 -0.2763  0.6222
   86MOL    H2930799   6.721   1.117   6.351  1.0201 -0.9620  0.2866
   86MOL    H3030800   6.906   1.048   6.112  1.7011 -0.8115  0.8032
   86MOL    H3130801   7.240   0.954   6.343  0.5371  0.0602  0.0672
   86MOL    H3230802   7.134   0.851   6.433 -1.5035 -1.0804 -0.6245
   86MOL    H3330803   7.293   0.768   6.176  0.9695  1.0756  0.8197
   86MOL    H3430804   7.311   0.705   6.347 -0.6158 -1.8270 -0.3044
   86MOL    H3530805   7.125   0.576   6.327  0.9523 -2.6169  0.0291
   86MOL    H3630806   7.215   0.552   6.177 -0.7237  1.5235 -1.2456
   86MOL    H3730807   7.073   0.659   6.175  1.7019 -0.1384 -1.9377
   86MOL    C3830808   6.767   0.896   6.170 -0.4652 -0.0071 -0.7003
   86MOL    C3930809   6.742   0.877   6.015 -0.4752  0.0428 -0.3794
   86MOL    C4030810   6.866   0.807   5.952 -0.6330  0.1810  1.1497
   86MOL    O4130811   6.880   0.685   5.955 -0.2812 -0.2465  0.1858
   86MOL    O4230812   6.961   0.897   5.903 -0.2991 -0.0347 -0.0197
   86MOL    C4330813   7.102   0.867   5.861 -0.6403 -0.0226 -0.0166
   86MOL    C4430814   7.204   0.984   5.851  0.6412  0.5286  0.2384
   86MOL    C4530815   7.221   1.065   5.977  0.0342 -0.4812 -0.3958
   86MOL    H4630816   6.666   0.909   6.209  0.1633  1.3240  0.5210
   86MOL    H4730817   6.794   0.803   6.219  0.3391  0.5303 -0.1162
   86MOL    H4830818   6.743   0.973   5.964 -0.0579 -0.3836 -1.1892
   86MOL    H4930819   7.147   0.803   5.937  0.3884 -1.1102 -1.5049
   86MOL    H5030820   7.113   0.798   5.776  1.3151 -0.7431  0.7947
   86MOL    H5130821   7.302   0.958   5.812  0.3605  2.2325 -1.6963
   86MOL    H5230822   7.180   1.064   5.781 -1.2101  1.4270  1.8485
   86MOL    H5330823   7.275   1.155   5.948 -2.4689  0.6515 -1.7117
   86MOL    H5430824   7.282   1.016   6.052 -1.2692  0.6340  1.4308
   86MOL    H5530825   7.124   1.099   6.013  0.2334  0.7975 -1.0382
   86MOL    C5630826   6.609   0.807   5.983 -0.6724  0.1229 -0.3204
   86MOL    C5730827   6.485   0.896   6.009  0.4797  0.2154  0.6207
   86MOL    C5830828   6.494   1.016   5.912 -0.0978  0.1877  0.6014
   86MOL    O5930829   6.557   1.116   5.942  0.1914  0.1812  0.0383
   86MOL    O6030830   6.452   0.987   5.785  0.4395  0.0034 -0.2656
   86MOL    C6130831   6.469   1.083   5.684 -0.1286  0.0660 -0.4115
   86MOL    C6230832   6.610   1.093   5.638 -0.2531  0.1588 -0.4752
   86MOL    C6330833   6.667   0.963   5.578 -0.2684 -0.1452  0.3505
   86MOL    H6430834   6.597   0.725   6.054  0.4205  1.0443  0.9411
   86MOL    H6530835   6.604   0.762   5.884  0.9929 -1.6827  0.3993
   86MOL    H6630836   6.492   0.933   6.112  1.2646  0.8380  0.3460
   86MOL    H6730837   6.411   1.052   5.597 -0.5327  2.0770 -0.8688
   86MOL    H6830838   6.424   1.180   5.708  0.5404  0.2860 -0.0460
   86MOL    H6930839   6.633   1.181   5.578  3.1290 -0.5372 -0.2781
   86MOL    H7030840   6.670   1.114   5.726 -1.7060  0.0016  0.5649
   86MOL    H7130841   6.672   0.878   5.646 -0.0695 -0.8957 -0.5934
   86MOL    H7230842   6.770   0.982   5.547 -0.5953 -0.2840 -0.8498
   86MOL    H7330843   6.610   0.930   5.491 -0.2916 -1.2615  0.7805
   86MOL    C7430844   6.342   0.823   6.011  0.1118  0.4972 -0.1721
   86MOL    C7530845   6.304   0.775   6.149 -0.0195  0.2996  0.5340
   86MOL    C7630846   6.240   0.886   6.228  0.0756  0.0513 -0.0981
   86MOL    O7730847   6.133   0.944   6.200 -0.1491  0.1481  0.1731
   86MOL    O7830848   6.328   0.918   6.334  0.1991 -0.0272 -0.0547
   86MOL    C7930849   6.295   1.023   6.424  0.2292  0.3432  0.0568
   86MOL    C8030850   6.408   1.117   6.471  0.1728 -0.0279  0.0632
   86MOL    C8130851   6.504   1.048   6.569  0.2283  0.2165  0.2963
   86MOL    H8230852   6.348   0.737   5.944  1.0937 -1.2948  2.1379
   86MOL    H8330853   6.271   0.897   5.975  2.2454  2.1861 -1.0111
   86MOL    H8430854   6.396   0.742   6.198  0.3527 -1.4479 -1.2493
   86MOL    H8530855   6.206   1.078   6.393 -0.9317 -0.7698  1.3395
   86MOL    H8630856   6.258   0.959   6.505 -0.3247  1.0655  0.3760
   86MOL    H8730857   6.463   1.168   6.391 -1.7980  2.1052  0.0379
   86MOL    H8830858   6.356   1.201   6.517  2.2897 -0.6750  3.8294
   86MOL    H8930859   6.457   1.012   6.660  0.0140  0.2968  0.2173
   86MOL    H9030860   6.592   1.107   6.594  0.6105 -0.8940  1.6142
   86MOL    H9130861   6.555   0.965   6.521 -1.1694 -0.5575  0.1164
   86MOL    C9230862   6.221   0.643   6.153  0.5610 -0.6646  0.3672
   86MOL    C9330863   6.193   0.581   6.290 -0.9230  0.0436  0.0907
   86MOL    C9430864   6.093   0.464   6.291 -0.2408  0.2414  0.9243
   86MOL    O9530865   6.094   0.380   6.197  0.4011 -0.2842  0.0289
   86MOL    O9630866   6.013   0.455   6.400  0.2998 -0.0722 -0.0897
   86MOL    C9730867   5.926   0.337   6.409  0.3437 -0.5564 -0.0196
   86MOL    C9830868   5.779   0.377   6.385  0.4534  0.4794 -0.2517
   86MOL    C9930869   5.710   0.451   6.503  0.4808 -0.3978 -0.3430
   86MOL   H10030870   6.260   0.571   6.081  0.6571 -1.2038  0.9535
   86MOL   H10130871   6.119   0.668   6.122 -0.7950 -2.6687  2.9575
   86MOL   H10230872   6.132   0.657   6.339 -1.0327  0.1061 -0.1415
   86MOL   H10330873   5.944   0.257   6.336  0.4015  1.6094 -2.4387
   86MOL   H10430874   5.938   0.301   6.511 -0.8495  0.1276  0.3722
   86MOL   H10530875   5.754   0.442   6.301 -1.5131 -0.3196 -0.3168
   86MOL   H10630876   5.727   0.285   6.358 -1.0016  1.7044 -1.7413
   86MOL   H10730877   5.602   0.452   6.490  0.1241 -0.6721  2.2896
   86MOL   H10830878   5.745   0.554   6.492  1.6496 -0.8298 -0.7458
   86MOL   H10930879   5.735   0.408   6.600 -2.1599 -2.0645 -0.3430
   86MOL   C11030880   6.320   0.553   6.382  0.0177 -0.1476  0.4911
   86MOL   C11130881   6.407   0.434   6.348  0.0631 -0.2935  0.2827
   86MOL   C11230882   6.470   0.439   6.204  0.2380  0.4268  0.1300
   86MOL   O11330883   6.581   0.499   6.186 -0.0734 -0.3210 -0.0748
   86MOL   O11430884   6.408   0.363   6.113  0.0934  0.1664 -0.5905
   86MOL   C11530885   6.435   0.370   5.982 -0.4326  0.3713 -0.3881
   86MOL   C11630886   6.372   0.256   5.909  0.2296 -0.0203  0.2264
   86MOL   C11730887   6.450   0.131   5.915 -0.1190 -0.3606 -0.5642
   86MOL   H11830888   6.274   0.542   6.480  0.4859 -1.1127  0.6061
   86MOL   H11930889   6.390   0.637   6.390  0.4726 -0.4058 -0.6932
   86MOL   H12030890   6.333   0.354   6.349 -1.4249  1.0422  1.2283
   86MOL   H12130891   6.401   0.467   5.947 -2.5269 -0.8122 -1.7421
   86MOL   H12230892   6.544   0.365   5.977 -0.5403 -1.1067 -1.5331
   86MOL   H12330893   6.274   0.238   5.953 -0.3508  0.8841 -0.6869
   86MOL   H12430894   6.357   0.285   5.805  1.5677  1.4462  0.4218
   86MOL   H12530895   6.401   0.058   5.850 -1.9088 -0.8100  1.2254
   86MOL   H12630896   6.463   0.076   6.009 -0.8722 -1.1151 -0.8889
   86MOL   H12730897   6.553   0.150   5.885  0.3816 -2.4181 -0.2847
   86MOL   C12830898   6.511   0.416   6.454 -0.8558 -0.0033 -0.1084
   86MOL   C12930899   6.471   0.386   6.602 -0.1196 -0.4298  0.2307
   86MOL   C13030900   6.349   0.293   6.619  0.5489  0.2254 -0.6428
   86MOL   O13130901   6.271   0.307   6.716  0.2976 -0.4256 -0.0123
   86MOL   O13230902   6.354   0.191   6.531  0.4096  0.0371  0.3346
   86MOL   C13330903   6.251   0.089   6.531 -0.8148 -0.0979  0.3416
   86MOL   C13430904   6.222   0.055   6.374 -0.1385  0.7613  0.0649
   86MOL   C13530905   6.333   0.003   6.296  0.6831  0.3721  0.8033
   86MOL   H13630906   6.592   0.488   6.451 -0.5100 -0.3674  0.4043
   86MOL   H13730907   6.556   0.323   6.419 -0.2857  0.2264  0.0155
   86MOL   H13830908   6.429   0.482   6.631  1.8351  1.5031 -3.1108
   86MOL   H13930909   6.279   7.877   6.582  2.0758  1.3974  1.5638
   86MOL   H14030910   6.155   0.119   6.572 -0.6719  0.9298 -0.0467
   86MOL   H14130911   6.145   7.858   6.382  0.6451  0.1840  2.2853
   86MOL   H14230912   6.175   0.141   6.326 -1.8557  0.8022  1.7385
   86MOL   H14330913   6.389   7.806   6.349  3.0167  0.7142 -1.0378
   86MOL   H14430914   6.410   0.078   6.276  1.4587 -0.5214  0.3751
   86MOL   H14530915   6.307   7.844   6.197  1.0040  2.1047  0.0051
   86MOL   C14630916   6.599   0.332   6.677 -0.0023 -0.7464 -0.9611
   86MOL   C14730917   6.620   0.392   6.830  0.4144 -0.0658 -0.1781
   86MOL   C14830918   6.637   0.541   6.826 -0.1684 -0.5797  0.6279
   86MOL   O14930919   6.621   0.611   6.924 -0.4232 -0.0706 -0.0254
   86MOL   O15030920   6.698   0.578   6.705  0.3993  0.4472  0.0532
   86MOL   C15130921   6.723   0.711   6.671 -0.5847 -0.0880  0.0419
   86MOL   C15230922   6.835   0.724   6.570 -0.0933  0.2477 -0.0380
   86MOL   C15330923   6.968   0.647   6.602 -0.4827 -1.2803  0.8014
   86MOL   H15430924   6.689   0.356   6.621  1.1102 -1.0941  0.6200
   86MOL   H15530925   6.601   0.223   6.674 -0.9770 -0.7466 -1.5227
   86MOL   H15630926   6.711   0.348   6.869  0.2613 -0.0216  0.2269
   86MOL   H15730927   6.632   0.753   6.628 -0.4293  0.1576 -0.0432
   86MOL   H15830928   6.724   0.772   6.762 -0.8448 -1.3528  0.9066
   86MOL   H15930929   6.792   0.694   6.474  1.4846 -0.4923 -0.5378
   86MOL   H16030930   6.855   0.830   6.557 -1.9060  0.8392  1.7811
   86MOL   H16130931   6.945   0.545   6.635  0.4564 -1.2782  1.5047
   86MOL   H16230932   7.022   0.704   6.678  2.1692  0.1243 -2.0365
   86MOL   H16330933   7.021   0.633   6.508  0.3940 -1.6095  1.3350
   86MOL   C16430934   6.505   0.353   6.933  0.3536  0.4238  0.4551
   86MOL   C16530935   6.498   0.199   6.965 -0.1244  0.5087  0.5077
   86MOL   C16630936   6.633   0.145   7.015  0.6160  0.0422 -0.3638
   86MOL   O16730937   6.719   0.106   6.937  0.1616  0.2333  0.0853
   86MOL   O16830938   6.649   0.160   7.153 -0.4554 -0.1480 -0.7835
   86MOL   C16930939   6.784   0.158   7.203 -0.0517  0.0885  0.6912
   86MOL   C17030940   6.766   0.140   7.352 -0.1754 -0.3113  0.9905
   86MOL   C17130941   6.894   0.144   7.438  0.2306  0.2653  0.4548
   86MOL   H17230942   6.415   0.390   6.882 -0.0183 -1.8896 -0.6493
   86MOL   H17330943   6.514   0.408   7.027  2.0641 -0.7960  1.0288
   86MOL   H17430944   6.489   0.146   6.870 -0.8972  1.3052  0.1253
   86MOL   H17530945   6.849   0.081   7.162 -3.6249 -2.3909 -0.5151
   86MOL   H17630946   6.827   0.255   7.176  1.8596 -1.2364 -1.1731
   86MOL   H17730947   6.699   0.220   7.382 -0.4954 -0.0901 -0.2794
   86MOL   H17830948   6.726   0.044   7.382  0.5951  0.0934  3.4375
   86MOL   H17930949   6.941   0.242   7.445  0.9401 -0.1906  2.5098
   86MOL   H18030950   6.963   0.069   7.401 -1.4875 -1.2388  0.2355
   86MOL   H18130951   6.860   0.113   7.537  0.1655 -0.9497  0.0536
   86MOL   C18230952   6.374   0.160   7.056 -0.6255  0.6286 -0.0886
   86MOL   C18330953   6.355   0.003   7.073 -0.7772 -0.6050 -0.1028
   86MOL   C18430954   6.250   7.863   7.178 -0.3352  0.0822  0.0389
   86MOL   O18530955   6.290   7.831   7.290  0.2925 -0.0758 -0.2478
   86MOL   O18630956   6.123   0.013   7.142  0.4695 -0.4790 -0.1848
   86MOL   C18730957   6.016   7.873   7.239  0.1380 -0.2224  0.7828
   86MOL   C18830958   6.034   0.073   7.371  0.0247  1.2392 -0.2835
   86MOL   C18930959   6.091   0.212   7.363  0.0369  0.2786  0.3313
   86MOL   H19030960   6.287   0.197   7.001 -1.0970  0.1043  0.3076
   86MOL   H19130961   6.378   0.215   7.150  2.3259 -1.3038  0.9587
   86MOL   H19230962   6.451   7.853   7.115  0.3002  1.0944 -1.2665
   86MOL   H19330963   5.927   0.027   7.186  0.6179 -0.5347 -0.2495
   86MOL   H19430964   6.005   7.765   7.251  0.6422 -0.2177  1.2985
   86MOL   H19530965   5.934   0.097   7.409  1.0070  1.8117  1.9915
   86MOL   H19630966   6.102   0.026   7.441  0.0031  2.4588  0.5769
   86MOL   H19730967   6.089   0.255   7.463 -2.1636 -3.1531  1.8412
   86MOL   H19830968   6.017   0.263   7.302 -0.0657  0.6520  0.7715
   86MOL   H19930969   6.188   0.220   7.312 -0.3348  0.8361 -0.2969
   86MOL   C20030970   6.316   7.796   6.951 -0.6925  0.5827  0.1935
   86MOL   C20130971   6.398   7.669   6.936 -0.1747  0.4524 -0.6988
   86MOL   C20230972   6.527   7.702   6.873 -0.6665 -0.1634 -0.1511
   86MOL   O20330973   6.630   7.689   6.929 -0.3203 -0.3187 -0.5932
   86MOL   O20430974   6.521   7.758   6.749  0.0335  0.5069  0.0356
   86MOL   C20530975   6.640   7.793   6.672 -0.7889  0.3291 -0.7281
   86MOL   C20630976   6.723   7.675   6.630  0.4837 -0.1508 -0.0437
   86MOL   C20730977   6.840   7.722   6.540  0.2133  0.1019  0.2387
   86MOL   H20830978   6.310   7.855   6.859  2.4315  0.8661  0.1361
   86MOL   H20930979   6.211   7.767   6.961 -0.9478  1.7672  1.0747
   86MOL   H21030980   6.337   7.615   6.864 -1.0892  0.3013  0.1763
   86MOL   H21130981   6.602   7.839   6.581 -0.5035 -0.9608 -1.5152
   86MOL   H21230982   6.698   7.871   6.721 -1.4798 -0.2802  1.1059
   86MOL   H21330983   6.758   7.625   6.721 -1.1365  1.5444  1.5395
   86MOL   H21430984   6.652   7.618   6.570  1.5669  0.8186 -2.2834
   86MOL   H21530985   6.913   7.641   6.538  0.9728  0.7993 -1.1542
   86MOL   H21630986   6.892   7.808   6.582 -0.6706  1.3575 -1.2078
   86MOL   H21730987   6.808   7.743   6.438 -1.1854  1.8227  1.0200
   86MOL   C21830988   6.405   7.576   7.058  0.5148 -0.1357  0.0922
   86MOL   C21930989   6.420   7.426   7.029  0.5109 -0.6792  0.7330
   86MOL   C22030990   6.474   7.340   7.147  0.6481 -0.2290 -0.2556
   86MOL   O22130991   6.579   7.283   7.138 -0.5781 -0.3281  0.4477
   86MOL   O22230992   6.392   7.360   7.254  0.0933 -0.6830  0.1124
   86MOL   C22330993   6.426   7.291   7.377 -0.2203  0.0363  0.3160
   86MOL   C22430994   6.358   7.151   7.380  0.1863  0.4464 -0.0960
   86MOL   C22530995   6.422   7.040   7.297  0.4348 -0.3091  0.2770
   86MOL   H22630996   6.323   7.588   7.129 -0.9493 -1.3961 -1.3511
   86MOL   H22730997   6.494   7.601   7.116  0.2434  1.1420 -0.0206
   86MOL   H22830998   6.498   7.430   6.953 -2.0198  0.1517 -1.8877
   86MOL   H22930999   6.534   7.283   7.387  0.0078 -1.1393 -2.6774
   86MOL   H23031000   6.396   7.348   7.465  0.0454 -0.6194  0.8385
   86MOL   H23131001   6.342   7.114   7.482  0.9622  1.8563  0.5501
   86MOL   H23231002   6.260   7.162   7.335  0.4336  0.0312 -0.7504
   86MOL   H23331003   6.525   7.026   7.330  0.5402  1.4882  0.7808
   86MOL   H23431004   6.437   7.071   7.193  1.7322  0.8555  0.7792
   86MOL   H23531005   6.378   6.941   7.307  1.3522 -0.9533 -1.7689
   86MOL   C23631006   6.293   7.360   6.968 -0.4425 -0.2143 -0.1561
   86MOL   C23731007   6.317   7.214   6.903 -0.5110  0.2435 -0.0705
   86MOL   C23831008   6.185   7.136   6.892 -0.3331 -0.3364 -0.0140
   86MOL   O23931009   6.153   7.046   6.972 -0.2010  0.2651  0.9548
   86MOL   O24031010   6.105   7.180   6.801 -0.1459  0.8095  0.3114
   86MOL   C24131011   5.980   7.114   6.775  0.0323 -0.1440  0.2604
   86MOL   C24231012   5.996   6.996   6.677  0.5622 -0.5757  0.9488
   86MOL   C24331013   6.085   6.878   6.739  0.5148  0.6315 -0.1229
   86MOL   H24431014   6.261   7.423   6.886 -0.9651  0.2372  0.3851
   86MOL   H24531015   6.216   7.352   7.045 -0.9297 -2.2402 -0.8283
   86MOL   H24631016   6.381   7.159   6.972 -1.2105  0.2585  0.6040
   86MOL   H24731017   5.932   7.093   6.871  0.3519  0.1649  0.4905
   86MOL   H24831018   5.921   7.188   6.722 -0.0125  0.7598  1.5341
   86MOL   H24931019   5.899   6.954   6.653  1.0060  0.0618 -2.1219
   86MOL   H25031020   6.046   7.030   6.586  2.1729 -0.7944  1.7216
   86MOL   H25131021   6.062   6.847   6.841  0.7385  1.1109  0.0724
   86MOL   H25231022   6.188   6.914   6.735  0.8749 -0.4012 -0.3297
   86MOL   H25331023   6.088   6.789   6.676  0.8077  0.5743 -0.0258
   86MOL   C25431024   6.389   7.221   6.760 -0.5193  0.0072 -0.0639
   86MOL   C25531025   6.445   7.078   6.735  0.1014 -0.0517 -0.1270
   86MOL   C25631026   6.464   7.050   6.586  0.7471  0.0590  0.2092
   86MOL   O25731027   6.400   6.951   6.528 -0.2743 -1.4514  0.6468
   86MOL   O25831028   6.552   7.135   6.529 -0.2084 -0.2187 -0.7444
   86MOL   C25931029   6.576   7.116   6.388 -0.2292 -0.0997  0.1208
   86MOL   C26031030   6.682   7.212   6.339 -0.1046 -0.8311  0.3126
   86MOL   C26131031   6.817   7.191   6.403 -0.0833 -0.3768  0.1064
   86MOL   H26231032   6.467   7.297   6.756  1.0757 -1.6389 -1.1299
   86MOL   H26331033   6.319   7.260   6.687  1.2667  0.3686 -1.6265
   86MOL   H26431034   6.375   7.004   6.774 -0.1100  0.2174  0.0075
   86MOL   H26531035   6.612   7.017   6.358  3.7391  1.2947  0.0029
   86MOL   H26631036   6.480   7.132   6.340 -0.5199  1.2099  1.1026
   86MOL   H26731037   6.686   7.195   6.232 -0.3381  1.9477 -0.1542
   86MOL   H26831038   6.649   7.315   6.348  1.2905 -0.3607  0.2034
   86MOL   H26931039   6.895   7.237   6.342  0.4318  0.9490  1.7110
   86MOL   H27031040   6.840   7.087   6.423 -1.7630 -1.0488 -1.3363
   86MOL   H27131041   6.820   7.251   6.494 -1.1835 -1.5780  0.9425
   86MOL   C27231042   6.580   7.060   6.805 -0.6893  0.5695 -0.5950
   86MOL   C27331043   6.633   6.917   6.851 -0.3055  0.0757 -0.9972
   86MOL   C27431044   6.554   6.854   6.969  0.6498 -0.6956 -0.4675
   86MOL   O27531045   6.595   6.845   7.080  0.4687 -0.2054  0.1310
   86MOL   O27631046   6.430   6.810   6.935 -0.0663  0.3729 -0.0749
   86MOL   C27731047   6.339   6.754   7.023 -0.4876  0.0261 -0.3029
   86MOL   C27831048   6.377   6.603   7.025  0.0494 -0.9551  0.0890
   86MOL   C27931049   6.282   6.515   7.113 -0.3191  0.3774  0.4966
   86MOL   H28031050   6.582   7.121   6.895  3.5640 -2.5750  1.6278
   86MOL   H28131051   6.658   7.114   6.750 -1.2285  0.4336 -1.5046
   86MOL   H28231052   6.729   6.931   6.901 -1.7502  1.5041  1.5102
   86MOL   H28331053   6.342   6.807   7.118 -3.1784 -0.8788  0.3104
   86MOL   H28431054   6.241   6.760   6.976 -2.5441 -1.5854  3.5324
   86MOL   H28531055   6.372   6.569   6.922 -1.0473 -0.6191  0.0283
   86MOL   H28631056   6.480   6.591   7.060 -0.3830  1.5327  2.4595
   86MOL   H28731057   6.313   6.410   7.110  1.3880  0.8652  0.3251
   86MOL   H28831058   6.179   6.524   7.081  0.0220  2.8530  0.0605
   86MOL   H28931059   6.288   6.549   7.217  0.5563  0.2021  0.5137
   86MOL   C29031060   6.668   6.815   6.730  0.0102 -0.6560 -0.1755
   86MOL   C29131061   6.772   6.858   6.626 -0.1842  0.0560 -0.0845
   86MOL   C29231062   6.903   6.885   6.695 -0.3164 -0.5469 -0.6458
   86MOL   O29331063   6.961   6.992   6.684 -0.0973 -0.0452  0.4967
   86MOL   O29431064   6.939   6.790   6.777  0.0992  0.1769 -0.2554
   86MOL   C29531065   7.045   6.810   6.869 -0.2801 -0.4054 -0.6832
   86MOL   C29631066   7.186   6.763   6.813  0.1987 -0.5038  0.2644
   86MOL   C29731067   7.284   6.789   6.924 -0.4919 -0.0963 -0.3399
   86MOL   H29831068   6.581   6.773   6.679 -0.2645  0.0226 -0.2821
   86MOL   H29931069   6.712   6.726   6.774 -0.6206 -0.5615  0.6687
   86MOL   H30031070   6.734   6.955   6.597 -1.3738 -0.1969  0.5977
   86MOL   H30131071   7.057   6.911   6.909 -0.8195  0.6659 -3.1780
   86MOL   H30231072   7.023   6.741   6.951  1.4994  1.0388  1.0850
   86MOL   H30331073   7.194   6.668   6.760 -0.5844  0.0345 -0.8373
   86MOL   H30431074   7.202   6.832   6.731 -1.7322 -1.1950 -0.7335
   86MOL   H30531075   7.250   6.736   7.013 -0.3126 -0.7442 -0.6569
   86MOL   H30631076   7.295   6.893   6.953  2.6725 -0.2211 -0.8912
   86MOL   H30731077   7.387   6.764   6.896  0.1154  1.7398  0.1838
   86MOL   C30831078   6.789   6.770   6.501 -0.5636 -0.2378 -0.5471
   86MOL   C30931079   6.837   6.619   6.521  0.3408 -0.3189  0.4370
   86MOL   C31031080   6.724   6.523   6.470  0.2244 -0.5816 -0.1613
   86MOL   O31131081   6.729   6.475   6.357  0.3084  0.1534  0.0152
   86MOL   O31231082   6.626   6.509   6.554  0.3627  0.6661 -0.4498
   86MOL   C31331083   6.515   6.433   6.525 -0.8143 -0.3942 -0.0714
   86MOL   C31431084   6.398   6.440   6.621 -0.4209 -0.4600  0.7738
   86MOL   C31531085   6.335   6.581   6.614  0.6096  0.3622 -0.0117
   86MOL   H31631086   6.863   6.817   6.436  0.3526 -1.7141 -0.6060
   86MOL   H31731087   6.689   6.779   6.459 -0.4331  1.7419 -0.4586
   86MOL   H31831088   6.855   6.594   6.626  0.8768  3.8480  1.4395
   86MOL   H31931089   6.486   6.452   6.421 -0.5704 -0.7067 -0.1952
   86MOL   H32031090   6.540   6.327   6.523  1.7012  0.1672 -2.5808
   86MOL   H32131091   6.328   6.361   6.592  0.3990 -0.8059 -0.2938
   86MOL   H32231092   6.425   6.434   6.726 -0.4504 -1.5858  0.7198
   86MOL   H32331093   6.233   6.592   6.652  0.9481  0.1782  0.9596
   86MOL   H32431094   6.400   6.655   6.662 -3.4331  2.4970  2.5267
   86MOL   H32531095   6.326   6.615   6.511  0.5562 -0.2230 -0.2005
   86MOL   C32631096   6.967   6.599   6.452 -0.4601  0.1373  0.5780
   86MOL   C32731097   7.029   6.447   6.455 -0.4354  0.0724 -0.1625
   86MOL   C32831098   7.118   6.424   6.336  1.0843  0.2435  0.0263
   86MOL   O32931099   7.119   6.311   6.279  0.0429 -0.0390  0.2779
   86MOL   O33031100   7.207   6.525   6.313  0.3467 -0.0901 -0.5932
   86MOL   C33131101   7.292   6.515   6.204  0.1266 -0.9389  0.7248
   86MOL   C33231102   7.423   6.456   6.254  0.3876  0.1137  0.8779
   86MOL   C33331103   7.477   6.507   6.384  0.4649  0.0721  0.3427
   86MOL   H33431104   7.029   6.674   6.502 -1.0961 -0.5839  2.5064
   86MOL   H33531105   6.964   6.646   6.354  0.1364  0.6600  0.8059
   86MOL   H33631106   6.954   6.368   6.454  0.8981 -1.2342 -1.7735
   86MOL   H33731107   7.267   6.446   6.123 -0.9368 -0.3050  0.5023
   86MOL   H33831108   7.297   6.611   6.152 -0.2679 -1.0566  0.4624
   86MOL   H33931109   7.397   6.352   6.272 -0.8877  0.7307  2.7542
   86MOL   H34031110   7.505   6.457   6.182  1.0044  0.5604  1.5842
   86MOL   H34131111   7.568   6.450   6.407  1.5850  1.1493 -1.2898
   86MOL   H34231112   7.505   6.612   6.381  1.2149 -0.1218  0.3036
   86MOL   H34331113   7.421   6.482   6.474  1.1125 -0.9527  0.4838
   86MOL   C34431114   7.106   6.417   6.590  0.4592 -1.1558  0.2651
   86MOL   C34531115   7.118   6.269   6.620 -0.3351 -0.7245 -0.9406
   86MOL   C34631116   7.219   6.239   6.732  0.0285  0.6851  0.1143
   86MOL   O34731117   7.334   6.283   6.736  0.3164  0.3033  0.4857
   86MOL   O34831118   7.166   6.166   6.838  0.2130  0.4633  0.6228
   86MOL   C34931119   7.234   6.122   6.950 -0.0470  0.5038  0.1060
   86MOL   C35031120   7.214   6.216   7.070 -0.7690  0.0036  0.2027
   86MOL   C35131121   7.288   6.346   7.048 -0.2424 -0.0861 -0.2847
   86MOL   H35231122   7.069   6.461   6.683 -2.4221 -2.6276 -0.1194
   86MOL   H35331123   7.206   6.459   6.589 -0.0873  0.4016  3.3476
   86MOL   H35431124   7.156   6.211   6.536  3.2820  0.2551 -0.0507
   86MOL   H35531125   7.208   6.020   6.979 -1.6921  1.2870  1.4574
   86MOL   H35631126   7.342   6.120   6.931 -0.0791 -1.5444  0.0412
   86MOL   H35731127   7.115   6.231   7.111 -0.5081  0.9398  0.5011
   86MOL   H35831128   7.247   6.160   7.158  0.9592  1.8802  0.7965
   86MOL   H35931129   7.233   6.409   6.977  0.1366 -0.2726 -0.7484
   86MOL   H36031130   7.303   6.396   7.143  0.4256 -0.1757 -0.3447
   86MOL   H36131131   7.390   6.329   7.013 -0.2499  0.6208 -0.6665
   86MOL   H36231132   7.022   6.229   6.654  0.0956  0.3369  1.6608
   87MOL     C131133   5.348   2.451   7.643 -0.0337  0.1786  0.3410
   87MOL     C231134   5.428   2.324   7.648 -0.0067 -0.0889  0.2687
   87MOL     C331135   5.346   2.198   7.604  0.6573  0.1695  0.1456
   87MOL     O431136   5.269   2.207   7.510  0.0614 -0.3846  0.4176
   87MOL     O531137   5.374   2.086   7.673  0.4170  0.4133 -0.4895
   87MOL     C631138   5.302   1.964   7.638  0.2682  0.2224  0.7655
   87MOL     C731139   5.379   1.883   7.529  0.0785 -0.0628  0.3899
   87MOL     C831140   5.507   1.823   7.594 -0.1176  0.3008 -0.0947
   87MOL     H931141   5.253   2.436   7.694  0.0314  0.8056  0.6515
   87MOL    H1031142   5.393   2.542   7.682  1.6860  1.2396 -3.8370
   87MOL    H1131143   5.453   2.315   7.754  0.4360  1.5748  0.3180
   87MOL    H1231144   5.279   1.906   7.727  0.9737  0.1925  0.9311
   87MOL    H1331145   5.207   1.990   7.592  0.0627 -2.5850 -0.4726
   87MOL    H1431146   5.327   1.798   7.486 -3.6823  1.9620  0.7097
   87MOL    H1531147   5.391   1.939   7.437 -0.1588  0.6168  0.7644
   87MOL    H1631148   5.569   1.769   7.522 -1.3641 -1.0818 -0.1493
   87MOL    H1731149   5.579   1.896   7.629  0.7856 -1.1200  1.0506
   87MOL    H1831150   5.483   1.759   7.679 -0.6687 -1.4679 -1.5462
   87MOL    H1931151   5.315   2.474   7.541  2.3451  2.5163  0.0366
   87MOL    C2031152   5.559   2.335   7.563 -0.4253  0.1560 -0.4914
   87MOL    C2131153   5.675   2.406   7.643 -0.3005 -0.2332 -0.3173
   87MOL    C2231154   5.731   2.324   7.760 -0.8420 -0.1672  0.8141
   87MOL    O2331155   5.711   2.203   7.763 -0.0665  0.7419  0.0086
   87MOL    O2431156   5.796   2.397   7.852  0.4982 -0.4656  0.3378
   87MOL    C2531157   5.854   2.331   0.078  0.1380  0.3923  0.0247
   87MOL    C2631158   5.988   2.260   0.039 -0.0254 -0.2696 -0.0949
   87MOL    C2731159   6.052   2.199   0.159 -0.5593  0.1721 -0.8658
   87MOL    H2831160   5.526   2.373   7.466 -1.6827  0.3149 -0.0147
   87MOL    H2931161   5.598   2.239   7.530 -2.6843 -1.4659  1.3745
   87MOL    H3031162   5.627   2.490   7.694 -0.1842 -0.3423 -0.0290
   87MOL    H3131163   5.893   2.402   0.151  2.5007 -0.9546  0.1143
   87MOL    H3231164   5.780   2.267   0.126  0.8921 -0.2245  0.3728
   87MOL    H3331165   5.973   2.196   7.832  0.2660  0.4611 -0.6863
   87MOL    H3431166   6.061   2.334   0.007  1.7227 -1.4568  1.0712
   87MOL    H3531167   6.000   2.103   0.162 -0.9290  0.4097  3.1331
   87MOL    H3631168   6.046   2.266   0.244  0.8973 -2.9954  1.8475
   87MOL    H3731169   6.158   2.182   0.141  0.2343 -1.5628  4.5169
   87MOL    C3831170   5.777   2.462   7.542 -0.1450 -0.8203  0.7367
   87MOL    C3931171   5.721   2.583   7.455  0.5100 -0.4683  0.0275
   87MOL    C4031172   5.722   2.702   7.544 -0.2695  0.2594 -0.5710
   87MOL    O4131173   5.823   2.768   7.568 -0.5246  0.7111 -0.1175
   87MOL    O4231174   5.603   2.726   7.604  0.1230  0.2113  0.1127
   87MOL    C4331175   5.595   2.835   7.693  0.1080 -0.3455  0.3543
   87MOL    C4431176   5.558   2.960   7.621 -0.2778 -0.0664 -0.6138
   87MOL    C4531177   5.535   3.084   7.703 -0.5428  0.7544  0.6577
   87MOL    H4631178   5.806   2.382   7.474  2.1991  0.5598  0.0571
   87MOL    H4731179   5.865   2.496   7.597  0.5119  1.4020 -1.5346
   87MOL    H4831180   5.623   2.552   7.421  0.4241  0.2428 -0.4010
   87MOL    H4931181   5.518   2.808   7.766 -0.4595 -0.7731 -0.3967
   87MOL    H5031182   5.687   2.847   7.751  0.4776 -3.1750  0.4285
   87MOL    H5131183   5.639   2.991   7.554  1.5862 -1.4866  0.9192
   87MOL    H5231184   5.477   2.937   7.552 -0.1135 -0.8298 -0.5546
   87MOL    H5331185   5.633   3.117   7.738  3.1017 -4.6486 -3.5046
   87MOL    H5431186   5.467   3.062   7.785 -0.4231  0.8298  0.7757
   87MOL    H5531187   5.501   3.166   7.640  1.7687  1.2822  0.0646
   87MOL    C5631188   5.817   2.595   7.341 -0.3399 -0.3981  0.4617
   87MOL    C5731189   5.761   2.663   7.213 -0.2925 -0.7109  0.7816
   87MOL    C5831190   5.762   2.817   7.233  0.1887  0.4175 -0.4665
   87MOL    O5931191   5.666   2.875   7.282  0.8154  0.3869  0.2399
   87MOL    O6031192   5.880   2.877   7.222  0.2316 -0.5773 -0.3396
   87MOL    C6131193   5.886   3.018   7.219 -0.0228 -0.5658  0.6971
   87MOL    C6231194   5.857   3.065   7.071  0.5933  0.7973  0.8351
   87MOL    C6331195   5.841   3.219   7.055 -0.5298 -0.4738  0.1746
   87MOL    H6431196   5.871   2.505   7.310 -0.0591  0.4797 -1.6762
   87MOL    H6531197   5.898   2.656   7.380 -1.5956  3.0029 -2.0287
   87MOL    H6631198   5.659   2.628   7.198  0.7117 -3.0278 -0.9379
   87MOL    H6731199   5.810   3.066   7.279 -1.6432 -0.4097 -1.4170
   87MOL    H6831200   5.984   3.054   7.251 -0.1636 -1.4508  2.1522
   87MOL    H6931201   5.943   3.031   7.014 -1.7957 -2.1550 -1.2067
   87MOL    H7031202   5.770   3.015   7.029  0.7699  0.8842  0.3641
   87MOL    H7131203   5.744   3.244   7.097 -0.8053 -1.6016  0.2156
   87MOL    H7231204   5.835   3.256   6.953  0.2186 -0.2054  0.2192
   87MOL    H7331205   5.921   3.275   7.104 -0.8089 -0.8416  1.0522
   87MOL    C7431206   5.840   2.610   7.083 -0.0015 -0.3124  0.1254
   87MOL    C7531207   5.800   2.674   6.943  0.1527 -0.1919 -0.3607
   87MOL    C7631208   5.907   2.642   6.837 -0.3879 -0.1775 -0.3442
   87MOL    O7731209   5.901   2.547   6.763  0.8194 -0.0348 -0.2894
   87MOL    O7831210   6.013   2.723   6.850 -0.1230  0.1679  0.3038
   87MOL    C7931211   6.114   2.721   6.753  0.2376 -0.0595 -0.5232
   87MOL    C8031212   6.143   2.872   6.724  0.4179 -0.0821 -0.8739
   87MOL    C8131213   6.014   2.939   6.680  0.1855  0.5195 -0.4478
   87MOL    H8231214   5.822   2.502   7.080 -1.4343 -0.1218  1.1375
   87MOL    H8331215   5.945   2.635   7.098  0.2771  0.0210 -2.1556
   87MOL    H8431216   5.795   2.783   6.947 -1.1800 -0.2191 -0.8440
   87MOL    H8531217   6.209   2.672   6.775 -0.0457 -0.6212 -0.5499
   87MOL    H8631218   6.080   2.672   6.661 -1.0299 -1.9397  0.9164
   87MOL    H8731219   6.173   2.927   6.814 -0.9601 -3.9967  2.0994
   87MOL    H8831220   6.217   2.895   6.647  1.2364 -3.8421 -1.2759
   87MOL    H8931221   5.972   2.886   6.594 -1.6818  1.5076 -0.1727
   87MOL    H9031222   6.040   3.042   6.656  1.2072  0.1283 -1.0549
   87MOL    H9131223   5.935   2.950   6.755  1.9576 -0.0849  1.5706
   87MOL    C9231224   5.659   2.631   6.889  0.0672  0.2167  0.0152
   87MOL    C9331225   5.545   2.721   6.939 -0.5945  0.0932  0.0457
   87MOL    C9431226   5.545   2.855   6.868  0.2114  0.0337 -0.0454
   87MOL    O9531227   5.596   2.868   6.756  0.0892 -0.1001 -0.6900
   87MOL    O9631228   5.474   2.943   6.933  0.0083 -0.2015  0.5540
   87MOL    C9731229   5.454   3.074   6.882  0.1918 -0.4014 -0.3092
   87MOL    C9831230   5.329   3.090   6.791  0.1945  0.1440  0.1081
   87MOL    C9931231   5.205   3.030   6.850 -0.4331  0.6191  0.9177
   87MOL   H10031232   5.632   2.537   6.936  1.0925  0.3856  0.9773
   87MOL   H10131233   5.657   2.618   6.781  0.5369  1.3275 -0.1407
   87MOL   H10231234   5.579   2.758   7.036 -0.1537  2.5034 -0.9759
   87MOL   H10331235   5.431   3.132   6.971  0.2015  0.1447 -0.6622
   87MOL   H10431236   5.542   3.122   6.840  0.1874 -0.4459 -0.3683
   87MOL   H10531237   5.303   3.191   6.759 -1.2259 -0.4066 -0.5241
   87MOL   H10631238   5.353   3.052   6.691 -1.5894  0.6317 -0.5310
   87MOL   H10731239   5.200   2.925   6.824 -0.6013  1.2374 -1.6690
   87MOL   H10831240   5.121   3.076   6.797  1.3228  2.2265 -0.5292
   87MOL   H10931241   5.183   3.034   6.957 -0.6718 -1.6773  0.9864
   87MOL   C11031242   5.401   2.666   6.931  0.6203 -0.6253  0.1601
   87MOL   C11131243   5.372   2.555   7.027 -0.3271  0.0384 -0.8327
   87MOL   C11231244   5.361   2.604   7.177  0.2085 -0.7556  0.2490
   87MOL   O11331245   5.367   2.527   7.272 -0.5823  0.2022 -0.4770
   87MOL   O11431246   5.345   2.740   7.183 -0.2604  0.2066  0.2215
   87MOL   C11531247   5.353   2.819   7.301  0.2470  0.0400 -0.3661
   87MOL   C11631248   5.216   2.835   7.373 -0.3904 -0.4918  0.1545
   87MOL   C11731249   5.119   2.932   7.306 -0.1079  0.2083 -0.5719
   87MOL   H11831250   5.391   2.631   6.829 -1.2423  0.7474 -0.1499
   87MOL   H11931251   5.326   2.742   6.951  0.2642 -0.3228 -2.2822
   87MOL   H12031252   5.457   2.486   7.030  0.7036  1.3099  0.1467
   87MOL   H12131253   5.423   2.769   7.369  0.4075  0.6356 -0.0892
   87MOL   H12231254   5.393   2.916   7.273  2.0722  0.2439  2.6391
   87MOL   H12331255   5.175   2.735   7.385  1.4141 -1.0509  1.8650
   87MOL   H12431256   5.233   2.865   7.476 -1.4398  0.0191  0.1843
   87MOL   H12531257   5.163   3.030   7.326 -1.3767  0.2753  2.0294
   87MOL   H12631258   5.023   2.934   7.357  0.4756 -1.8930  0.6639
   87MOL   H12731259   5.099   2.906   7.202  1.9291 -3.4998 -0.1380
   87MOL   C12831260   5.250   2.472   6.997  0.3939 -0.0433  0.2988
   87MOL   C12931261   5.260   2.383   6.869  0.2703  0.0814  0.3992
   87MOL   C13031262   5.343   2.254   6.898 -0.0773 -0.1676 -0.4708
   87MOL   O13131263   5.301   2.141   6.890 -0.6012 -0.6007 -0.6177
   87MOL   O13231264   5.463   2.279   6.931 -0.6025 -0.1944  0.3488
   87MOL   C13331265   5.545   2.169   6.958 -0.6564  0.1703  0.3073
   87MOL   C13431266   5.669   2.218   7.028 -0.1237  0.4281 -1.1788
   87MOL   C13531267   5.643   2.296   7.155 -0.1625 -0.3097  0.7243
   87MOL   H13631268   5.169   2.545   6.989 -0.7246 -1.1902  0.8381
   87MOL   H13731269   5.214   2.414   7.082  0.5252 -2.8284 -1.4692
   87MOL   H13831270   5.302   2.441   6.787 -1.2158 -0.0282 -0.4612
   87MOL   H13931271   5.498   2.094   7.022  0.4503  0.3278  1.3388
   87MOL   H14031272   5.577   2.120   6.866 -1.1881 -0.5687  0.5156
   87MOL   H14131273   5.734   2.132   7.047 -0.2063  0.2433 -1.7079
   87MOL   H14231274   5.724   2.276   6.954 -1.5243  2.9056 -0.3328
   87MOL   H14331275   5.579   2.229   7.212 -1.4192 -0.2457 -0.5945
   87MOL   H14431276   5.590   2.391   7.147 -3.5528 -2.3288 -1.8125
   87MOL   H14531277   5.735   2.319   7.209 -1.2351 -1.7076  3.2534
   87MOL   C14631278   5.118   2.344   6.817 -0.2683  0.3870  0.0430
   87MOL   C14731279   5.055   2.463   6.738 -0.0241 -0.1597  0.1708
   87MOL   C14831280   5.145   2.503   6.619 -0.6163  0.2070 -0.0118
   87MOL   O14931281   5.146   2.442   6.512  0.4743  0.5638 -0.1930
   87MOL   O15031282   5.222   2.607   6.647 -0.0121  0.4528 -0.6323
   87MOL   C15131283   5.322   2.650   6.558  0.3217  0.0595  0.4790
   87MOL   C15231284   5.281   2.794   6.521 -0.5045 -0.0540 -0.0731
   87MOL   C15331285   5.358   2.838   6.394  0.4895 -0.2586  0.3027
   87MOL   H15431286   5.060   2.318   6.906  1.1330 -1.2826  0.5032
   87MOL   H15531287   5.117   2.259   6.748 -3.3162  0.2601  0.1446
   87MOL   H15631288   5.051   2.552   6.801 -1.7999 -0.1990  0.1487
   87MOL   H15731289   5.425   2.643   6.592  0.2763  0.7805  0.7883
   87MOL   H15831290   5.317   2.593   6.466  0.1611 -0.1928  0.6435
   87MOL   H15931291   5.174   2.790   6.500 -0.6991 -0.0041  0.8874
   87MOL   H16031292   5.288   2.864   6.604 -0.8723  0.0047 -0.0884
   87MOL   H16131293   5.461   2.802   6.399  0.2521 -1.2557 -1.5820
   87MOL   H16231294   5.347   2.946   6.391 -0.8075 -0.3771  0.6725
   87MOL   H16331295   5.308   2.784   6.314  0.6196  0.7468 -0.4773
   87MOL   C16431296   4.918   2.431   6.684  0.1727  0.0232  0.1250
   87MOL   C16531297   4.812   2.370   6.778  0.4035 -0.4313  0.0724
   87MOL   C16631298   4.764   2.488   6.868  0.1492  0.1144 -0.0152
   87MOL   O16731299   4.677   2.567   6.827 -0.1661  0.1276 -0.0340
   87MOL   O16831300   4.831   2.501   6.982  0.4792 -0.2162  0.2222
   87MOL   C16931301   4.797   2.609   7.070  0.1218 -0.5269 -0.0093
   87MOL   C17031302   4.887   2.729   7.055 -0.5625  0.1473 -0.5301
   87MOL   C17131303   4.897   2.806   6.921  0.3815 -0.6534 -0.0627
   87MOL   H17231304   4.928   2.351   6.611  0.0107 -0.6779  0.8614
   87MOL   H17331305   4.882   2.515   6.625  1.1512 -0.1744 -0.7565
   87MOL   H17431306   4.856   2.290   6.837  1.1180 -0.2296 -0.1826
   87MOL   H17531307   4.694   2.644   7.062  0.1543 -0.9285 -2.4671
   87MOL   H17631308   4.805   2.571   7.172  3.5368 -0.1067 -0.0728
   87MOL   H17731309   4.860   2.799   7.134  2.8597 -1.9625  2.6824
   87MOL   H17831310   4.989   2.705   7.087 -1.4374 -1.3853  1.2179
   87MOL   H17931311   4.955   2.734   6.864  2.6868 -0.3568  1.8337
   87MOL   H18031312   4.957   2.897   6.923  0.9387 -1.0498  2.8327
   87MOL   H18131313   4.798   2.824   6.878  1.1332  2.5083 -0.6105
   87MOL   C18231314   4.701   2.306   6.692 -0.3706  0.7329 -0.1834
   87MOL   C18331315   4.733   2.176   6.619 -0.7039  0.2066 -0.8529
   87MOL   C18431316   4.769   2.061   6.702 -0.1687  0.2841  0.1744
   87MOL   O18531317   4.732   2.056   6.819 -0.1692 -0.3356 -0.0526
   87MOL   O18631318   4.841   1.970   6.632 -0.1088 -0.6885 -0.3495
   87MOL   C18731319   4.888   1.853   6.701 -0.2642 -0.1411  0.7256
   87MOL   C18831320   4.949   1.761   6.592  0.6346 -0.3979  0.1070
   87MOL   C18931321   5.039   1.659   6.657  0.0036  0.5739 -0.1314
   87MOL   H19031322   4.658   2.382   6.627 -1.7419  0.7086  0.6710
   87MOL   H19131323   4.620   2.284   6.762 -0.9685  0.1412 -1.0486
   87MOL   H19231324   4.827   2.193   6.567 -0.3148  1.3076  0.1754
   87MOL   H19331325   4.968   1.872   6.772 -1.0198 -0.5668  1.7078
   87MOL   H19431326   4.806   1.804   6.754  1.5301 -1.9702  1.8822
   87MOL   H19531327   4.868   1.718   6.532 -0.2588 -0.0082  1.0169
   87MOL   H19631328   5.008   1.823   6.525 -0.8013 -1.0637 -1.8246
   87MOL   H19731329   5.128   1.701   6.703  1.3043 -2.0427 -0.1078
   87MOL   H19831330   5.080   1.590   6.583  2.2379  1.3717  0.3281
   87MOL   H19931331   4.989   1.600   6.733 -0.5012 -2.5856 -2.7682
   87MOL   C20031332   4.627   2.144   6.511  0.1906  0.7030 -0.4263
   87MOL   C20131333   4.675   2.059   6.383 -0.3354 -0.2302  0.2800
   87MOL   C20231334   4.562   2.008   6.298 -0.1980 -0.4363 -0.4787
   87MOL   O20331335   4.447   2.055   6.318  0.2460 -0.0658 -0.2103
   87MOL   O20431336   4.594   1.905   6.217  0.0652  0.0944  0.0753
   87MOL   C20531337   4.487   1.836   6.149 -0.9307  0.7478 -0.5034
   87MOL   C20631338   4.482   1.861   6.000 -0.4294  0.5421  0.7838
   87MOL   C20731339   4.366   1.787   5.939 -0.9435 -0.0702  0.3027
   87MOL   H20831340   4.589   2.238   6.471 -1.5150  0.5660  0.8201
   87MOL   H20931341   4.540   2.102   6.562 -0.2670  1.1318 -0.8486
   87MOL   H21031342   4.721   1.965   6.412 -0.3146 -0.6592 -1.1022
   87MOL   H21131343   4.505   1.729   6.158 -0.1117  0.7185 -2.2346
   87MOL   H21231344   4.388   1.842   6.195 -1.9580 -1.5067 -2.3114
   87MOL   H21331345   4.471   1.967   5.979  0.8413  0.4573 -0.3067
   87MOL   H21431346   4.574   1.837   5.946 -0.6685  0.7941  0.2666
   87MOL   H21531347   4.381   1.680   5.951  0.4721  0.0519 -0.2327
   87MOL   H21631348   4.365   1.803   5.831 -0.1199 -0.7624  0.1859
   87MOL   H21731349   4.268   1.821   5.970 -1.9819 -3.4633  0.8833
   87MOL   C21831350   4.790   2.136   6.306 -0.1318 -0.5316 -0.1742
   87MOL   C21931351   4.923   2.063   6.318 -0.4597 -0.1438 -0.1396
   87MOL   C22031352   4.924   1.944   6.221  0.2529 -0.6273  0.6423
   87MOL   O22131353   4.914   1.830   6.261 -0.2028  0.2321 -0.6264
   87MOL   O22231354   4.945   1.979   6.091 -0.2092  0.6588 -0.2117
   87MOL   C22331355   4.978   1.872   6.006  0.0817 -0.0497  0.5660
   87MOL   C22431356   5.001   1.922   5.864  0.4518  0.3032 -0.1491
   87MOL   C22531357   5.029   1.807   5.767 -0.3670 -0.3271  0.8277
   87MOL   H22631358   4.795   2.238   6.342  0.4262 -0.2366 -1.0682
   87MOL   H22731359   4.776   2.147   6.199  2.9356  2.4037 -0.3634
   87MOL   H22831360   4.936   2.037   6.423  2.6609 -0.0479 -0.4697
   87MOL   H22931361   5.070   1.818   6.028  0.1367 -0.5613 -0.8696
   87MOL   H23031362   4.898   1.798   6.009 -0.0458  0.0998  0.9347
   87MOL   H23131363   4.921   1.989   5.833  0.4099 -0.0325 -0.7831
   87MOL   H23231364   5.083   1.992   5.848  0.4769  0.5955  1.2622
   87MOL   H23331365   5.096   1.738   5.817  1.7637  0.3810 -0.9523
   87MOL   H23431366   5.063   1.859   5.677  1.9410  0.5797  2.1723
   87MOL   H23531367   4.942   1.750   5.735 -0.1166  1.3275 -3.0944
   87MOL   C23631368   5.045   2.153   6.298  0.1455  1.2538 -0.3382
   87MOL   C23731369   5.181   2.086   6.341  0.2491  0.5215 -0.1054
   87MOL   C23831370   5.266   2.058   6.215  0.3704 -0.5488  0.4937
   87MOL   O23931371   5.317   1.949   6.191 -0.0399 -0.0802  0.0892
   87MOL   O24031372   5.283   2.164   6.136  0.0235 -0.6237  0.4032
   87MOL   C24131373   5.358   2.158   6.013  0.8581  0.1637 -0.4461
   87MOL   C24231374   5.405   2.296   5.967 -0.1702  0.4974 -0.5121
   87MOL   C24331375   5.296   2.401   5.951  0.1440 -0.5277 -0.1586
   87MOL   H24431376   5.018   2.239   6.359 -0.6539  0.2767  0.6970
   87MOL   H24531377   5.062   2.195   6.198 -1.2133  0.8026 -0.7671
   87MOL   H24631378   5.164   1.987   6.382 -1.5258  0.4768 -0.8951
   87MOL   H24731379   5.435   2.082   6.028  2.1287  1.2489 -1.2720
   87MOL   H24831380   5.298   2.103   5.941 -2.3980  2.4330  0.4283
   87MOL   H24931381   5.481   2.340   6.031  0.7130 -1.0397 -0.4956
   87MOL   H25031382   5.457   2.292   5.871  1.5526  0.8221  0.3857
   87MOL   H25131383   5.259   2.445   6.044  0.5270  1.0966 -0.7667
   87MOL   H25231384   5.212   2.372   5.887  0.6761  1.2955 -1.7345
   87MOL   H25331385   5.338   2.479   5.888 -0.7338  0.7278  0.7695
   87MOL   C25431386   5.262   2.163   6.449 -0.1099  0.3013  0.1256
   87MOL   C25531387   5.395   2.096   6.494 -0.0250  0.1447  0.0441
   87MOL   C25631388   5.512   2.190   6.501 -0.2860 -0.3047  0.5303
   87MOL   O25731389   5.515   2.286   6.426  0.3417  0.1469  0.4295
   87MOL   O25831390   5.596   2.165   6.595 -0.2363  0.1167 -0.5253
   87MOL   C25931391   5.717   2.246   6.604  0.3892  0.9643 -0.1557
   87MOL   C26031392   5.842   2.161   6.552  0.2280 -0.2447 -0.0941
   87MOL   C26131393   5.864   2.021   6.610 -0.6345 -0.2266  0.6952
   87MOL   H26231394   5.203   2.192   6.536 -0.0541  1.8240 -0.3379
   87MOL   H26331395   5.286   2.259   6.404  0.6065  0.1016  0.0649
   87MOL   H26431396   5.425   2.047   6.401 -0.5619 -0.2411  0.0703
   87MOL   H26531397   5.704   2.341   6.552  1.1813  1.1812  0.0406
   87MOL   H26631398   5.730   2.271   6.709 -1.8632 -0.9770  0.6336
   87MOL   H26731399   5.828   2.146   6.445 -2.0391  0.9595  0.0054
   87MOL   H26831400   5.926   2.228   6.567  0.2058 -0.1842 -0.2449
   87MOL   H26931401   5.800   1.951   6.557  2.2166 -1.8201 -0.7545
   87MOL   H27031402   5.832   2.029   6.714 -0.2456  3.0630  0.6083
   87MOL   H27131403   5.968   1.986   6.609  0.2738  2.2524  2.3088
   87MOL   C27231404   5.377   1.986   6.605 -0.7145  0.2391 -0.3538
   87MOL   C27331405   5.468   1.860   6.589 -0.1456  0.1055  0.0215
   87MOL   C27431406   5.511   1.795   6.726 -0.2750  0.5300  0.7727
   87MOL   O27531407   5.626   1.754   6.746 -0.1750 -0.3075  0.3464
   87MOL   O27631408   5.417   1.795   6.817  0.1597  0.1813 -0.2612
   87MOL   C27731409   5.440   1.747   6.945  0.1038  0.3283  0.7762
   87MOL   C27831410   5.312   1.668   6.991  0.2534 -0.6264 -0.4654
   87MOL   C27931411   5.283   1.523   6.939  0.0608 -0.4987 -0.3222
   87MOL   H28031412   5.271   1.971   6.627 -0.8453  2.2046  0.4022
   87MOL   H28131413   5.415   2.038   6.693 -0.1227  0.0527 -0.4970
   87MOL   H28231414   5.569   1.889   6.561 -0.0267  0.2858  0.6436
   87MOL   H28331415   5.534   1.690   6.949  0.5783  1.0531 -0.1128
   87MOL   H28431416   5.451   1.839   7.002 -0.8825  1.6699 -1.1828
   87MOL   H28531417   5.301   1.667   7.099 -1.5143  1.4424 -0.6038
   87MOL   H28631418   5.227   1.729   6.963  0.6242 -0.0127 -0.2562
   87MOL   H28731419   5.178   1.500   6.953 -0.7117  3.0627  0.1586
   87MOL   H28831420   5.340   1.444   6.990  0.1580 -0.9643 -1.1472
   87MOL   H28931421   5.307   1.523   6.833 -0.7395 -4.2625 -0.5774
   87MOL   C29031422   5.418   1.760   6.482 -0.1753 -0.2589 -0.0269
   87MOL   C29131423   5.540   1.689   6.409  0.0438  0.2401 -0.7757
   87MOL   C29231424   5.498   1.547   6.369  0.2530  0.5860 -0.7544
   87MOL   O29331425   5.572   1.447   6.379  0.3975 -0.3798 -0.4322
   87MOL   O29431426   5.373   1.538   6.328 -0.0322  0.4659  0.1387
   87MOL   C29531427   5.310   1.418   6.281 -0.1859 -0.5548  0.0885
   87MOL   C29631428   5.167   1.450   6.248 -0.4344 -0.3402  0.3496
   87MOL   C29731429   5.143   1.585   6.169 -0.0993 -0.0535 -0.7067
   87MOL   H29831430   5.362   1.816   6.407  1.1592  2.7718  1.1476
   87MOL   H29931431   5.351   1.688   6.528 -2.1991  0.3917 -1.8784
   87MOL   H30031432   5.625   1.670   6.474  0.6838  0.9400 -1.4043
   87MOL   H30131433   5.355   1.374   6.192  0.3739  0.0779  0.0599
   87MOL   H30231434   5.324   1.344   6.360 -1.3651 -0.5148  0.3508
   87MOL   H30331435   5.134   1.370   6.182  1.2473 -0.1367 -0.7729
   87MOL   H30431436   5.109   1.444   6.340 -1.8698  1.4452 -0.4107
   87MOL   H30531437   5.195   1.671   6.212 -0.5760 -0.5323  0.8433
   87MOL   H30631438   5.037   1.608   6.170  0.0924  0.8528  0.7616
   87MOL   H30731439   5.169   1.584   6.063 -0.2104 -1.2145 -0.7203
   87MOL   C30831440   5.593   1.776   6.294  0.3087 -0.2824 -0.0974
   87MOL   C30931441   5.714   1.711   6.225  0.1774  0.5105 -0.6631
   87MOL   C31031442   5.720   1.755   6.076  0.3839  0.4700  0.0820
   87MOL   O31131443   5.689   1.678   5.980 -0.0100 -0.4448  0.5981
   87MOL   O31231444   5.764   1.877   6.069  0.3176 -0.3753  0.1866
   87MOL   C31331445   5.811   1.936   5.943  1.0631 -0.2081  0.3460
   87MOL   C31431446   5.903   2.051   5.959 -0.1086  0.5664 -0.0363
   87MOL   C31531447   6.027   2.021   6.042 -0.7098  0.2228 -0.6945
   87MOL   H31631448   5.615   1.877   6.329  1.8652 -0.2052 -1.2666
   87MOL   H31731449   5.515   1.796   6.220  1.2643 -1.8199 -1.5611
   87MOL   H31831450   5.701   1.603   6.215  0.7569  0.2604  1.0483
   87MOL   H31931451   5.868   1.856   5.895  1.0559  1.0403 -1.7898
   87MOL   H32031452   5.727   1.968   5.882  0.3471 -1.9263  0.3788
   87MOL   H32131453   5.923   2.082   5.857  1.3001  2.4239  0.7691
   87MOL   H32231454   5.844   2.130   6.005  0.4239  2.1158 -1.9792
   87MOL   H32331455   5.989   1.999   6.142 -0.1279 -1.0451 -0.7480
   87MOL   H32431456   6.091   1.938   6.014 -0.7287  0.0670 -0.2884
   87MOL   H32531457   6.101   2.102   6.040 -0.8896  0.3723 -1.5808
   87MOL   C32631458   5.835   1.743   6.310 -0.8780 -0.1031  0.4927
   87MOL   C32731459   5.974   1.683   6.262 -0.6885  0.0502 -0.7657
   87MOL   C32831460   6.083   1.752   6.346 -0.2167 -0.0237  0.1478
   87MOL   O32931461   6.165   1.688   6.415 -0.2787  0.2067 -0.0077
   87MOL   O33031462   6.079   1.884   6.341 -0.2978 -0.1234 -0.7174
   87MOL   C33131463   6.173   1.971   6.415  0.2896  0.2354 -0.9662
   87MOL   C33231464   6.308   1.996   6.344 -0.2884 -0.0971 -0.7349
   87MOL   C33331465   6.405   1.883   6.335 -0.0699 -0.0798  0.1210
   87MOL   H33431466   5.819   1.736   6.418 -1.1589  2.1865  0.6255
   87MOL   H33531467   5.845   1.852   6.311 -0.0125 -0.1807  1.5561
   87MOL   H33631468   5.980   1.704   6.156 -0.4491 -1.6687 -1.1136
   87MOL   H33731469   6.113   2.054   6.453  2.6786  1.6013 -0.0118
   87MOL   H33831470   6.201   1.921   6.508 -0.0877  0.4423 -0.7403
   87MOL   H33931471   6.295   2.035   6.242  2.2803  4.2566  0.4666
   87MOL   H34031472   6.366   2.079   6.383 -0.1168 -0.8710  0.6730
   87MOL   H34131473   6.395   1.814   6.418 -0.4740 -0.8499 -0.5565
   87MOL   H34231474   6.379   1.838   6.239  1.1586  0.3964 -0.4595
   87MOL   H34331475   6.508   1.920   6.335  0.2295 -0.9092  0.5835
   87MOL   C34431476   5.993   1.530   6.269 -0.2545  0.0884 -0.0370
   87MOL   C34531477   5.951   1.456   6.400 -0.3055 -0.7669  0.6349
   87MOL   C34631478   5.935   1.311   6.384 -0.2524 -0.3818  0.0196
   87MOL   O34731479   5.993   1.241   6.472  0.4480  0.3847 -0.6082
   87MOL   O34831480   5.863   1.267   6.279 -0.3001 -0.7816 -0.8488
   87MOL   C34931481   5.874   1.127   6.238  0.5834  0.5924 -0.0753
   87MOL   C35031482   5.855   1.103   6.085 -0.4686 -0.1741  0.3028
   87MOL   C35131483   5.708   1.125   6.044  0.1165 -0.2626  0.2139
   87MOL   H35231484   6.089   1.496   6.232 -0.3837 -0.4372  0.1052
   87MOL   H35331485   5.936   1.497   6.182  2.0938 -0.4861 -1.3996
   87MOL   H35431486   5.855   1.499   6.429 -0.6942 -1.3774  0.2607
   87MOL   H35531487   5.971   1.088   6.268  1.1677  1.4491 -0.8022
   87MOL   H35631488   5.803   1.062   6.290 -1.0832  0.5754 -2.2869
   87MOL   H35731489   5.920   1.168   6.027 -0.5306  0.3162  0.7754
   87MOL   H35831490   5.880   0.997   6.071 -1.4342 -0.3120 -0.4118
   87MOL   H35931491   5.681   1.091   5.944 -2.5672  1.0978  0.4219
   87MOL   H36031492   5.627   1.082   6.103 -1.9231  1.9235 -0.8948
   87MOL   H36131493   5.687   1.232   6.043  0.3180 -0.2281 -0.2778
   87MOL   H36231494   6.014   1.482   6.485 -1.3891  1.0395  0.9265
   88MOL     C131495   2.050   0.993   6.597 -0.0280 -0.2412  0.1287
   88MOL     C231496   2.009   0.864   6.663 -0.9728 -0.0255 -0.4536
   88MOL     C331497   2.036   0.862   6.815  0.4196 -0.0151  0.3353
   88MOL     O431498   1.959   0.899   6.902  0.3265  0.0918  0.0036
   88MOL     O531499   2.151   0.817   6.839 -0.0819  0.2334  0.4140
   88MOL     C631500   2.193   0.795   6.970  0.0663 -0.0757  0.4696
   88MOL     C731501   2.193   0.651   7.002  0.5518  1.2155  0.3140
   88MOL     C831502   2.252   0.626   7.139 -0.2662  0.0466  0.3432
   88MOL     H931503   2.079   0.974   6.494 -2.0360 -1.6616 -0.2136
   88MOL    H1031504   1.968   1.065   6.591  1.0655  1.0241  0.1008
   88MOL    H1131505   2.074   0.784   6.627 -0.5980 -0.3773  0.9368
   88MOL    H1231506   2.296   0.831   6.976  1.4650 -3.6506 -0.5898
   88MOL    H1331507   2.140   0.849   7.048 -1.7951  0.8808 -1.4453
   88MOL    H1431508   2.089   0.619   7.000  0.4549  1.4936  0.7602
   88MOL    H1531509   2.247   0.593   6.927  0.1228 -0.3614  1.2103
   88MOL    H1631510   2.342   0.686   7.145  0.1411 -0.4706 -0.5359
   88MOL    H1731511   2.189   0.654   7.224 -0.0526  0.4410  0.3717
   88MOL    H1831512   2.292   0.525   7.148  1.3238  0.5741 -0.6804
   88MOL    H1931513   2.141   1.022   6.651 -0.8139  1.5455  0.5225
   88MOL    C2031514   1.861   0.836   6.642 -0.6004  1.0375  0.9807
   88MOL    C2131515   1.824   0.827   6.494 -0.4412 -0.0985 -0.3231
   88MOL    C2231516   1.912   0.721   6.427 -0.8567  0.2153 -0.5279
   88MOL    O2331517   1.962   0.744   6.318  0.0518  0.1619 -0.6086
   88MOL    O2431518   1.920   0.606   6.496  0.0766 -0.2017  0.1457
   88MOL    C2531519   2.003   0.493   6.457  0.2389 -0.1521  0.3582
   88MOL    C2631520   2.137   0.498   6.514 -0.5344 -0.7805 -0.0886
   88MOL    C2731521   2.139   0.465   6.666 -0.5587 -0.3052  0.0991
   88MOL    H2831522   1.808   0.920   6.687  1.1960  3.0163 -0.4730
   88MOL    H2931523   1.822   0.751   6.698  2.0829 -1.5330 -0.9114
   88MOL    H3031524   1.841   0.923   6.445  4.1829  0.1155  1.4328
   88MOL    H3131525   1.959   0.400   6.491  0.0414 -0.4066 -0.5866
   88MOL    H3231526   2.005   0.490   6.348  2.4887 -1.7080  0.4150
   88MOL    H3331527   2.214   0.434   6.471  0.8236  1.1779 -0.6242
   88MOL    H3431528   2.174   0.599   6.498  0.7126 -1.0914  0.7331
   88MOL    H3531529   2.094   0.369   6.689  0.2907 -1.0292 -1.1688
   88MOL    H3631530   2.090   0.541   6.727 -2.7802 -0.3416 -1.5638
   88MOL    H3731531   2.242   0.461   6.700 -1.1403 -1.0276  1.8009
   88MOL    C3831532   1.672   0.817   6.484 -0.1403 -0.2084 -0.4506
   88MOL    C3931533   1.614   0.876   6.352 -0.2460  0.6910 -0.0330
   88MOL    C4031534   1.482   0.805   6.313 -0.3793  0.5036 -0.2059
   88MOL    O4131535   1.476   0.731   6.215  0.0650  0.1423  0.1372
   88MOL    O4231536   1.386   0.832   6.399 -0.1297 -0.6107 -0.1322
   88MOL    C4331537   1.256   0.788   6.396  0.5763  0.0082  0.4693
   88MOL    C4431538   1.174   0.852   6.286 -0.5104  0.1633 -0.0709
   88MOL    C4531539   1.172   1.003   6.294  0.3164  0.1067  0.4073
   88MOL    H4631540   1.621   0.862   6.569 -1.5819  0.4133 -1.6174
   88MOL    H4731541   1.642   0.712   6.483  0.7446 -0.5001  1.7596
   88MOL    H4831542   1.683   0.837   6.278 -2.2458 -2.1703 -0.4811
   88MOL    H4931543   1.244   0.683   6.370 -3.1609  1.0195 -2.4752
   88MOL    H5031544   1.215   0.795   6.497 -2.6810  1.0083 -0.8642
   88MOL    H5131545   1.211   0.821   6.188 -1.3302 -2.6174  0.4401
   88MOL    H5231546   1.077   0.802   6.287 -0.4613 -0.1435 -3.9001
   88MOL    H5331547   1.109   1.041   6.213  1.6823 -1.3290 -1.3599
   88MOL    H5431548   1.271   1.047   6.287  0.4783 -0.1275  1.1475
   88MOL    H5531549   1.125   1.029   6.389  1.3026 -1.2095  1.2681
   88MOL    C5631550   1.603   1.031   6.371 -0.2990 -0.8743 -0.2161
   88MOL    C5731551   1.658   1.116   6.254  0.3714 -0.1805  0.2159
   88MOL    C5831552   1.811   1.122   6.264 -0.3515 -0.2250 -0.5037
   88MOL    O5931553   1.858   1.204   6.342 -0.2432 -0.2652  0.1362
   88MOL    O6031554   1.876   1.041   6.185  0.2897 -0.3650  0.3405
   88MOL    C6131555   2.012   1.060   6.158 -0.9577 -0.4489 -0.0284
   88MOL    C6231556   2.027   1.000   6.014 -0.1362 -0.2395  0.1296
   88MOL    C6331557   2.004   0.858   5.993 -0.1746 -0.2586 -0.3040
   88MOL    H6431558   1.657   1.064   6.460 -1.5109 -0.1139  0.2420
   88MOL    H6531559   1.499   1.059   6.382  0.5091  1.5304  1.5144
   88MOL    H6631560   1.628   1.216   6.286 -2.0639  0.3467 -3.4708
   88MOL    H6731561   2.043   1.164   6.160 -0.4698 -0.5542 -1.3631
   88MOL    H6831562   2.057   1.006   6.241 -2.0606 -3.4496 -1.3021
   88MOL    H6931563   1.960   1.051   5.946 -0.0139  0.3134  0.4227
   88MOL    H7031564   2.131   1.014   5.982 -0.3724 -3.5082 -2.3166
   88MOL    H7131565   1.902   0.830   6.021 -0.6439  3.1649  1.7534
   88MOL    H7231566   2.069   0.801   6.060 -0.7006  0.6846  1.0405
   88MOL    H7331567   2.026   0.835   5.889 -2.5040 -0.5101 -0.7737
   88MOL    C7431568   1.607   1.095   6.113 -0.3563 -0.2686  1.1695
   88MOL    C7531569   1.639   1.209   6.010 -0.4062 -0.4479  0.0907
   88MOL    C7631570   1.616   1.169   5.860 -0.7018 -0.2899 -0.2308
   88MOL    O7731571   1.516   1.209   5.797  0.5396  0.3096 -0.3471
   88MOL    O7831572   1.720   1.096   5.804 -0.3781 -0.4796 -0.3043
   88MOL    C7931573   1.707   1.055   5.670  0.0758  0.5229 -0.3715
   88MOL    C8031574   1.847   1.067   5.611  0.3398 -0.5336  0.5618
   88MOL    C8131575   1.893   1.209   5.602 -0.1974  0.1314 -0.0859
   88MOL    H8231576   1.503   1.064   6.123 -0.4943 -0.3709 -0.4441
   88MOL    H8331577   1.646   0.998   6.082  1.8593  1.0943 -0.4970
   88MOL    H8431578   1.747   1.223   6.011 -0.5476  0.6538  1.2954
   88MOL    H8531579   1.676   0.950   5.669 -0.8710  0.7669  1.2312
   88MOL    H8631580   1.641   1.115   5.608 -2.1532 -0.7184  0.7463
   88MOL    H8731581   1.917   1.011   5.674  1.2835  0.1527  0.1210
   88MOL    H8831582   1.846   1.016   5.515 -2.4188  0.8061 -0.1841
   88MOL    H8931583   1.945   1.230   5.696 -0.2162  3.9489 -0.8367
   88MOL    H9031584   1.806   1.274   5.600 -0.9088 -0.8259 -1.1668
   88MOL    H9131585   1.956   1.222   5.515 -0.7124 -2.2217 -0.8599
   88MOL    C9231586   1.587   1.345   6.051  0.5595 -0.2032  0.6718
   88MOL    C9331587   1.693   1.443   6.113  0.1111 -0.1814  0.2341
   88MOL    C9431588   1.768   1.510   5.989  0.0676  0.8430 -0.6390
   88MOL    O9531589   1.715   1.574   5.910  0.2064  0.6940  0.0158
   88MOL    O9631590   1.905   1.506   5.996 -0.1514  0.0894 -0.1010
   88MOL    C9731591   1.986   1.552   5.888  0.5292 -0.5956 -0.4186
   88MOL    C9831592   2.136   1.510   5.902 -0.5857 -0.4186  0.7406
   88MOL    C9931593   2.163   1.360   5.893  0.1001  0.2418 -1.0680
   88MOL   H10031594   1.502   1.330   6.119 -0.4814 -1.2383 -0.8272
   88MOL   H10131595   1.542   1.399   5.968  0.3019  1.2993  1.7671
   88MOL   H10231596   1.756   1.380   6.175 -0.3864  0.6968  1.6569
   88MOL   H10331597   1.947   1.526   5.790 -0.4627  0.3401 -0.2763
   88MOL   H10431598   1.973   1.660   5.890 -0.5579 -0.7379  2.0407
   88MOL   H10531599   2.190   1.566   5.825  2.4329  1.6483  4.2408
   88MOL   H10631600   2.175   1.553   5.994  0.6308  2.4656 -1.0389
   88MOL   H10731601   2.132   1.324   5.992 -0.8820 -2.1634 -2.2239
   88MOL   H10831602   2.269   1.335   5.888  0.3030  0.4176  1.4965
   88MOL   H10931603   2.106   1.306   5.818 -1.3290  0.0625  0.1253
   88MOL   C11031604   1.634   1.552   6.206  0.0377 -0.2569  0.2267
   88MOL   C11131605   1.745   1.640   6.277  1.1110  0.4613  0.5717
   88MOL   C11231606   1.684   1.760   6.344  0.4199 -0.4156 -0.6188
   88MOL   O11331607   1.719   1.871   6.311  0.0170 -0.0146  1.0042
   88MOL   O11431608   1.605   1.742   6.456  0.0682  0.0474  0.1149
   88MOL   C11531609   1.571   1.847   6.541  0.5244 -0.1078  0.8216
   88MOL   C11631610   1.555   1.783   6.678  0.0716 -0.8015 -0.3707
   88MOL   C11731611   1.456   1.672   6.686  0.3075  0.0594  0.8035
   88MOL   H11831612   1.574   1.514   6.289  1.0666  0.0195  1.1071
   88MOL   H11931613   1.569   1.614   6.145  0.4783 -0.2373 -0.2251
   88MOL   H12031614   1.801   1.677   6.191 -0.5050  0.3559 -0.5534
   88MOL   H12131615   1.630   1.935   6.518 -1.4400  0.8402 -0.7823
   88MOL   H12231616   1.470   1.874   6.511  0.6882 -1.5691 -1.1914
   88MOL   H12331617   1.650   1.747   6.717  0.1009 -0.9081 -0.5441
   88MOL   H12431618   1.514   1.862   6.742 -0.3070 -1.5309  0.2938
   88MOL   H12531619   1.447   1.642   6.791  2.5436 -0.4178  0.8826
   88MOL   H12631620   1.508   1.582   6.650 -0.5256 -0.7331  1.5498
   88MOL   H12731621   1.359   1.698   6.644  0.8190 -1.1969 -1.2349
   88MOL   C12831622   1.843   1.561   6.366 -0.4050  0.7668 -0.0955
   88MOL   C12931623   1.996   1.578   6.330  0.1135  0.5650  0.0692
   88MOL   C13031624   2.037   1.723   6.353 -0.0301  0.3974 -0.2949
   88MOL   O13131625   2.095   1.792   6.271  0.9119  0.0197  0.4742
   88MOL   O13231626   2.019   1.766   6.481  0.3838  0.1513 -0.2684
   88MOL   C13331627   2.031   1.906   6.515 -0.3630 -0.3144 -0.3130
   88MOL   C13431628   2.045   1.907   6.668 -0.7652  0.1401  0.4410
   88MOL   C13531629   1.927   1.836   6.739 -0.3151 -0.0046  0.1992
   88MOL   H13631630   1.808   1.458   6.372  2.1026 -0.1389 -0.1190
   88MOL   H13731631   1.828   1.592   6.469 -2.5597 -1.2155  0.2359
   88MOL   H13831632   2.010   1.555   6.225  1.9467 -0.0717  0.4353
   88MOL   H13931633   2.114   1.960   6.470 -2.4233  1.0503 -2.5786
   88MOL   H14031634   1.936   1.959   6.505 -0.1194  0.3215  0.6222
   88MOL   H14131635   2.132   1.842   6.681  0.5862  1.7894 -0.2627
   88MOL   H14231636   2.056   1.999   6.726 -0.6470 -0.2165  0.9910
   88MOL   H14331637   1.959   1.817   6.841  0.3067 -0.0157  0.0020
   88MOL   H14431638   1.912   1.733   6.706 -1.1789  0.1594  0.0665
   88MOL   H14531639   1.837   1.895   6.756 -1.9806 -2.3496 -0.1632
   88MOL   C14631640   2.091   1.487   6.407  0.5725  0.1183 -0.7475
   88MOL   C14731641   2.241   1.496   6.386  0.5450  0.4377 -0.1705
   88MOL   C14831642   2.312   1.453   6.513 -0.2128 -0.0901 -0.2980
   88MOL   O14931643   2.362   1.343   6.529  0.8202 -0.3845  0.5114
   88MOL   O15031644   2.318   1.556   6.595  0.6535  0.4666 -0.2388
   88MOL   C15131645   2.376   1.541   6.725  0.7504  0.3138 -0.4944
   88MOL   C15231646   2.340   1.656   6.819  0.3947  0.4711 -0.9026
   88MOL   C15331647   2.206   1.624   6.897 -0.4708  0.1209 -0.7857
   88MOL   H15431648   2.059   1.384   6.396  1.2807 -0.3470  1.3749
   88MOL   H15531649   2.070   1.513   6.511 -0.3883 -0.7214 -0.7358
   88MOL   H15631650   2.274   1.600   6.385  2.3931 -0.1170  0.1174
   88MOL   H15731651   2.356   1.445   6.771  2.5812 -0.0962 -0.5016
   88MOL   H15831652   2.484   1.552   6.711  1.4140 -1.4319  2.7989
   88MOL   H15931653   2.424   1.655   6.889  0.1725 -0.2040 -0.6367
   88MOL   H16031654   2.344   1.750   6.764 -0.8632 -0.2760 -2.3041
   88MOL   H16131655   2.124   1.637   6.826 -0.5467 -0.4430 -0.8003
   88MOL   H16231656   2.194   1.691   6.982  1.7157 -0.1882 -0.2000
   88MOL   H16331657   2.209   1.524   6.938 -0.5850  0.2882 -0.3720
   88MOL   C16431658   2.300   1.421   6.259 -0.1048 -0.4030  0.2982
   88MOL   C16531659   2.445   1.452   6.217  0.1472  0.4021  0.5602
   88MOL   C16631660   2.474   1.607   6.205 -0.3382 -0.3464 -0.1634
   88MOL   O16731661   2.573   1.661   6.258  0.4636 -0.1105  0.4750
   88MOL   O16831662   2.375   1.680   6.133  0.0587  0.1513  0.5619
   88MOL   C16931663   2.384   1.821   6.108 -0.0495  0.4517  1.0649
   88MOL   C17031664   2.321   1.858   5.974 -0.0969  0.1802  0.0132
   88MOL   C17131665   2.415   1.818   5.853 -0.3935  0.5778 -0.7225
   88MOL   H17231666   2.236   1.446   6.174  0.1830 -1.7528 -0.3243
   88MOL   H17331667   2.296   1.313   6.275 -0.5346 -0.5682 -0.8970
   88MOL   H17431668   2.444   1.419   6.113  0.0081 -1.7809  1.2365
   88MOL   H17531669   2.323   1.875   6.179 -1.9235  0.9982 -0.9214
   88MOL   H17631670   2.489   1.852   6.108  0.4749 -1.1748 -0.9100
   88MOL   H17731671   2.224   1.814   5.952  0.1872 -0.3495 -0.1805
   88MOL   H17831672   2.297   1.965   5.973 -0.6937  0.0501 -0.0977
   88MOL   H17931673   2.521   1.841   5.857 -0.2748 -0.1388  0.4680
   88MOL   H18031674   2.373   1.855   5.759  0.9379 -0.6035 -1.7962
   88MOL   H18131675   2.423   1.709   5.854  0.1261  0.6225  0.5468
   88MOL   C18231676   2.555   1.363   6.281  0.9713  0.1597  0.6696
   88MOL   C18331677   2.682   1.359   6.190 -0.7092  0.5343 -0.1264
   88MOL   C18431678   2.798   1.294   6.258  0.0053 -0.7896 -0.4925
   88MOL   O18531679   2.894   1.362   6.283 -0.7666 -0.3180  0.0826
   88MOL   O18631680   2.793   1.164   6.284  0.7279  0.0523 -0.6784
   88MOL   C18731681   2.902   1.094   6.337  0.3710  0.3985  0.2061
   88MOL   C18831682   2.975   1.006   6.236  0.4734  0.0568 -0.2520
   88MOL   C18931683   2.886   0.925   6.138  0.2685 -0.2657  0.1484
   88MOL   H19031684   2.504   1.267   6.292  0.7813 -0.3317 -3.6139
   88MOL   H19131685   2.568   1.410   6.379 -0.3194  0.4174  0.7275
   88MOL   H19231686   2.714   1.462   6.173 -0.0834  0.5307  1.0221
   88MOL   H19331687   2.975   1.166   6.372  0.9067  0.5354 -1.1460
   88MOL   H19431688   2.877   1.039   6.427  0.0383 -1.0322 -0.7341
   88MOL   H19531689   3.041   1.076   6.185  1.6575 -1.9413 -1.5564
   88MOL   H19631690   3.039   0.930   6.281 -2.7037 -0.7008  3.2897
   88MOL   H19731691   2.830   0.845   6.187  0.1247  0.3077  0.9299
   88MOL   H19831692   2.951   0.884   6.061  0.8911 -0.0355  0.5431
   88MOL   H19931693   2.809   0.988   6.094  0.2003  0.4325  1.2532
   88MOL   C20031694   2.656   1.306   6.045  0.1049 -0.4019  0.1255
   88MOL   C20131695   2.705   1.405   5.946 -0.5716  0.0756 -0.3074
   88MOL   C20231696   2.855   1.422   5.932 -0.2887 -0.3893  0.3849
   88MOL   O20331697   2.906   1.531   5.911  0.5026 -0.7440  0.3800
   88MOL   O20431698   2.917   1.304   5.930  0.3491 -0.0676 -0.3973
   88MOL   C20531699   3.055   1.296   5.928  0.5016 -0.3188 -0.8132
   88MOL   C20631700   3.105   1.159   5.900  0.1813  0.2167 -1.0866
   88MOL   C20731701   3.092   1.116   5.755  0.7209  0.4101 -0.3590
   88MOL   H20831702   2.559   1.256   6.048 -1.1221  1.9602  1.7844
   88MOL   H20931703   2.722   1.222   6.026 -0.5759 -0.7760 -0.6256
   88MOL   H21031704   2.669   1.501   5.983 -0.7975  0.5702 -1.7521
   88MOL   H21131705   3.099   1.371   5.862 -0.9674  0.9292 -0.4142
   88MOL   H21231706   3.082   1.338   6.025 -3.3928 -0.1491  0.3218
   88MOL   H21331707   3.206   1.146   5.939  0.1315 -0.6790 -1.2379
   88MOL   H21431708   3.057   1.084   5.963  0.9526  1.3096  0.8593
   88MOL   H21531709   3.114   1.013   5.726 -1.1162 -0.0302 -0.2669
   88MOL   H21631710   3.168   1.168   5.697  0.1770  1.6678  0.0289
   88MOL   H21731711   2.994   1.133   5.712 -0.5056 -1.3995  1.6235
   88MOL   C21831712   2.634   1.397   5.810  0.0193 -0.2914  0.5053
   88MOL   C21931713   2.671   1.277   5.711 -0.1522  0.1894 -0.7604
   88MOL   C22031714   2.598   1.149   5.756 -0.2526  0.3093 -0.3491
   88MOL   O22131715   2.657   1.046   5.798  0.0392  0.0997 -0.2018
   88MOL   O22231716   2.465   1.161   5.749  0.0588  0.4212  0.2559
   88MOL   C22331717   2.382   1.071   5.818 -0.7690 -0.3535  0.0880
   88MOL   C22431718   2.330   0.958   5.727 -0.5421 -0.0420  0.3478
   88MOL   C22531719   2.239   1.024   5.617 -0.3101 -0.2884 -0.1327
   88MOL   H22631720   2.664   1.493   5.767  0.0316 -0.0428  1.0683
   88MOL   H22731721   2.527   1.406   5.825  0.0766 -0.5056  1.0327
   88MOL   H22831722   2.775   1.247   5.722 -0.3540 -0.8855 -1.7159
   88MOL   H22931723   2.444   1.024   5.894 -1.7918 -0.2892  0.9720
   88MOL   H23031724   2.300   1.115   5.875 -0.2591 -0.9083  1.2683
   88MOL   H23131725   2.418   0.911   5.683  0.1796 -0.4684  2.1965
   88MOL   H23231726   2.289   0.878   5.789 -0.3197 -1.9093 -1.8119
   88MOL   H23331727   2.151   1.079   5.652  0.0425 -0.1228  0.5016
   88MOL   H23431728   2.207   0.953   5.541  1.0973  0.7204 -1.6825
   88MOL   H23531729   2.298   1.094   5.558 -0.4263  3.1746  3.6281
   88MOL   C23631730   2.652   1.317   5.561 -0.0553 -0.1145  0.0454
   88MOL   C23731731   2.731   1.243   5.457 -0.5122 -0.9416  0.2422
   88MOL   C23831732   2.709   1.092   5.463  0.7335 -0.0830 -0.8822
   88MOL   O23931733   2.601   1.038   5.429  0.3510 -0.0159  0.0481
   88MOL   O24031734   2.816   1.024   5.502  0.2016 -0.6227  0.0915
   88MOL   C24131735   2.818   0.883   5.514 -0.3652 -0.8244 -0.0828
   88MOL   C24231736   2.947   0.840   5.584  0.5467 -0.7621 -0.0014
   88MOL   C24331737   3.069   0.864   5.491 -0.8709 -0.2704  0.2293
   88MOL   H24431738   2.688   1.419   5.551  1.2676 -0.4978  0.8081
   88MOL   H24531739   2.548   1.301   5.534 -0.2323 -0.7865  1.0710
   88MOL   H24631740   2.835   1.265   5.480  0.4492 -2.5115 -2.3709
   88MOL   H24731741   2.729   0.859   5.573 -0.0780  0.6728  0.9989
   88MOL   H24831742   2.815   0.830   5.419  0.0578 -0.2021 -0.4392
   88MOL   H24931743   2.959   0.888   5.681  1.9723 -1.0698 -0.0085
   88MOL   H25031744   2.941   0.732   5.597 -0.2008 -0.7697 -0.3924
   88MOL   H25131745   3.159   0.813   5.526 -0.0581  0.9151 -0.1116
   88MOL   H25231746   3.090   0.971   5.487 -1.8498 -0.1411 -2.7506
   88MOL   H25331747   3.055   0.832   5.387 -0.8617  0.8469 -0.1185
   88MOL   C25431748   2.713   1.297   5.312 -0.7748  0.0689  0.0346
   88MOL   C25531749   2.842   1.291   5.224 -0.4905 -0.5088  0.3411
   88MOL   C25631750   2.881   1.147   5.177 -0.2156 -0.0060  0.4676
   88MOL   O25731751   2.975   1.086   5.234  0.2091 -0.1726  0.0493
   88MOL   O25831752   2.793   1.091   5.091  0.0742 -0.3082 -0.3470
   88MOL   C25931753   2.793   0.950   5.075 -0.3630  0.4216 -0.4254
   88MOL   C26031754   2.656   0.890   5.067 -0.5738  0.7189 -0.3663
   88MOL   C26131755   2.653   0.738   5.042 -0.2136  0.6086 -0.4007
   88MOL   H26231756   2.684   1.402   5.317 -0.7129  0.2070 -2.1598
   88MOL   H26331757   2.628   1.250   5.263 -0.7578  0.1873 -0.1095
   88MOL   H26431758   2.922   1.330   5.288 -0.4343 -0.2406  0.1073
   88MOL   H26531759   2.847   0.922   4.984 -0.8196 -0.8090 -0.3313
   88MOL   H26631760   2.841   0.904   5.161 -0.6421  2.1799  0.6999
   88MOL   H26731761   2.608   0.918   5.160  0.9217 -0.7046  0.8763
   88MOL   H26831762   2.590   0.936   4.994  0.9741  2.6915 -0.5549
   88MOL   H26931763   2.547   0.715   5.046 -0.4684  1.5211 -1.6945
   88MOL   H27031764   2.705   0.678   5.117 -2.1085  0.2646  0.6739
   88MOL   H27131765   2.692   0.704   4.946 -3.2796 -1.5843 -0.9380
   88MOL   C27231766   2.816   1.379   5.098  0.9870  0.2564 -0.5865
   88MOL   C27331767   2.938   1.418   5.016 -0.4183  0.5194 -0.5913
   88MOL   C27431768   2.913   1.400   4.866 -0.2544  0.3813 -0.6967
   88MOL   O27531769   2.928   1.293   4.811  0.6073  0.1260 -0.4164
   88MOL   O27631770   2.845   1.504   4.811  0.0712  0.0964  0.2871
   88MOL   C27731771   2.829   1.504   4.671  0.4167 -0.3683 -0.2127
   88MOL   C27831772   2.869   1.645   4.637 -0.1440 -0.1896  0.2268
   88MOL   C27931773   3.019   1.659   4.631  0.4832 -0.1226 -0.4061
   88MOL   H28031774   2.778   1.475   5.132 -1.5694 -0.4606 -1.3180
   88MOL   H28131775   2.739   1.338   5.033  2.6549 -0.9781 -1.8384
   88MOL   H28231776   3.016   1.347   5.046  0.1877 -0.5853 -4.5134
   88MOL   H28331777   2.880   1.430   4.609 -0.0666 -0.0401 -1.0054
   88MOL   H28431778   2.726   1.499   4.635  0.6571 -1.0529 -0.8161
   88MOL   H28531779   2.835   1.668   4.536 -0.1186  0.5205  0.3839
   88MOL   H28631780   2.813   1.719   4.693  0.4589  0.7107 -0.3546
   88MOL   H28731781   3.058   1.624   4.727  0.6792  0.0933 -0.4070
   88MOL   H28831782   3.060   1.758   4.611 -2.4242  1.1813 -0.0875
   88MOL   H28931783   3.051   1.590   4.552  0.3658 -0.8618  0.1845
   88MOL   C29031784   2.996   1.559   5.045  0.0306 -0.4157 -0.1339
   88MOL   C29131785   3.066   1.571   5.185 -0.0236 -0.4886  0.3634
   88MOL   C29231786   3.202   1.497   5.189 -0.2608  0.4038 -0.1412
   88MOL   O29331787   3.285   1.516   5.101  0.4154  0.4051 -0.1799
   88MOL   O29431788   3.206   1.413   5.295  0.3990  0.7955 -0.5566
   88MOL   C29531789   3.317   1.338   5.319 -0.2496  0.7614  0.2598
   88MOL   C29631790   3.319   1.195   5.253 -0.7079 -0.1480 -0.9460
   88MOL   C29731791   3.384   1.192   5.117 -0.2186 -0.0690 -0.0128
   88MOL   H29831792   2.915   1.632   5.041  1.0918  0.7378 -1.0298
   88MOL   H29931793   3.056   1.601   4.965 -1.0266  1.8388  0.2072
   88MOL   H30031794   3.005   1.519   5.258  1.6977 -1.2445  1.2969
   88MOL   H30131795   3.409   1.393   5.299  0.2252 -1.0182 -2.7937
   88MOL   H30231796   3.317   1.327   5.427 -0.9392 -1.8759  0.0208
   88MOL   H30331797   3.377   1.120   5.307 -0.2787  0.5609 -0.4264
   88MOL   H30431798   3.218   1.154   5.240 -1.2174  0.1739  1.7019
   88MOL   H30531799   3.342   1.265   5.049 -0.3208 -1.7343 -1.7766
   88MOL   H30631800   3.374   1.089   5.083  0.6551  0.4910 -2.0410
   88MOL   H30731801   3.491   1.209   5.127 -0.5815  2.0538  0.5016
   88MOL   C30831802   3.088   1.716   5.220  0.9357 -0.7691  0.7169
   88MOL   C30931803   2.957   1.785   5.268  0.6160 -0.1793 -0.2472
   88MOL   C31031804   2.897   1.735   5.396 -0.2389  0.6501  1.0880
   88MOL   O31131805   2.795   1.664   5.392  0.4633 -0.4841  0.1448
   88MOL   O31231806   2.974   1.753   5.503 -1.0200  0.5018  0.0070
   88MOL   C31331807   2.954   1.681   5.620 -0.3600  0.6851 -0.4822
   88MOL   C31431808   3.003   1.532   5.600  0.7735 -0.4076 -0.0741
   88MOL   C31531809   3.151   1.525   5.570 -0.0476 -0.4658  0.0891
   88MOL   H31631810   3.138   1.761   5.134  1.0638  0.0325  1.2030
   88MOL   H31731811   3.147   1.722   5.312  1.1797  0.5299  0.4787
   88MOL   H31831812   2.878   1.775   5.193 -0.6723 -3.5983  1.4671
   88MOL   H31931813   3.010   1.730   5.700  2.3242 -0.2063 -1.7433
   88MOL   H32031814   2.847   1.677   5.640 -0.6331  0.6953 -1.9002
   88MOL   H32131815   2.978   1.479   5.692 -0.5938  0.0223 -0.1793
   88MOL   H32231816   2.942   1.482   5.525 -0.4685 -1.1136  1.3860
   88MOL   H32331817   3.204   1.581   5.647 -0.8044  0.3996 -0.0214
   88MOL   H32431818   3.182   1.420   5.562 -0.6936 -0.5162 -2.2256
   88MOL   H32531819   3.187   1.581   5.484 -2.2777 -0.2953 -0.7656
   88MOL   C32631820   2.990   1.939   5.281 -0.4474 -0.3998  0.4839
   88MOL   C32731821   2.999   2.021   5.146 -0.5790  0.6533 -0.6081
   88MOL   C32831822   2.867   2.014   5.073 -0.7593  0.8153  0.5813
   88MOL   O32931823   2.765   2.062   5.116 -0.0159 -0.4899 -0.5237
   88MOL   O33031824   2.870   1.924   4.963  0.2676  0.0929  0.3272
   88MOL   C33131825   2.753   1.916   4.883  0.3592 -0.9123  0.4368
   88MOL   C33231826   2.749   2.014   4.762 -0.9307  0.3224 -0.5686
   88MOL   C33331827   2.874   2.022   4.669 -0.4264 -0.2782 -0.3565
   88MOL   H33431828   3.083   1.948   5.338 -1.1107  1.9144  1.2667
   88MOL   H33531829   2.917   1.994   5.340 -0.9582 -1.4950  0.8848
   88MOL   H33631830   3.074   1.974   5.083  0.9215 -0.1639  1.7263
   88MOL   H33731831   2.740   1.815   4.842  1.0249 -0.4900 -0.8669
   88MOL   H33831832   2.659   1.930   4.936 -0.4371 -2.0777 -0.6157
   88MOL   H33931833   2.675   1.974   4.693 -0.7643 -2.3654  0.7507
   88MOL   H34031834   2.720   2.113   4.798  1.0889  0.0226  2.0365
   88MOL   H34131835   2.955   2.068   4.726 -1.1839  0.5622  0.0524
   88MOL   H34231836   2.915   1.928   4.633 -2.9398 -1.3087 -0.6122
   88MOL   H34331837   2.853   2.081   4.580 -1.1259 -2.0000 -1.3570
   88MOL   C34431838   3.034   2.169   5.175 -0.2764  0.3175  0.3756
   88MOL   C34531839   3.113   2.260   5.070  0.1959 -0.0625  0.4035
   88MOL   C34631840   3.237   2.208   5.000 -0.4642  0.0628 -0.5279
   88MOL   O34731841   3.243   2.089   4.968  0.1146 -0.1119 -0.5759
   88MOL   O34831842   3.329   2.300   4.973  0.4495  0.1541 -0.5612
   88MOL   C34931843   3.449   2.266   4.921  0.3155  0.3485  0.5126
   88MOL   C35031844   3.540   2.257   5.045 -0.6981 -0.4636 -0.4343
   88MOL   C35131845   3.684   2.250   5.016  0.1900  0.1949 -0.8298
   88MOL   H35231846   3.101   2.152   5.259  0.3891  0.5583 -0.1047
   88MOL   H35331847   2.945   2.220   5.213 -0.8738 -0.7025  0.3560
   88MOL   H35431848   3.139   2.352   5.122 -0.8900  0.6903 -0.3796
   88MOL   H35531849   3.450   2.167   4.874  0.5171  1.1093 -1.1350
   88MOL   H35631850   3.474   2.345   4.850 -0.2376 -0.7138 -0.8882
   88MOL   H35731851   3.524   2.344   5.108 -0.4595 -1.1778  0.6271
   88MOL   H35831852   3.513   2.174   5.111  1.3962 -0.9468 -0.1604
   88MOL   H35931853   3.716   2.313   4.933  0.5818  0.8883 -0.1553
   88MOL   H36031854   3.744   2.284   5.100  1.3787 -1.4423 -0.9778
   88MOL   H36131855   3.717   2.150   4.985 -0.0447  0.7520 -2.9298
   88MOL   H36231856   3.042   2.288   4.993 -0.2988 -1.3116  0.3877
   89MOL     C131857   3.709   1.700   4.524  0.2120  0.0467  0.0980
   89MOL     C231858   3.676   1.598   4.417 -1.0158 -0.3466  0.5107
   89MOL     C331859   3.750   1.631   4.287 -0.3149 -0.8477  0.1372
   89MOL     O431860   3.853   1.568   4.257  0.0539  0.0524 -0.0769
   89MOL     O531861   3.681   1.724   4.209 -0.4899 -0.1761 -0.0345
   89MOL     C631862   3.731   1.765   4.083 -0.0494 -0.3595 -0.3897
   89MOL     C731863   3.791   1.904   4.100  0.1248  0.1854  0.1162
   89MOL     C831864   3.685   2.014   4.101 -0.3347 -1.0107 -0.1009
   89MOL     H931865   3.653   1.685   4.617 -0.8235  0.8672 -0.3777
   89MOL    H1031866   3.815   1.682   4.541 -0.0575 -0.9117  0.8321
   89MOL    H1131867   3.568   1.609   4.401 -0.4700 -1.5322 -5.0680
   89MOL    H1231868   3.808   1.698   4.043  0.8932 -0.5230  1.6735
   89MOL    H1331869   3.653   1.780   4.007 -3.1989  2.5513  3.2092
   89MOL    H1431870   3.836   1.907   4.199 -1.6464  0.6484  0.9097
   89MOL    H1531871   3.851   1.942   4.016 -0.0673 -0.2118 -0.2011
   89MOL    H1631872   3.612   1.993   4.180 -4.0963  2.2735 -2.5083
   89MOL    H1731873   3.727   2.114   4.114 -3.1562  0.2510 -0.3527
   89MOL    H1831874   3.625   2.006   4.010  1.4566 -1.6884 -1.2641
   89MOL    H1931875   3.690   1.801   4.491 -1.5360 -0.2932  0.0001
   89MOL    C2031876   3.696   1.458   4.464 -1.1940 -0.2169  0.4316
   89MOL    C2131877   3.687   1.333   4.372  0.7736  0.1919 -0.0841
   89MOL    C2231878   3.760   1.204   4.429 -0.2379 -0.4092 -0.7638
   89MOL    O2331879   3.810   1.195   4.539  0.3561  0.0564 -0.2590
   89MOL    O2431880   3.763   1.097   4.348 -0.4258 -0.1716 -0.1651
   89MOL    C2531881   3.783   0.962   4.403  0.4261 -0.3522  0.2024
   89MOL    C2631882   3.656   0.909   4.459 -0.2774  0.2672  0.2274
   89MOL    C2731883   3.548   0.867   4.362 -0.4988 -0.5015  0.3913
   89MOL    H2831884   3.620   1.437   4.540 -1.9870 -0.4154 -0.4093
   89MOL    H2931885   3.790   1.453   4.519 -1.5218 -1.4565  0.9172
   89MOL    H3031886   3.740   1.357   4.280 -0.6815  0.2876 -0.9169
   89MOL    H3131887   3.813   0.894   4.323  0.9803 -1.0650  1.0097
   89MOL    H3231888   3.858   0.949   4.482 -0.0879 -1.3845  0.5233
   89MOL    H3331889   3.691   0.828   4.524  0.2714  1.5401  1.5407
   89MOL    H3431890   3.610   0.977   4.531 -1.0649  0.3744 -0.3659
   89MOL    H3531891   3.563   0.773   4.310  1.6974  0.2483 -0.3841
   89MOL    H3631892   3.539   0.940   4.282  0.6087  0.5280  1.1859
   89MOL    H3731893   3.452   0.871   4.413  0.4184 -0.5034  2.1617
   89MOL    C3831894   3.537   1.292   4.342 -1.2073 -0.3447  0.1024
   89MOL    C3931895   3.472   1.380   4.227 -0.0173  0.3258  1.0159
   89MOL    C4031896   3.548   1.370   4.089  0.2720  0.8132 -0.7046
   89MOL    O4131897   3.583   1.465   4.023  0.3025 -0.1304 -0.3132
   89MOL    O4231898   3.561   1.235   4.055  0.6325 -0.2091  0.0846
   89MOL    C4331899   3.639   1.181   3.955  0.3329 -0.4034 -0.3713
   89MOL    C4431900   3.581   1.036   3.919 -0.5765  0.1749 -0.1963
   89MOL    C4531901   3.658   0.969   3.804 -0.3070 -0.1570 -0.4713
   89MOL    H4631902   3.484   1.310   4.436 -2.8601  1.0033 -1.0602
   89MOL    H4731903   3.521   1.192   4.302 -0.3226  0.4198 -2.2443
   89MOL    H4831904   3.489   1.483   4.260 -2.3478  0.4013  2.0247
   89MOL    H4931905   3.626   1.249   3.871 -0.1359  0.0501  0.0672
   89MOL    H5031906   3.739   1.180   3.997  0.0316  1.3831  0.4231
   89MOL    H5131907   3.572   0.977   4.010  2.1465  1.8488  1.2570
   89MOL    H5231908   3.479   1.056   3.885 -0.2743  0.5171 -0.9144
   89MOL    H5331909   3.619   0.871   3.778  1.0385 -1.4556  2.1309
   89MOL    H5431910   3.764   0.966   3.828 -0.2334 -0.8807 -0.8761
   89MOL    H5531911   3.649   1.028   3.713  0.4456  1.0052  0.1959
   89MOL    C5631912   3.321   1.358   4.217  0.1917  0.1178  0.0896
   89MOL    C5731913   3.225   1.399   4.340 -0.2486 -0.7389  0.3281
   89MOL    C5831914   3.173   1.543   4.304 -0.0161  0.4887 -0.0526
   89MOL    O5931915   3.056   1.573   4.266 -0.0555  0.1210  0.2752
   89MOL    O6031916   3.267   1.635   4.326  1.1705  0.4860  0.0814
   89MOL    C6131917   3.239   1.779   4.316  0.1738 -0.0631  0.0697
   89MOL    C6231918   3.358   1.859   4.373  0.4773 -0.7379  0.1862
   89MOL    C6331919   3.365   1.849   4.525 -0.3459 -0.5686  0.5519
   89MOL    H6431920   3.318   1.251   4.195 -0.1572  0.6061 -2.3996
   89MOL    H6531921   3.294   1.412   4.126 -0.8296  1.2072  1.0216
   89MOL    H6631922   3.289   1.428   4.423  1.2475 -0.6546 -0.8370
   89MOL    H6731923   3.216   1.811   4.215 -3.1246 -2.0536  0.1336
   89MOL    H6831924   3.154   1.793   4.383 -0.9789 -2.0870 -0.9219
   89MOL    H6931925   3.452   1.824   4.332  0.7088  0.3587 -0.2227
   89MOL    H7031926   3.342   1.965   4.354 -0.6056 -0.5245  2.1455
   89MOL    H7131927   3.459   1.886   4.564  0.3608 -0.3341 -1.3278
   89MOL    H7231928   3.341   1.748   4.559 -0.6716 -0.6873 -0.0180
   89MOL    H7331929   3.287   1.912   4.569 -0.2317 -0.0590  0.0356
   89MOL    C7431930   3.111   1.299   4.376  0.3236 -0.2616 -0.3599
   89MOL    C7531931   3.159   1.167   4.444 -0.6681  0.1125  0.3066
   89MOL    C7631932   3.241   1.199   4.573 -0.0465  0.1941  0.7965
   89MOL    O7731933   3.342   1.134   4.588  0.4463 -0.2121 -0.5525
   89MOL    O7831934   3.199   1.297   4.650 -0.3007 -0.4069  0.0421
   89MOL    C7931935   3.257   1.320   4.778 -0.1685 -0.1247 -0.7480
   89MOL    C8031936   3.378   1.418   4.762  0.3043  0.0794  0.5009
   89MOL    C8131937   3.515   1.348   4.754  0.4097 -0.0120  0.4728
   89MOL    H8231938   3.053   1.277   4.287 -0.6138 -2.7558  0.8009
   89MOL    H8331939   3.038   1.357   4.434 -0.0569 -0.3962 -0.7061
   89MOL    H8431940   3.210   1.095   4.379 -0.3357  0.6306 -0.0102
   89MOL    H8531941   3.190   1.379   4.841  2.1177 -1.4702  3.1517
   89MOL    H8631942   3.275   1.228   4.835 -1.1511 -0.4823 -1.0154
   89MOL    H8731943   3.358   1.489   4.682 -0.2087 -0.0467  0.5089
   89MOL    H8831944   3.390   1.487   4.845  0.9388 -0.9700  1.2908
   89MOL    H8931945   3.523   1.295   4.658  0.6502 -1.0451  1.0537
   89MOL    H9031946   3.502   1.262   4.820 -0.2452 -0.3333 -0.0620
   89MOL    H9131947   3.611   1.392   4.780  0.3192  0.1932  0.4544
   89MOL    C9231948   3.033   1.088   4.494  0.5507 -0.2391  0.1990
   89MOL    C9331949   3.025   0.934   4.449 -0.1102 -0.2998 -0.1715
   89MOL    C9431950   3.150   0.864   4.516  0.3277 -0.2361  0.1958
   89MOL    O9531951   3.231   0.798   4.455 -0.0808 -0.1521 -0.8302
   89MOL    O9631952   3.148   0.886   4.647  0.2834 -0.0597  0.4946
   89MOL    C9731953   3.255   0.837   4.726 -0.1974  0.3160 -0.6456
   89MOL    C9831954   3.277   0.900   4.856  0.6219 -0.1640  0.0718
   89MOL    C9931955   3.150   0.918   4.938  0.1834  0.1861  0.2401
   89MOL   H10031956   2.936   1.132   4.470  0.0958 -0.5372  1.4762
   89MOL   H10131957   3.013   1.081   4.601 -3.0183 -0.7200 -0.4405
   89MOL   H10231958   3.032   0.917   4.342 -1.3426 -0.7818 -0.1880
   89MOL   H10331959   3.256   0.728   4.728  0.7854  0.3405  1.2404
   89MOL   H10431960   3.346   0.873   4.678 -0.6030 -0.3556 -1.9511
   89MOL   H10531961   3.358   0.852   4.911  0.0182 -1.0643  0.1822
   89MOL   H10631962   3.315   1.000   4.832  0.7386 -1.0734 -3.8281
   89MOL   H10731963   3.085   1.004   4.920  0.5854  0.9476  2.3189
   89MOL   H10831964   3.166   0.912   5.045  4.1373 -1.4937 -0.3361
   89MOL   H10931965   3.085   0.833   4.917  0.5652 -0.0983  0.1986
   89MOL   C11031966   2.885   0.878   4.497 -0.3776 -0.1276  0.5931
   89MOL   C11131967   2.869   0.728   4.489 -0.5758  0.5391 -0.4030
   89MOL   C11231968   2.920   0.655   4.616 -0.3102  0.2230 -0.0428
   89MOL   O11331969   2.851   0.666   4.719 -0.0063 -0.0491 -0.1238
   89MOL   O11431970   3.038   0.595   4.602 -0.3613  0.6100 -0.0866
   89MOL   C11531971   3.095   0.517   4.704 -0.0893  0.0815 -0.2470
   89MOL   C11631972   3.044   0.372   4.697 -0.1753 -0.7298 -0.4096
   89MOL   C11731973   3.143   0.290   4.784  0.3792 -0.0470  0.1153
   89MOL   H11831974   2.805   0.929   4.444 -0.8965  1.1535  2.5771
   89MOL   H11931975   2.864   0.907   4.600 -0.2953 -2.2875  1.2576
   89MOL   H12031976   2.921   0.681   4.406  0.5621  3.3463 -1.3479
   89MOL   H12131977   3.201   0.516   4.676 -0.3688  0.2432 -1.3152
   89MOL   H12231978   3.099   0.567   4.801  0.1522  1.8989 -1.1584
   89MOL   H12331979   2.939   0.362   4.727  0.1027 -0.6349  0.6161
   89MOL   H12431980   3.061   0.332   4.597  0.6020 -1.0055 -0.1709
   89MOL   H12531981   3.135   0.183   4.764 -0.2622 -0.1005  0.6361
   89MOL   H12631982   3.115   0.290   4.889 -0.1011  2.4558  0.0079
   89MOL   H12731983   3.248   0.311   4.763 -0.1008  0.7014 -1.6342
   89MOL   C12831984   2.723   0.685   4.457  0.5386 -0.2027 -0.1721
   89MOL   C12931985   2.715   0.596   4.319 -0.6566  0.3627 -0.9605
   89MOL   C13031986   2.760   0.667   4.197 -0.1025 -0.0020 -0.5693
   89MOL   O13131987   2.879   0.667   4.164  0.2532  0.0370 -0.1276
   89MOL   O13231988   2.667   0.746   4.157  0.4996  0.1676  0.0959
   89MOL   C13331989   2.693   0.834   4.046 -0.6199 -0.2192  0.1940
   89MOL   C13431990   2.634   0.965   4.091 -0.1187 -0.3623 -0.2188
   89MOL   C13531991   2.485   0.980   4.051 -0.4100 -0.3541 -0.5309
   89MOL   H13631992   2.657   0.772   4.451  1.5167  0.7049  1.7991
   89MOL   H13731993   2.678   0.632   4.541  1.7072  0.2415  0.7480
   89MOL   H13831994   2.611   0.573   4.294 -0.9264  1.6453 -1.0544
   89MOL   H13931995   2.798   0.857   4.028 -0.5876  0.0152  0.6658
   89MOL   H14031996   2.652   0.802   3.950 -0.2345 -0.8197  0.2294
   89MOL   H14131997   2.657   0.988   4.195  1.3201  0.4785 -0.7167
   89MOL   H14231998   2.687   1.042   4.035 -0.6859 -1.5320 -2.4100
   89MOL   H14331999   2.433   1.064   4.097 -0.5921 -0.2984 -0.8335
   89MOL   H14432000   2.419   0.903   4.092 -2.8058  1.5490 -0.6969
   89MOL   H14532001   2.467   1.001   3.945 -0.1291 -3.4129 -1.2293
   89MOL   C14632002   2.792   0.458   4.340 -0.2093 -0.2340 -0.0318
   89MOL   C14732003   2.781   0.361   4.225 -0.2226 -0.1305 -0.5474
   89MOL   C14832004   2.888   0.256   4.227  0.4551 -0.2196  0.1718
   89MOL   O14932005   2.986   0.261   4.150  0.3412 -0.1937  0.3620
   89MOL   O15032006   2.854   0.156   4.319  0.1247 -0.7615 -0.1871
   89MOL   C15132007   2.943   0.055   4.356  0.5413  0.3652  0.0199
   89MOL   C15232008   2.854   7.816   4.404 -0.6040  0.0992  0.8219
   89MOL   C15332009   2.940   7.700   4.455  0.7872  0.8685  0.6079
   89MOL   H15432010   2.759   0.415   4.434 -1.5390 -0.3041 -0.5304
   89MOL   H15532011   2.899   0.474   4.353 -0.3668  0.0576  0.9001
   89MOL   H15632012   2.811   0.404   4.129 -0.8113  1.2016 -0.1467
   89MOL   H15732013   3.004   0.010   4.278 -1.6925 -0.5349 -1.2444
   89MOL   H15832014   3.003   0.098   4.436  0.7134 -0.3105  0.2642
   89MOL   H15932015   2.802   7.860   4.489 -2.4197  0.2703 -0.3594
   89MOL   H16032016   2.785   7.789   4.325  1.4267 -0.9492 -0.6396
   89MOL   H16132017   3.020   7.734   4.520 -0.9947  3.0660  1.7076
   89MOL   H16232018   2.981   7.649   4.368  0.1308  3.0810 -1.0305
   89MOL   H16332019   2.864   7.634   4.497  0.0617 -0.4759 -2.6505
   89MOL   C16432020   2.632   0.308   4.208  0.0143  0.0396  0.0060
   89MOL   C16532021   2.546   0.390   4.110 -0.9055  0.2887  0.3845
   89MOL   C16632022   2.592   0.389   3.964 -0.0675  0.3125 -0.6816
   89MOL   O16732023   2.545   0.321   3.879 -0.2796  0.1769  0.5065
   89MOL   O16832024   2.687   0.474   3.949 -0.1349  0.2790 -0.1684
   89MOL   C16932025   2.756   0.490   3.827 -0.0308  0.0053 -0.1822
   89MOL   C17032026   2.901   0.441   3.843  0.3027  0.5139 -0.4401
   89MOL   C17132027   2.902   0.282   3.855  0.5032  0.3802  0.3917
   89MOL   H17232028   2.584   0.294   4.305 -0.6597 -1.5357 -0.5370
   89MOL   H17332029   2.635   0.208   4.166  2.3371 -0.0101  0.2134
   89MOL   H17432030   2.550   0.495   4.139 -1.7072  1.2210 -2.6870
   89MOL   H17532031   2.719   0.419   3.753 -1.3916 -0.7996  1.2239
   89MOL   H17632032   2.750   0.592   3.791  0.5010  0.0306 -0.2042
   89MOL   H17732033   2.954   0.476   3.755 -1.8458  2.7128 -0.8931
   89MOL   H17832034   2.950   0.485   3.931 -0.9307 -0.3497  0.6857
   89MOL   H17932035   2.844   0.248   3.941 -0.2411  0.7551  0.0349
   89MOL   H18032036   3.007   0.255   3.869  1.0091  0.0383 -3.5311
   89MOL   H18132037   2.868   0.238   3.762 -0.0309  0.5804  0.4921
   89MOL   C18232038   2.397   0.356   4.127  0.1206 -0.2295  0.0573
   89MOL   C18332039   2.325   0.423   4.248 -0.3210 -0.1984  0.2205
   89MOL   C18432040   2.337   0.579   4.238  0.0165 -0.6659 -0.2313
   89MOL   O18532041   2.345   0.626   4.128 -0.3391 -0.0024  0.1062
   89MOL   O18632042   2.339   0.643   4.359  0.3820  0.0384  0.6238
   89MOL   C18732043   2.367   0.778   4.365  0.3844  0.5519 -0.1125
   89MOL   C18832044   2.358   0.829   4.511 -0.1475  0.8623 -0.0407
   89MOL   C18932045   2.204   0.814   4.562 -0.4813  0.0574  0.5333
   89MOL   H19032046   2.396   0.248   4.140 -1.3882  0.0102  2.1379
   89MOL   H19132047   2.336   0.373   4.039 -1.3765  0.1230  1.1481
   89MOL   H19232048   2.393   0.413   4.333  0.9347  0.5493 -0.6835
   89MOL   H19332049   2.468   0.811   4.339  0.8755  1.0653  2.2817
   89MOL   H19432050   2.289   0.829   4.310  0.3830  0.3431 -0.3015
   89MOL   H19532051   2.423   0.775   4.580 -1.0857 -1.0835 -0.6435
   89MOL   H19632052   2.389   0.933   4.515  0.1029  0.7451  1.8168
   89MOL   H19732053   2.146   0.896   4.521 -1.6073 -1.2935 -0.6187
   89MOL   H19832054   2.204   0.807   4.671  1.6673  0.6510  0.6006
   89MOL   H19932055   2.160   0.719   4.532  1.2123 -0.8044  0.6755
   89MOL   C20032056   2.181   0.374   4.273  0.1272 -0.4261 -0.3422
   89MOL   C20132057   2.170   0.247   4.355  0.0801  0.3264 -0.3671
   89MOL   C20232058   2.261   0.253   4.479 -0.5263 -0.4401 -0.3193
   89MOL   O20332059   2.367   0.194   4.485  0.1858  0.0472 -0.1389
   89MOL   O20432060   2.199   0.329   4.580 -0.5058  0.3844  0.0133
   89MOL   C20532061   2.262   0.342   4.708  0.0828  0.0672 -0.2365
   89MOL   C20632062   2.344   0.471   4.695  0.0190  0.0817  0.1448
   89MOL   C20732063   2.389   0.511   4.832 -0.4042  0.2253 -0.4201
   89MOL   H20832064   2.124   0.357   4.182 -0.1826 -1.1970 -0.0108
   89MOL   H20932065   2.127   0.446   4.334  0.4164 -0.6359  0.1676
   89MOL   H21032066   2.211   0.169   4.290  0.2195  1.0619 -1.1666
   89MOL   H21132067   2.182   0.353   4.781  1.0543 -0.6646  0.9780
   89MOL   H21232068   2.327   0.255   4.725  0.8044  0.4080 -1.2020
   89MOL   H21332069   2.425   0.436   4.631 -0.9954  0.6603 -1.4742
   89MOL   H21432070   2.292   0.548   4.638  0.8767 -0.5226 -1.4841
   89MOL   H21532071   2.437   0.423   4.874  1.2489  1.4656  0.3264
   89MOL   H21632072   2.306   0.534   4.898  1.8528  1.5564  2.0392
   89MOL   H21732073   2.458   0.596   4.831  0.8903 -0.8059  0.4479
   89MOL   C21832074   2.028   0.204   4.382 -0.0261  0.2435  0.0647
   89MOL   C21932075   1.980   0.059   4.361 -0.5207 -0.1665 -0.2996
   89MOL   C22032076   2.070   7.833   4.432 -0.1353  0.3080  0.5155
   89MOL   O22132077   2.115   7.738   4.368  0.1518  0.5038 -0.0678
   89MOL   O22232078   2.086   7.853   4.566 -0.5411  0.4027 -0.7628
   89MOL   C22332079   2.186   7.767   4.635  0.8454 -1.0753  0.6573
   89MOL   C22432080   2.192   7.805   4.784 -0.0562  0.3473 -1.0932
   89MOL   C22532081   2.057   7.771   4.855 -0.1265 -0.3798 -0.2353
   89MOL   H22632082   1.962   0.265   4.320 -1.3786 -1.7878 -0.5359
   89MOL   H22732083   1.997   0.239   4.480 -0.2520 -1.0212  0.4425
   89MOL   H22832084   1.990   0.043   4.254 -2.6145 -2.4921 -0.1952
   89MOL   H22932085   2.151   7.664   4.631 -1.5088 -0.3435  1.0136
   89MOL   H23032086   2.280   7.771   4.580  1.1260 -0.5834  1.1739
   89MOL   H23132087   2.265   7.736   4.827 -0.7893  0.1643 -0.1150
   89MOL   H23232088   2.234   0.025   4.788 -0.7482  0.7246 -3.0803
   89MOL   H23332089   2.071   7.809   4.956 -0.1650  1.0574 -0.7566
   89MOL   H23432090   2.040   7.664   4.857  0.6518 -0.5011 -0.1447
   89MOL   H23532091   1.973   7.817   4.803  0.5837  1.1466 -0.0649
   89MOL   C23632092   1.827   0.057   4.399  0.4055  0.5770  0.4158
   89MOL   C23732093   1.760   7.802   4.374  1.0031 -0.4587 -0.1326
   89MOL   C23832094   1.637   7.783   4.465  0.0141 -0.4784  0.5006
   89MOL   O23932095   1.629   7.689   4.551  0.3447 -0.1587  0.8569
   89MOL   O24032096   1.535   7.878   4.449  0.4487  0.9689 -0.9510
   89MOL   C24132097   1.421   7.869   4.541 -0.5866 -0.2663  0.3274
   89MOL   C24232098   1.325   0.102   4.524  0.2723  0.1810  1.0800
   89MOL   C24332099   1.386   0.247   4.543  0.0299 -0.8685 -0.0474
   89MOL   H24432100   1.778   0.121   4.326  0.2918 -2.8306 -2.6663
   89MOL   H24532101   1.814   0.095   4.500 -0.6657  1.1282  0.0695
   89MOL   H24632102   1.824   7.726   4.419  3.4103  1.4830 -0.1426
   89MOL   H24732103   1.373   7.773   4.526  0.9075 -1.2053  1.4403
   89MOL   H24832104   1.462   7.869   4.642  1.7811  1.3076 -0.5736
   89MOL   H24932105   1.278   0.087   4.427  0.3498  1.2494  0.8602
   89MOL   H25032106   1.244   0.092   4.596 -0.4998  0.6288  0.2896
   89MOL   H25132107   1.474   0.247   4.607  0.8613 -1.1507 -1.1589
   89MOL   H25232108   1.313   0.316   4.584 -2.2886 -3.4206  0.2619
   89MOL   H25332109   1.413   0.292   4.447 -0.8260  0.3147  0.2600
   89MOL   C25432110   1.744   7.755   4.230 -0.3838  0.1629  0.2617
   89MOL   C25532111   1.755   7.605   4.196 -0.5474 -0.4347  0.2809
   89MOL   C25632112   1.647   7.517   4.255  0.8654  0.1253 -0.0946
   89MOL   O25732113   1.533   7.555   4.280  0.3193  0.1228  0.3533
   89MOL   O25832114   1.680   7.384   4.256 -0.0839  0.1258 -0.5754
   89MOL   C25932115   1.586   7.291   4.308  0.5100  0.4997  0.5640
   89MOL   C26032116   1.537   7.191   4.192  0.2175 -0.3482  0.1616
   89MOL   C26132117   1.626   7.068   4.190  0.1520  0.0336 -0.7552
   89MOL   H26232118   1.817   7.805   4.165  0.8963  1.9212  2.9866
   89MOL   H26332119   1.646   7.790   4.200 -1.0375  0.5879  2.8263
   89MOL   H26432120   1.833   7.559   4.257 -1.4089 -0.7947  1.1216
   89MOL   H26532121   1.621   7.235   4.395  1.4482  0.7450  0.3538
   89MOL   H26632122   1.500   7.342   4.351  1.1189  1.8016  0.2656
   89MOL   H26732123   1.433   7.165   4.212 -0.0194  0.1591 -0.4175
   89MOL   H26832124   1.537   7.247   4.099 -2.4687 -1.0136 -0.2652
   89MOL   H26932125   1.645   7.017   4.285  0.9332  0.3630 -0.7355
   89MOL   H27032126   1.719   7.095   4.141 -1.2252  1.1416 -2.8119
   89MOL   H27132127   1.584   6.989   4.127 -1.5491 -0.8943  1.4314
   89MOL   C27232128   1.786   7.581   4.052  0.2318 -0.7582 -0.4521
   89MOL   C27332129   1.675   7.635   3.957 -0.0159  0.5130  0.0763
   89MOL   C27432130   1.738   7.727   3.853  0.4112  0.2593  0.0897
   89MOL   O27532131   1.708   7.848   3.844 -0.2648  0.5260 -0.1492
   89MOL   O27632132   1.830   7.668   3.775 -0.4044  0.1581 -0.6104
   89MOL   C27732133   1.913   7.744   3.687 -0.1566  0.0870 -0.1318
   89MOL   C27832134   1.848   7.751   3.549 -0.7905  0.1653  0.0534
   89MOL   C27932135   1.811   7.613   3.494  0.1469  0.4053  0.1050
   89MOL   H28032136   1.809   7.474   4.045  0.4692 -1.0811  3.9181
   89MOL   H28132137   1.883   7.627   4.034 -0.1151  0.1371 -0.0479
   89MOL   H28232138   1.609   7.688   4.025  0.5451 -1.5238  2.2991
   89MOL   H28332139   1.931   7.845   3.723 -3.0541 -0.4377  2.9977
   89MOL   H28432140   2.011   7.705   3.658  0.4436 -0.1049  2.0735
   89MOL   H28532141   1.772   7.829   3.550 -1.1863 -0.2074  2.1453
   89MOL   H28632142   1.927   7.799   3.491  0.9642 -1.1233  1.2883
   89MOL   H28732143   1.751   7.636   3.406  3.9043  2.9735 -1.9236
   89MOL   H28832144   1.740   7.560   3.557  0.2681 -1.9353 -1.6626
   89MOL   H28932145   1.895   7.547   3.470  0.5190  1.4584 -1.5252
   89MOL   C29032146   1.603   7.517   3.884 -0.1967 -0.6599 -0.1893
   89MOL   C29132147   1.457   7.548   3.862  0.2869 -0.1724 -0.5038
   89MOL   C29232148   1.429   7.574   3.711  0.1912  0.9263  0.1553
   89MOL   O29332149   1.379   7.676   3.668 -0.0812 -0.2718 -0.0338
   89MOL   O29432150   1.463   7.470   3.630  0.3995  0.4097 -0.5274
   89MOL   C29532151   1.472   7.479   3.492 -0.0569  1.0356 -0.1732
   89MOL   C29632152   1.333   7.459   3.424  0.7229  0.0276 -0.1853
   89MOL   C29732153   1.343   7.505   3.275 -0.4498 -0.8935 -0.1215
   89MOL   H29832154   1.612   7.427   3.946 -3.6744 -0.1789  1.1690
   89MOL   H29932155   1.648   7.496   3.787 -0.7504  0.9906 -0.8098
   89MOL   H30032156   1.429   7.633   3.923 -1.1980 -1.8196  1.1817
   89MOL   H30132157   1.526   7.564   3.450 -1.5030  2.3635  0.6079
   89MOL   H30232158   1.538   7.397   3.464 -1.1429  0.0117  0.2621
   89MOL   H30332159   1.300   7.356   3.441  1.4785  0.3445  3.4783
   89MOL   H30432160   1.262   7.525   3.473 -1.3946 -1.5534 -1.0313
   89MOL   H30532161   1.325   7.611   3.256  1.8555 -0.8366 -2.2533
   89MOL   H30632162   1.266   7.449   3.222 -0.3909 -1.4728  0.4037
   89MOL   H30732163   1.440   7.493   3.227  0.2098  0.4753  0.8209
   89MOL   C30832164   1.365   7.434   3.909 -0.3266  0.2617  0.0879
   89MOL   C30932165   1.275   7.476   4.022 -0.3722 -0.3326  0.0209
   89MOL   C31032166   1.184   7.591   3.977  0.2712 -0.4458  0.1721
   89MOL   O31132167   1.099   7.585   3.889 -0.5305  1.0579 -0.8027
   89MOL   O31232168   1.215   7.705   4.046 -0.0524 -0.1789 -0.0358
   89MOL   C31332169   1.174   7.832   3.998  0.6618 -0.7579  0.3657
   89MOL   C31432170   1.293   0.011   3.932 -0.5920  0.0375 -0.4376
   89MOL   C31532171   1.418   0.033   4.030  0.6568  0.2751 -0.1915
   89MOL   H31632172   1.418   7.341   3.929  1.0690  0.9844 -0.2173
   89MOL   H31732173   1.302   7.399   3.826  1.3024  1.1827 -1.5748
   89MOL   H31832174   1.344   7.512   4.099 -0.6341 -0.0511  0.1259
   89MOL   H31932175   1.090   7.814   3.931 -0.8204  2.5098  1.2056
   89MOL   H32032176   1.138   0.014   4.080  1.1712 -0.2140  0.1775
   89MOL   H32132177   1.323   7.835   3.844 -1.3590  1.5971 -1.7142
   89MOL   H32232178   1.282   0.112   3.895  0.7384 -0.4000 -2.0975
   89MOL   H32332179   1.396   0.117   4.095  0.7781 -0.4986  0.8632
   89MOL   H32432180   1.435   7.822   4.089 -1.0019 -0.1973 -0.4369
   89MOL   H32532181   1.509   0.056   3.975  1.0376 -1.4340 -0.3132
   89MOL   C32632182   1.198   7.359   4.092 -0.4609 -0.5374  0.5195
   89MOL   C32732183   1.102   7.391   4.208  0.4337  0.1217  0.0397
   89MOL   C32832184   1.008   7.274   4.235 -0.7191  0.8749 -0.3380
   89MOL   O32932185   1.052   7.162   4.264 -0.1210 -0.4071 -0.2440
   89MOL   O33032186   0.882   7.312   4.250 -0.3650  0.0851 -0.4464
   89MOL   C33132187   0.787   7.220   4.286 -0.2711  0.4484 -0.3498
   89MOL   C33232188   0.681   7.284   4.380  0.1318 -0.1529  0.6773
   89MOL   C33332189   0.601   7.394   4.305 -0.1968 -0.3100 -0.1976
   89MOL   H33432190   1.269   7.283   4.125  0.1995 -0.4461 -0.6874
   89MOL   H33532191   1.147   7.305   4.013  0.3848  0.1534 -0.5193
   89MOL   H33632192   1.035   7.465   4.165  0.9183 -1.0291 -2.8616
   89MOL   H33732193   0.725   7.199   4.199  0.3633  1.6723 -1.1122
   89MOL   H33832194   0.829   7.130   4.330  0.2002  1.0280  0.3959
   89MOL   H33932195   0.625   7.208   4.435 -0.7907  0.1941  0.2184
   89MOL   H34032196   0.740   7.339   4.453 -0.5507 -0.2994  1.3520
   89MOL   H34132197   0.531   7.436   4.377  0.6420  1.8093 -0.5954
   89MOL   H34232198   0.673   7.473   4.287 -0.3328  0.1396  1.1295
   89MOL   H34332199   0.542   7.362   4.220  1.0340  2.2490 -2.0735
   89MOL   C34432200   1.179   7.445   4.331 -0.3185 -0.0448  0.6253
   89MOL   C34532201   1.095   7.534   4.431 -0.5346 -0.2264  0.1202
   89MOL   C34632202   1.062   7.675   4.364  0.0484  0.3442  0.2034
   89MOL   O34732203   1.145   7.765   4.375 -0.0427  0.1168 -0.0196
   89MOL   O34832204   0.946   7.681   4.300 -0.3186  0.2984  0.3740
   89MOL   C34932205   0.902   7.805   4.249 -0.4295  0.3533  0.3356
   89MOL   C35032206   0.770   7.791   4.168 -0.0780  0.3082 -0.0896
   89MOL   C35132207   0.774   7.680   4.058 -0.0744 -0.2257 -0.0792
   89MOL   H35232208   1.268   7.500   4.301 -0.6123  0.0877 -0.0114
   89MOL   H35332209   1.208   7.356   4.387  0.3148 -1.6218 -2.1241
   89MOL   H35432210   1.144   7.546   4.528 -2.7712 -0.6136  1.3261
   89MOL   H35532211   0.879   7.858   4.342  2.3770 -2.9442  3.0096
   89MOL   H35632212   0.974   7.856   4.184 -1.3415 -1.1148 -1.8899
   89MOL   H35732213   0.694   7.771   4.244  0.1478 -1.4322 -0.2888
   89MOL   H35832214   0.735   0.005   4.128  1.6661  1.0800  0.1288
   89MOL   H35932215   0.856   7.691   3.986  0.2934 -2.1557  0.0100
   89MOL   H36032216   0.787   7.588   4.114 -2.5168 -0.7894 -0.3958
   89MOL   H36132217   0.679   7.681   4.005 -0.3655 -0.2498  0.4493
   89MOL   H36232218   1.000   7.486   4.453 -0.1551 -2.8014 -3.3635
   90MOL     C132219   4.245   7.627   7.416  0.0907  0.4329 -0.3124
   90MOL     C232220   4.366   7.724   7.384 -0.1901 -0.1185  0.2995
   90MOL     C332221   4.505   7.670   7.425  0.5180  0.9785 -0.5426
   90MOL     O432222   4.582   7.752   7.473 -0.9140  0.3941 -0.0135
   90MOL     O532223   4.544   7.543   7.385  0.9103 -0.4369  0.3731
   90MOL     C632224   4.669   7.485   7.419  0.4724 -0.1453  0.1233
   90MOL     C732225   4.783   7.542   7.321 -0.6211  0.0355 -0.7191
   90MOL     C832226   4.920   7.492   7.371  0.2806  0.6849  0.1519
   90MOL     H932227   4.248   7.533   7.360  0.8895  1.7759 -2.6057
   90MOL    H1032228   4.247   7.602   7.522  0.0727  2.0988  0.0938
   90MOL    H1132229   4.346   7.805   7.454 -1.3429 -1.6819  1.8301
   90MOL    H1232230   4.678   7.507   7.526 -3.3648 -1.6653  0.8212
   90MOL    H1332231   4.666   7.377   7.406 -0.5629 -0.0249 -0.6340
   90MOL    H1432232   4.753   7.513   7.221 -0.6114 -0.1431 -0.6694
   90MOL    H1532233   4.770   7.650   7.320 -0.6492  0.0200 -3.2140
   90MOL    H1632234   4.925   7.383   7.377 -3.5456  0.5531  2.5166
   90MOL    H1732235   4.997   7.524   7.300 -0.0118 -1.1341 -1.0337
   90MOL    H1832236   4.959   7.519   7.469  1.2742  0.3747 -0.1454
   90MOL    H1932237   4.146   7.666   7.392  0.5469  2.5255  1.1439
   90MOL    C2032238   4.361   7.769   7.239  0.0711  0.0166 -0.1525
   90MOL    C2132239   4.451   0.007   7.208 -0.2187 -0.1870 -0.3519
   90MOL    C2232240   4.567   7.870   7.111 -0.2884 -0.1127  0.2195
   90MOL    O2332241   4.686   7.869   7.148  0.1648 -0.0316  0.1473
   90MOL    O2432242   4.527   7.835   6.989  0.0654  0.0870 -0.0909
   90MOL    C2532243   4.623   7.824   6.887 -0.1265  0.1364 -0.0521
   90MOL    C2632244   4.663   7.674   6.859 -0.0641 -0.2872 -0.3340
   90MOL    C2732245   4.812   7.637   6.866  0.0593 -0.3377 -0.3683
   90MOL    H2832246   4.260   7.806   7.218  0.0414 -0.5442 -1.0106
   90MOL    H2932247   4.381   7.684   7.174 -0.2711 -0.4556  0.3520
   90MOL    H3032248   4.496   0.047   7.299  1.9061 -0.0255 -1.4303
   90MOL    H3132249   4.594   0.001   6.800  1.1329 -0.5063 -0.9086
   90MOL    H3232250   4.711   0.004   6.910  0.3663 -0.7657  0.4741
   90MOL    H3332251   4.616   7.601   6.926  1.5299 -0.7803  0.2671
   90MOL    H3432252   4.641   7.655   6.754 -3.0084 -1.0925  0.3665
   90MOL    H3532253   4.882   7.688   6.801 -0.6923  0.1295 -0.8009
   90MOL    H3632254   4.825   7.534   6.832 -0.1953 -0.9645  1.3759
   90MOL    H3732255   4.845   7.631   6.970 -0.0879 -0.3306 -0.3218
   90MOL    C3832256   4.370   0.134   7.160  0.4172 -0.0934  0.0078
   90MOL    C3932257   4.278   0.211   7.261  0.0187  0.6424  0.4534
   90MOL    C4032258   4.370   0.265   7.371 -0.0806 -0.2541 -0.3094
   90MOL    O4132259   4.368   0.232   7.485 -0.6435 -0.6230 -0.1062
   90MOL    O4232260   4.451   0.349   7.312 -0.0414  0.2107  0.9405
   90MOL    C4332261   4.524   0.434   7.394 -0.5743 -0.0262 -0.3498
   90MOL    C4432262   4.666   0.454   7.348  0.9969  0.6229  0.2515
   90MOL    C4532263   4.754   0.330   7.377  0.0578  0.4727  0.2089
   90MOL    H4632264   4.305   0.105   7.077 -0.3940 -0.0261  0.6071
   90MOL    H4732265   4.442   0.200   7.113 -0.7925  0.5853 -0.9268
   90MOL    H4832266   4.210   0.133   7.295 -0.8196 -0.3277 -3.1657
   90MOL    H4932267   4.474   0.530   7.411 -1.3117 -0.0967 -2.0045
   90MOL    H5032268   4.534   0.395   7.495  0.5190  1.1329  0.0051
   90MOL    H5132269   4.672   0.466   7.240  0.9409  2.6970  0.4542
   90MOL    H5232270   4.716   0.536   7.400  1.2649 -0.2146  1.3415
   90MOL    H5332271   4.812   0.347   7.468 -0.2988 -0.3921  0.6080
   90MOL    H5432272   4.828   0.322   7.297 -2.1225  0.4588 -1.8494
   90MOL    H5532273   4.690   0.244   7.392 -0.8080  0.7917 -1.5848
   90MOL    C5632274   4.193   0.327   7.195 -0.0872  0.4938  0.2465
   90MOL    C5732275   4.068   0.368   7.277  0.0722  0.8670  0.2866
   90MOL    C5832276   4.112   0.464   7.386 -0.6539 -1.1340  0.0440
   90MOL    O5932277   4.186   0.560   7.362  0.5716  0.2114  0.6615
   90MOL    O6032278   4.073   0.433   7.512 -0.2412  0.0261 -0.3741
   90MOL    C6132279   4.118   0.519   7.618  0.2634 -0.1288  0.0172
   90MOL    C6232280   4.061   0.469   7.756 -0.2948  0.0624 -0.1442
   90MOL    C6332281   3.913   0.455   7.756 -0.5833  0.5409 -0.4417
   90MOL    H6432282   4.160   0.286   7.099 -0.9385 -1.1512  1.2192
   90MOL    H6532283   4.246   0.418   7.169  2.6079 -1.1323 -0.0799
   90MOL    H6632284   4.034   0.286   7.340  2.7176 -0.4420  0.0622
   90MOL    H6732285   4.225   0.539   7.609 -0.0856  2.1131  0.6939
   90MOL    H6832286   4.073   0.617   7.603 -0.4257 -0.8196 -2.8662
   90MOL    H6932287   4.107   0.376   7.787  1.8227  1.8036  2.1124
   90MOL    H7032288   4.085   0.539   7.836 -1.0539 -1.1746  1.1770
   90MOL    H7132289   3.885   0.395   7.843 -0.0409  1.0079  0.0618
   90MOL    H7232290   3.870   0.406   7.669 -0.0196 -1.0039  0.1310
   90MOL    H7332291   3.878   0.555   7.780  2.0774  1.1266  1.2365
   90MOL    C7432292   3.945   0.418   7.195 -0.8124  0.6967 -0.2270
   90MOL    C7532293   3.813   0.339   7.204 -0.3788  0.0316 -0.0338
   90MOL    C7632294   3.743   0.372   7.338  0.3957  0.1695  0.3368
   90MOL    O7732295   3.750   0.491   7.385 -0.1466  0.4061  0.5246
   90MOL    O7832296   3.686   0.270   7.396  0.5250  0.5903 -0.4357
   90MOL    C7932297   3.615   0.283   7.521 -0.1192 -0.2352 -0.1318
   90MOL    C8032298   3.565   0.144   7.554  0.2505 -0.5865 -0.1850
   90MOL    C8132299   3.458   0.162   7.672  0.2032  0.3434  0.2735
   90MOL    H8232300   3.988   0.419   7.095 -1.5908 -2.7627 -0.6773
   90MOL    H8332301   3.925   0.522   7.220  2.4178  1.5189 -0.7145
   90MOL    H8432302   3.841   0.233   7.207 -0.9981 -0.1646 -0.8790
   90MOL    H8532303   3.689   0.317   7.593 -0.1143  0.8654 -0.6589
   90MOL    H8632304   3.537   0.356   7.500  0.0315 -0.5224 -1.7990
   90MOL    H8732305   3.518   0.102   7.465 -1.0534  2.3231 -0.9219
   90MOL    H8832306   3.642   0.068   7.570 -2.0429 -2.7795  0.6980
   90MOL    H8932307   3.417   0.067   7.705  0.0582  1.1584  2.5243
   90MOL    H9032308   3.383   0.238   7.651  2.7926  2.2850 -2.3583
   90MOL    H9132309   3.503   0.197   7.765  0.3394  0.3778  0.1961
   90MOL    C9232310   3.734   0.358   7.072 -0.1410  0.2951  0.3806
   90MOL    C9332311   3.600   0.285   7.054 -0.3282  0.4102  0.0910
   90MOL    C9432312   3.518   0.347   6.937  0.0693  1.0581 -0.0333
   90MOL    O9532313   3.575   0.423   6.854 -0.1793  0.4014  0.2467
   90MOL    O9632314   3.393   0.309   6.946 -0.1299 -0.2823 -0.1167
   90MOL    C9732315   3.286   0.379   6.878  0.6333  0.2713 -0.0226
   90MOL    C9832316   3.273   0.528   6.919 -0.5894 -0.3968 -0.2467
   90MOL    C9932317   3.136   0.588   6.876  0.3584  0.2740 -0.4411
   90MOL   H10032318   3.796   0.348   6.983 -0.7586  1.6183 -0.2160
   90MOL   H10132319   3.719   0.465   7.057 -1.7716  0.2403  1.4136
   90MOL   H10232320   3.548   0.288   7.150  1.6454  0.1709  1.1939
   90MOL   H10332321   3.296   0.380   6.769 -1.1706  0.8930 -0.2086
   90MOL   H10432322   3.193   0.324   6.895 -0.9555  2.1736 -2.1597
   90MOL   H10532323   3.290   0.539   7.026 -0.5956  0.1330 -0.2980
   90MOL   H10632324   3.352   0.586   6.870 -1.9554  2.5569  0.8870
   90MOL   H10732325   3.049   0.544   6.924  0.4933  2.3229  1.7787
   90MOL   H10832326   3.114   0.577   6.770  2.3839 -2.0154 -0.6632
   90MOL   H10932327   3.126   0.694   6.900  1.0788  1.2226 -3.9320
   90MOL   C11032328   3.626   0.140   7.013 -0.4132  0.0453  0.3358
   90MOL   C11132329   3.606   0.029   7.114 -0.3108  0.5118  0.5080
   90MOL   C11232330   3.458   7.876   7.154  0.3343 -0.1695  1.2327
   90MOL   O11332331   3.419   7.761   7.171 -0.2828 -1.1057 -0.1548
   90MOL   O11432332   3.384   0.103   7.157 -0.2329  0.0111  0.3829
   90MOL   C11532333   3.246   0.095   7.193  0.0105  0.3187 -0.3761
   90MOL   C11632334   3.219   0.199   7.297  0.2412 -0.9631  0.1965
   90MOL   C11732335   3.237   0.338   7.239  0.0353 -0.3590  0.3381
   90MOL   H11832336   3.726   0.134   6.969 -0.2774 -2.6591  0.9408
   90MOL   H11932337   3.561   0.126   6.928  0.6883  2.7546 -1.0313
   90MOL   H12032338   3.645   0.063   7.209 -1.2443  0.9548  0.7376
   90MOL   H12132339   3.192   0.117   7.101 -0.7922  0.4934  0.1357
   90MOL   H12232340   3.221   7.878   7.236  0.4771 -0.1802 -1.2077
   90MOL   H12332341   3.114   0.190   7.324 -0.1168  1.7925 -0.2115
   90MOL   H12432342   3.287   0.194   7.383 -1.0701  2.6674  1.5164
   90MOL   H12532343   3.185   0.354   7.145 -0.6601  1.8005  1.0683
   90MOL   H12632344   3.345   0.350   7.231  0.0497  0.7992  2.0754
   90MOL   H12732345   3.220   0.423   7.305  1.3450  0.3184 -0.1662
   90MOL   C12832346   3.680   7.784   7.070 -0.0403  0.0344 -0.6361
   90MOL   C12932347   3.837   7.787   7.079 -0.6023 -0.0049  0.6299
   90MOL   C13032348   3.883   7.803   7.226 -0.4156  0.5891 -0.4294
   90MOL   O13132349   3.957   0.010   7.264  0.6746  0.4285 -0.4137
   90MOL   O13232350   3.820   7.715   7.305 -0.4218 -0.4051 -0.4683
   90MOL   C13332351   3.832   7.724   7.443  0.4028 -0.2256 -0.6826
   90MOL   C13432352   3.739   7.630   7.517  0.4171 -0.3131 -0.1434
   90MOL   C13532353   3.589   7.658   7.499 -0.6126 -0.1320 -0.0245
   90MOL   H13632354   3.646   7.766   6.968 -4.1640  0.9946  0.4811
   90MOL   H13732355   3.649   7.693   7.121  0.8717  0.0823  0.0215
   90MOL   H13832356   3.867   0.001   7.034 -0.6096 -0.9154 -1.3346
   90MOL   H13932357   3.937   7.713   7.469  0.1622  0.4163  0.5992
   90MOL   H14032358   3.798   7.821   7.478  1.4519 -0.3455  0.7130
   90MOL   H14132359   3.759   7.530   7.477  1.8495 -0.2263  0.3089
   90MOL   H14232360   3.766   7.621   7.622 -3.5454 -0.3775  0.9534
   90MOL   H14332361   3.527   7.573   7.527  2.0689 -2.2250 -0.2599
   90MOL   H14432362   3.575   7.682   7.393 -1.7457  1.8279  0.5548
   90MOL   H14532363   3.566   7.743   7.563  0.8278 -1.2551  2.0128
   90MOL   C14632364   3.904   7.680   6.990 -0.3121  0.3123  0.0844
   90MOL   C14732365   4.057   7.658   7.013  0.0956  0.2232  0.1895
   90MOL   C14832366   4.096   7.523   6.944 -0.4256  1.0647 -0.2634
   90MOL   O14932367   4.025   7.460   6.866 -0.0506 -0.0721  0.3838
   90MOL   O15032368   4.221   7.488   6.977  0.0430  0.2239  0.3187
   90MOL   C15132369   4.276   7.379   6.907  0.4349  0.5274 -0.8481
   90MOL   C15232370   4.412   7.347   6.971 -0.2433 -0.0175  0.2077
   90MOL   C15332371   4.394   7.292   7.110 -1.0431  0.1520 -0.2137
   90MOL   H15432372   3.885   7.708   6.887  0.2487 -0.2962 -0.1850
   90MOL   H15532373   3.858   7.583   7.006  0.7521  0.0713  1.7984
   90MOL   H15632374   4.070   7.656   7.121  0.7322  1.9554  0.1617
   90MOL   H15732375   4.214   7.290   6.910  0.2512  0.6792 -0.0682
   90MOL   H15832376   4.281   7.402   6.801 -0.3227  0.2688 -0.9405
   90MOL   H15932377   4.460   7.266   6.917 -2.2260 -0.1175 -1.4828
   90MOL   H16032378   4.480   7.431   6.980 -2.6710  1.9023  1.4000
   90MOL   H16132379   4.381   7.368   7.187 -0.7968  0.3454 -0.3655
   90MOL   H16232380   4.481   7.235   7.143 -1.1159  0.6117  0.8072
   90MOL   H16332381   4.306   7.228   7.110 -1.0759  0.1933 -1.4657
   90MOL   C16432382   4.145   7.783   6.963  0.4581  0.4197  0.7692
   90MOL   C16532383   4.134   7.808   6.812 -0.0214 -0.1344 -0.6173
   90MOL   C16632384   4.116   0.076   6.774  1.0684 -0.4284 -0.3123
   90MOL   O16732385   4.004   0.129   6.756  0.1359  0.0835 -0.3825
   90MOL   O16832386   4.227   0.143   6.770 -0.7058  0.4678  0.1756
   90MOL   C16932387   4.228   0.282   6.731  0.2565 -0.8689 -0.6669
   90MOL   C17032388   4.354   0.360   6.752 -0.1585  0.4593 -0.5006
   90MOL   C17132389   4.465   0.294   6.662 -1.0435  0.4428  0.3015
   90MOL   H17232390   4.247   7.748   6.977 -0.0900 -2.1534 -1.2842
   90MOL   H17332391   4.130   7.873   7.023 -1.7239  1.1142 -0.7365
   90MOL   H17432392   4.039   7.774   6.772 -0.4439  3.3136 -2.7664
   90MOL   H17532393   4.193   0.281   6.628 -2.1449  0.1404  0.0927
   90MOL   H17632394   4.157   0.335   6.794 -0.4224 -2.1389 -0.3381
   90MOL   H17732395   4.331   0.463   6.727  1.5297  0.9381 -0.1408
   90MOL   H17832396   4.368   0.370   6.860  0.0452 -0.9147 -0.3893
   90MOL   H17932397   4.494   0.193   6.692 -1.9297  0.1990  0.3324
   90MOL   H18032398   4.552   0.361   6.659 -0.2600 -0.5428  0.7300
   90MOL   H18132399   4.438   0.277   6.558  0.8577  4.0475 -0.8840
   90MOL   C18232400   4.256   7.750   6.730  0.1965 -0.7077 -0.1290
   90MOL   C18332401   4.240   7.734   6.578 -0.1902  0.7272  0.1385
   90MOL   C18432402   4.372   7.674   6.518  0.3634  0.3028 -0.1736
   90MOL   O18532403   4.430   7.737   6.433  0.5002 -0.2919  0.3878
   90MOL   O18632404   4.417   7.569   6.580  0.2070  0.1307  0.2835
   90MOL   C18732405   4.543   7.519   6.533  0.2330 -0.2266  0.2452
   90MOL   C18832406   4.581   7.389   6.603  0.0913 -0.4213 -0.1210
   90MOL   C18932407   4.716   7.331   6.561 -0.7261  0.1453 -0.1209
   90MOL   H19032408   4.266   7.648   6.768 -2.9530 -0.3521  1.8794
   90MOL   H19132409   4.342   7.810   6.759 -1.2587  1.2528  0.1998
   90MOL   H19232410   4.231   7.836   6.541 -1.0761  0.7825  0.4911
   90MOL   H19332411   4.527   7.474   6.435 -2.1659  1.5803 -0.2600
   90MOL   H19432412   4.626   7.589   6.537  2.2814 -2.5540 -0.3225
   90MOL   H19532413   4.598   7.416   6.707  1.5602 -1.3128 -0.1116
   90MOL   H19632414   4.498   7.319   6.595  0.9964 -1.4469 -0.7788
   90MOL   H19732415   4.786   7.415   6.566  0.2151 -0.6315 -0.1409
   90MOL   H19832416   4.703   7.289   6.461  0.1841  1.6570 -0.8850
   90MOL   H19932417   4.751   7.253   6.629 -1.7346 -0.2268 -0.0293
   90MOL   C20032418   4.116   7.636   6.532 -0.3177  0.1324  0.2472
   90MOL   C20132419   4.052   7.677   6.399 -0.0031 -0.1199 -0.5683
   90MOL   C20232420   4.009   7.819   6.417 -0.0579  0.3387 -0.1873
   90MOL   O20332421   4.068   0.040   6.370 -0.3875  0.8788  0.2486
   90MOL   O20432422   3.890   7.827   6.486 -0.7193 -0.2417  0.3843
   90MOL   C20532423   3.819   0.070   6.498 -0.0363 -0.7348  0.7189
   90MOL   C20632424   3.690   0.062   6.591 -0.5073  0.1887 -0.0809
   90MOL   C20732425   3.626   0.198   6.599  0.2343  0.1132 -0.5300
   90MOL   H20832426   4.033   7.631   6.603 -0.5792  0.0421 -0.0601
   90MOL   H20932427   4.152   7.534   6.520 -2.0786 -0.5744  0.7911
   90MOL   H21032428   3.957   7.624   6.389 -0.7760  1.3445 -1.1494
   90MOL   H21132429   3.891   0.145   6.531 -0.0213 -0.1327 -0.6534
   90MOL   H21232430   3.800   0.103   6.396 -1.2686 -2.0099  0.5254
   90MOL   H21332431   3.625   7.874   6.537  1.2291 -1.2653 -0.3686
   90MOL   H21432432   3.704   0.006   6.683  0.8152 -2.8382 -2.0683
   90MOL   H21532433   3.560   0.206   6.686  0.2049 -2.3020 -0.2828
   90MOL   H21632434   3.567   0.210   6.508  1.1419 -0.8387 -1.2479
   90MOL   H21732435   3.694   0.279   6.575  0.2288  1.3916  3.3780
   90MOL   C21832436   4.136   7.655   6.278  0.3675 -0.9038  0.0888
   90MOL   C21932437   4.079   7.618   6.140  0.0507  0.0456  0.3911
   90MOL   C22032438   3.996   7.737   6.094  0.2136 -0.0366  0.2081
   90MOL   O22132439   3.875   7.727   6.079 -0.2687  0.3197 -0.0307
   90MOL   O22232440   4.063   7.855   6.064 -0.5273 -0.1311  0.7002
   90MOL   C22332441   3.992   0.075   5.995 -0.2381  0.0983 -0.1745
   90MOL   C22432442   3.974   0.190   6.094  0.1664  0.4324  0.1979
   90MOL   C22532443   3.903   0.318   6.041 -0.3885 -0.7610 -1.0273
   90MOL   H22632444   4.203   7.573   6.305  3.1009  1.0958 -0.4913
   90MOL   H22732445   4.215   7.727   6.260 -0.5247  1.0542  3.6813
   90MOL   H22832446   4.007   7.537   6.149  0.8164 -0.9531 -2.0959
   90MOL   H22932447   4.037   0.110   5.902 -1.5181  1.2906 -0.3572
   90MOL   H23032448   3.893   0.048   5.959 -0.3891 -1.7228  1.5187
   90MOL   H23132449   3.929   0.153   6.186  1.9669  0.8494  1.2715
   90MOL   H23232450   4.073   0.218   6.132 -0.2801  0.6471  1.2255
   90MOL   H23332451   3.973   0.371   5.976 -2.0528  0.3627 -1.9452
   90MOL   H23432452   3.888   0.401   6.110  0.8513 -0.8038 -0.6927
   90MOL   H23532453   3.809   0.303   5.988 -2.7197 -0.2455  2.7421
   90MOL   C23632454   4.204   7.588   6.048  0.0882  0.3124 -0.0311
   90MOL   C23732455   4.188   7.520   5.908 -0.1454 -0.0667  0.3242
   90MOL   C23832456   4.148   7.618   5.793  0.6262 -0.4253 -0.4399
   90MOL   O23932457   4.030   7.634   5.753 -0.5789 -0.1792  0.6680
   90MOL   O24032458   4.252   7.701   5.755  0.6738  0.1115  0.1222
   90MOL   C24132459   4.233   7.812   5.658  0.7947  0.2678 -0.0684
   90MOL   C24232460   4.346   0.033   5.680  0.1342 -0.6995 -0.0039
   90MOL   C24332461   4.336   0.099   5.816  0.0911  0.0970 -0.7962
   90MOL   H24432462   4.276   7.532   6.109  2.4884  0.6920 -2.4411
   90MOL   H24532463   4.263   7.679   6.048  1.0080 -0.2449  1.6700
   90MOL   H24632464   4.104   7.452   5.914  1.1277 -1.7017  0.0564
   90MOL   H24732465   4.234   7.770   5.558  0.6330  1.2991 -0.5121
   90MOL   H24832466   4.145   7.876   5.661  0.0468 -0.7882  0.9293
   90MOL   H24932467   4.443   7.864   5.679  0.6252  0.2653 -0.8012
   90MOL   H25032468   4.354   0.123   5.618  0.0248 -0.2052  0.6934
   90MOL   H25132469   4.240   0.150   5.814  0.2730  0.3964 -2.1414
   90MOL   H25232470   4.408   0.175   5.845  0.1520 -0.0491 -0.5645
   90MOL   H25332471   4.348   0.024   5.895 -1.8285 -1.2562 -1.7230
   90MOL   C25432472   4.310   7.441   5.866  0.1379 -0.0667 -0.2707
   90MOL   C25532473   4.287   7.284   5.875 -0.5658  0.8326  0.0396
   90MOL   C25632474   4.211   7.219   5.752  0.0711 -0.0337  0.1692
   90MOL   O25732475   4.205   7.274   5.640 -0.1868  0.6588  0.2732
   90MOL   O25832476   4.141   7.117   5.783  0.0854  0.4199  0.2736
   90MOL   C25932477   4.073   7.035   5.689  0.6257  0.2749  0.2094
   90MOL   C26032478   3.952   6.965   5.765  0.1315  0.2783  0.0399
   90MOL   C26132479   3.865   6.863   5.683 -0.1628 -0.3225  0.5321
   90MOL   H26232480   4.390   7.478   5.930  0.1792 -0.3863 -0.1375
   90MOL   H26332481   4.351   7.469   5.769  0.6399  1.9639  0.4974
   90MOL   H26432482   4.213   7.274   5.953 -0.9267 -0.3994 -0.4397
   90MOL   H26532483   4.031   7.089   5.604  1.2131  0.5384  0.0855
   90MOL   H26632484   4.147   6.962   5.657  0.0906 -0.3424  0.3639
   90MOL   H26732485   3.999   6.914   5.849 -1.5872 -1.8815 -0.2785
   90MOL   H26832486   3.874   7.038   5.791 -1.1930 -0.7272 -1.0168
   90MOL   H26932487   3.810   6.917   5.605  0.8537 -1.9021 -1.3425
   90MOL   H27032488   3.802   6.829   5.765  0.0220 -0.6739  0.5306
   90MOL   H27132489   3.934   6.790   5.639 -1.1276 -0.7515 -0.2878
   90MOL   C27232490   4.420   7.207   5.905 -0.0011 -0.2047 -0.1091
   90MOL   C27332491   4.443   7.183   6.049  0.5082  0.3222 -0.4363
   90MOL   C27432492   4.329   7.094   6.104 -0.1396 -0.4555 -0.2611
   90MOL   O27532493   4.244   7.148   6.169 -0.7693 -0.0821  0.5402
   90MOL   O27632494   4.324   6.963   6.061 -0.3322 -0.2786  0.1924
   90MOL   C27732495   4.207   6.871   6.093  0.2072  0.3672 -0.0240
   90MOL   C27832496   4.200   6.798   6.218  0.1417 -0.9009 -0.1536
   90MOL   C27932497   4.315   6.706   6.234  0.0641  0.6767  0.4857
   90MOL   H28032498   4.510   7.252   5.864  1.8163 -1.6371  2.2027
   90MOL   H28132499   4.407   7.109   5.859 -3.0857 -0.9560  2.1907
   90MOL   H28232500   4.440   7.280   6.099 -1.3344 -0.1273  0.3643
   90MOL   H28332501   4.121   6.938   6.094  2.3210  3.2318 -1.4580
   90MOL   H28432502   4.197   6.808   6.004  0.4378  0.6927 -0.2837
   90MOL   H28532503   4.189   6.869   6.300  1.5931  1.0325 -1.6001
   90MOL   H28632504   4.111   6.737   6.237 -0.7046  0.1023 -0.8601
   90MOL   H28732505   4.315   6.628   6.158 -3.2278 -1.0316  2.1198
   90MOL   H28832506   4.295   6.660   6.331 -0.9497 -0.9939 -0.4956
   90MOL   H28932507   4.406   6.765   6.245  0.6703  0.0857 -1.2483
   90MOL   C29032508   4.588   7.132   6.076 -0.2643  0.4706 -0.5148
   90MOL   C29132509   4.643   6.999   5.993 -0.7535  0.1301  0.7345
   90MOL   C29232510   4.666   7.034   5.846 -0.6815  0.4882 -0.3162
   90MOL   O29332511   4.749   7.120   5.818  0.2541  0.1071 -0.7661
   90MOL   O29432512   4.596   6.959   5.755 -0.4702  0.0400 -0.4839
   90MOL   C29532513   4.621   6.977   5.616 -0.6319 -0.3013 -0.0409
   90MOL   C29632514   4.728   6.872   5.573  0.3983  0.2903 -0.3219
   90MOL   C29732515   4.700   6.733   5.621 -0.1426  0.1909  0.1987
   90MOL   H29832516   4.590   7.101   6.181  2.9597  0.9347 -0.3826
   90MOL   H29932517   4.664   7.208   6.056 -1.8093  1.6726 -1.8900
   90MOL   H30032518   4.558   6.932   5.988 -0.1502 -0.5310 -1.9526
   90MOL   H30132519   4.528   6.967   5.560 -0.1483  3.0125 -1.5473
   90MOL   H30232520   4.655   7.079   5.597 -2.7482  0.9098  2.2153
   90MOL   H30332521   4.726   6.865   5.464  3.0404 -0.8837 -0.3466
   90MOL   H30432522   4.819   6.907   5.622 -0.3128  2.2473 -0.3534
   90MOL   H30532523   4.614   6.690   5.571 -0.8216 -0.6391  2.0410
   90MOL   H30632524   4.664   6.742   5.723  2.3345  2.7450  0.9290
   90MOL   H30732525   4.787   6.668   5.618 -1.1846 -1.2180  0.4687
   90MOL   C30832526   4.765   6.932   6.059 -0.1024 -0.5717  0.0706
   90MOL   C30932527   4.791   6.781   6.022 -0.5920 -0.1193 -0.0518
   90MOL   C31032528   4.943   6.750   6.013  0.0838  0.8954  0.0182
   90MOL   O31132529   5.031   6.794   6.089  1.5211 -0.3913  1.0345
   90MOL   O31232530   4.967   6.655   5.920 -0.0260  0.1211 -0.3144
   90MOL   C31332531   5.092   6.636   5.858  1.0235  0.1812 -0.1863
   90MOL   C31432532   5.109   6.718   5.731  0.6473  0.0696  0.2791
   90MOL   C31532533   5.249   6.697   5.683 -0.6163  0.0641 -0.7092
   90MOL   H31632534   4.762   6.932   6.168 -0.0155  1.2069  0.0973
   90MOL   H31732535   4.854   6.993   6.039 -1.2112  0.8450 -0.6675
   90MOL   H31832536   4.769   6.773   5.916 -1.7272 -0.4653  0.2041
   90MOL   H31932537   5.178   6.653   5.923  0.4358 -0.9070  0.8933
   90MOL   H32032538   5.095   6.531   5.830 -0.3770 -0.4746  2.0317
   90MOL   H32132539   5.037   6.673   5.663 -1.6436 -0.4296  2.9532
   90MOL   H32232540   5.080   6.822   5.741 -1.3286 -0.6266  2.0831
   90MOL   H32332541   5.259   6.745   5.586 -1.3243 -0.4341 -1.0362
   90MOL   H32432542   5.320   6.734   5.756 -2.1450  1.4735  0.0779
   90MOL   H32532543   5.266   6.592   5.660 -2.1535 -0.6888  1.4168
   90MOL   C32632544   4.714   6.677   6.110  0.2754 -0.3949  0.0816
   90MOL   C32732545   4.698   6.533   6.048 -0.7921 -0.3509 -0.2857
   90MOL   C32832546   4.672   6.434   6.167 -0.2314  0.1890 -0.1417
   90MOL   O32932547   4.605   6.466   6.267  0.1521 -0.0674 -0.0645
   90MOL   O33032548   4.716   6.319   6.141  0.3656  0.3449  0.0297
   90MOL   C33132549   4.705   6.219   6.240 -0.1196 -0.7118  0.3678
   90MOL   C33232550   4.800   6.100   6.215 -0.2221 -0.6682 -0.1902
   90MOL   C33332551   4.764   5.980   6.299 -0.2260  0.3923  0.1009
   90MOL   H33432552   4.614   6.712   6.133 -0.5149 -0.8856 -2.4633
   90MOL   H33532553   4.767   6.679   6.206 -0.9373  0.2623  0.7538
   90MOL   H33632554   4.793   6.513   5.996 -1.4494  0.2440 -1.7588
   90MOL   H33732555   4.719   6.270   6.335  0.2429  1.7048 -0.9543
   90MOL   H33832556   4.601   6.189   6.255 -0.1205  0.1788  2.1888
   90MOL   H33932557   4.795   6.075   6.109 -0.3697 -1.6727  0.0473
   90MOL   H34032558   4.899   6.142   6.226 -0.7610  0.2979  1.0199
   90MOL   H34132559   4.759   6.016   6.401 -0.5707  0.1288  0.1747
   90MOL   H34232560   4.671   5.929   6.273 -0.0891 -0.2007  0.7607
   90MOL   H34332561   4.841   5.905   6.285 -0.6962 -0.1741  0.5278
   90MOL   C34432562   4.575   6.532   5.963  0.5428 -0.2931  0.1831
   90MOL   C34532563   4.547   6.415   5.868  0.3866  0.2243  0.2695
   90MOL   C34632564   4.612   6.427   5.736 -0.0111  0.3128  0.2154
   90MOL   O34732565   4.556   6.442   5.630 -0.6524  0.4653  0.9680
   90MOL   O34832566   4.746   6.385   5.745 -0.0389  0.7210  0.2283
   90MOL   C34932567   4.815   6.317   5.639  0.2576  0.3751 -0.2287
   90MOL   C35032568   4.886   6.406   5.541 -0.4074  0.4828 -0.4819
   90MOL   C35132569   4.936   6.322   5.424 -0.0927  0.4129  0.4769
   90MOL   H35232570   4.565   6.624   5.906 -1.0161 -0.3855  0.2774
   90MOL   H35332571   4.483   6.557   6.016 -0.2161  0.5942 -1.5249
   90MOL   H35432572   4.441   6.406   5.848  0.2701  2.0373  0.0599
   90MOL   H35532573   4.881   6.243   5.685  0.3911  0.8857  0.4041
   90MOL   H35632574   4.741   6.270   5.573 -0.6525 -1.7246  2.1965
   90MOL   H35732575   4.811   6.481   5.517  0.6750  1.7330 -0.0490
   90MOL   H35832576   4.970   6.455   5.591 -2.0798  1.6388  1.2296
   90MOL   H35932577   4.869   6.248   5.381 -1.0496  0.8025  1.2700
   90MOL   H36032578   4.969   6.391   5.347  1.7332  1.0362  1.7656
   90MOL   H36132579   5.027   6.269   5.453  1.1803 -0.4573 -4.6034
   90MOL   H36232580   4.568   6.315   5.909  2.1674  0.4053 -0.1418
   91MOL     C132581   6.703   0.180   1.219  0.1241 -0.5924  0.2761
   91MOL     C232582   6.705   0.036   1.264 -0.2818 -0.5148 -0.1738
   91MOL     C332583   6.783   0.030   1.398  0.0163  0.1386 -0.0515
   91MOL     O432584   6.753   0.093   1.498 -0.0057 -0.5604  0.4232
   91MOL     O532585   6.894   7.845   1.384  0.1333  0.2561 -0.0128
   91MOL     C632586   6.983   7.829   1.489 -0.2445 -0.1667 -0.5902
   91MOL     C732587   7.103   0.039   1.462 -0.1777 -0.1771 -0.5500
   91MOL     C832588   7.079   0.192   1.483  0.5608 -0.8062 -0.1490
   91MOL     H932589   6.807   0.212   1.218  1.1791 -3.8161  1.2242
   91MOL    H1032590   6.658   0.197   1.121  0.0823 -1.5988  0.1151
   91MOL    H1132591   6.761   7.860   1.190 -0.0399 -1.3171  0.6078
   91MOL    H1232592   6.933   7.861   1.581 -0.5674 -1.2654 -0.3715
   91MOL    H1332593   7.012   7.724   1.498  1.9870  0.5489  1.0048
   91MOL    H1432594   7.175   0.015   1.540  1.6753  1.4276 -1.7338
   91MOL    H1532595   7.152   0.013   1.368  0.6341  1.4709 -0.5993
   91MOL    H1632596   6.995   0.224   1.421  1.3511  3.9057  1.0428
   91MOL    H1732597   7.056   0.229   1.583  0.0127  2.2367 -1.3382
   91MOL    H1832598   7.166   0.250   1.452 -1.0015 -0.0508 -3.4350
   91MOL    H1932599   6.642   0.238   1.288 -0.4729 -0.6244 -0.2203
   91MOL    C2032600   6.573   7.842   1.269  0.3209 -0.3259 -0.1246
   91MOL    C2132601   6.570   7.688   1.271 -1.1076  0.7263  0.0271
   91MOL    C2232602   6.503   7.638   1.400 -0.7860 -0.0942 -0.2560
   91MOL    O2332603   6.386   7.607   1.404 -0.2194  0.0046 -0.2496
   91MOL    O2432604   6.581   7.661   1.506  0.1351  0.7694  0.0976
   91MOL    C2532605   6.539   7.644   1.640 -0.7548  0.9906  0.2384
   91MOL    C2632606   6.562   7.504   1.695 -0.0141  0.2745 -1.3147
   91MOL    C2732607   6.477   7.501   1.828 -0.1510 -0.0775 -0.5174
   91MOL    H2832608   6.519   0.004   1.185 -0.5137  1.1312  1.1115
   91MOL    H2932609   6.529   0.005   1.359  3.0266 -0.0369  1.1067
   91MOL    H3032610   6.675   7.661   1.279 -0.9519  0.6731 -2.0285
   91MOL    H3132611   6.579   7.721   1.705 -0.3293  0.5434  0.5119
   91MOL    H3232612   6.433   7.667   1.651 -0.7499  0.3991  1.6103
   91MOL    H3332613   6.513   7.431   1.630  2.0763 -2.6764  0.3094
   91MOL    H3432614   6.665   7.472   1.707  0.2094  0.4909 -2.6099
   91MOL    H3532615   6.389   7.566   1.833 -1.4912 -1.9967  2.0530
   91MOL    H3632616   6.528   7.526   1.921 -0.8666 -1.8714  0.3756
   91MOL    H3732617   6.432   7.402   1.834  0.3888 -0.2147  1.7353
   91MOL    C3832618   6.516   7.614   1.138 -0.3907 -1.1061 -0.4362
   91MOL    C3932619   6.560   7.675   1.002 -0.0406  0.2644  0.0168
   91MOL    C4032620   6.713   7.672   0.975 -0.0494  0.2330  0.3683
   91MOL    O4132621   6.779   7.577   1.017 -0.3311  0.3459 -0.1665
   91MOL    O4232622   6.761   7.780   0.907  0.0323 -0.0604 -0.6718
   91MOL    C4332623   6.901   7.789   0.866  0.3334  0.1664  0.2322
   91MOL    C4432624   6.999   7.877   0.950 -0.5943  0.2527 -0.1953
   91MOL    C4532625   7.130   0.045   0.877  0.0723  0.1057 -0.0673
   91MOL    H4632626   6.407   7.612   1.147 -0.1618  0.9050  3.8514
   91MOL    H4732627   6.559   7.514   1.138 -1.4451 -1.5712  0.2787
   91MOL    H4832628   6.539   7.782   1.006  1.3408  0.5076  2.3168
   91MOL    H4932629   6.943   7.690   0.848 -0.2415  0.2633 -1.8541
   91MOL    H5032630   6.901   7.839   0.769 -1.1448  3.9260  2.0620
   91MOL    H5132631   6.935   0.077   0.987 -1.1720 -0.9243  1.3948
   91MOL    H5232632   7.019   7.826   1.044 -1.9946 -1.4099 -0.7617
   91MOL    H5332633   7.167   0.138   0.920 -0.9386  1.4654 -2.0574
   91MOL    H5432634   7.111   0.069   0.773 -0.1284  1.2439  0.2235
   91MOL    H5532635   7.216   7.860   0.885  0.6694  0.5184 -2.6423
   91MOL    C5632636   6.483   7.600   0.892  0.0839  0.3633 -0.3850
   91MOL    C5732637   6.528   7.613   0.745 -1.2100 -0.0917  0.7928
   91MOL    C5832638   6.487   7.480   0.666  0.5036  0.3349 -0.0723
   91MOL    O5932639   6.571   7.409   0.610 -0.5267 -0.3822  0.6937
   91MOL    O6032640   6.357   7.470   0.649  0.0605 -0.4677 -0.1225
   91MOL    C6132641   6.311   7.354   0.575 -0.8690 -0.1669  0.0449
   91MOL    C6232642   6.184   7.387   0.499 -0.5899  0.4277 -0.7930
   91MOL    C6332643   6.143   7.271   0.400 -0.1105 -0.4166  0.6150
   91MOL    H6432644   6.378   7.611   0.918 -0.1801 -2.0917 -0.2594
   91MOL    H6532645   6.500   7.495   0.917  0.5791  0.3829 -0.6296
   91MOL    H6632646   6.637   7.615   0.738 -0.9564 -0.6963  3.7715
   91MOL    H6732647   6.388   7.308   0.514 -0.6303 -0.5801  0.6480
   91MOL    H6832648   6.301   7.274   0.648  2.4133 -0.2675  0.4643
   91MOL    H6932649   6.101   7.400   0.568 -0.3822  0.1270 -0.4859
   91MOL    H7032650   6.195   7.481   0.443  2.4449  1.1117  0.8439
   91MOL    H7132651   6.043   7.299   0.367  0.3880  0.3997 -0.2234
   91MOL    H7232652   6.124   7.182   0.459 -0.5148 -0.4083  0.4941
   91MOL    H7332653   6.217   7.254   0.321 -0.7233  2.3009 -0.5890
   91MOL    C7432654   6.484   7.744   0.679  0.3858  0.6212 -0.2367
   91MOL    C7532655   6.551   7.763   0.536 -0.3506  0.2315 -0.3836
   91MOL    C7632656   6.464   7.849   0.452 -0.3075 -0.2553 -0.0238
   91MOL    O7732657   6.424   0.083   0.479  0.0199  0.2072 -0.0161
   91MOL    O7832658   6.419   7.792   0.338 -1.0227 -0.2472  0.2049
   91MOL    C7932659   6.308   7.849   0.271 -1.3639  0.1837 -0.6361
   91MOL    C8032660   6.311   7.806   0.129  0.6369  0.6978 -0.5366
   91MOL    C8132661   6.317   7.659   0.106 -0.2923 -0.3451  0.0351
   91MOL    H8232662   6.522   7.823   0.744  0.2272  0.6501 -0.1792
   91MOL    H8332663   6.376   7.748   0.672  0.3319  1.8641  1.1440
   91MOL    H8432664   6.544   7.673   0.475  0.5879 -0.9287  1.1790
   91MOL    H8532665   6.218   7.806   0.316 -1.1118  0.3427  0.0296
   91MOL    H8632666   6.301   0.077   0.280 -1.3610  0.2832 -1.8644
   91MOL    H8732667   6.224   7.848   0.078 -0.7881  2.1997  3.0082
   91MOL    H8832668   6.395   7.853   0.078  0.8217  0.1541 -0.7427
   91MOL    H8932669   6.317   7.647   7.879 -1.8568 -0.2157  0.0150
   91MOL    H9032670   6.236   7.602   0.152 -1.5764  1.0377 -0.4711
   91MOL    H9132671   6.411   7.614   0.140 -0.9751 -0.7990  1.3760
   91MOL    C9232672   6.692   7.834   0.544 -0.6365 -0.7362 -0.6429
   91MOL    C9332673   6.779   7.857   0.420 -1.1662 -0.1084  0.7970
   91MOL    C9432674   6.897   0.060   0.473  0.1510 -0.4918 -0.3421
   91MOL    O9532675   7.016   0.012   0.486  0.2378 -0.1473 -0.0672
   91MOL    O9632676   6.855   0.189   0.509 -0.1922  0.2063  0.4152
   91MOL    C9732677   6.962   0.272   0.560  0.7749 -0.0721  0.0288
   91MOL    C9832678   7.031   0.346   0.441  0.6883  1.1159 -0.2088
   91MOL    C9932679   7.097   0.482   0.470  0.1073  0.3352 -0.3222
   91MOL   H10032680   6.742   7.772   0.618  0.6191  2.3651  1.2306
   91MOL   H10132681   6.680   0.048   0.597  0.4059 -1.7901  1.5491
   91MOL   H10232682   6.735   0.041   0.342  0.2211 -1.3200 -1.0191
   91MOL   H10332683   6.899   0.344   0.612 -1.5152 -0.9902 -1.4338
   91MOL   H10432684   7.018   0.226   0.641  1.1014  0.6274  0.2130
   91MOL   H10532685   7.098   0.271   0.399 -0.0273  0.7786 -0.7628
   91MOL   H10632686   6.949   0.355   0.370 -0.5587 -1.3756  0.8335
   91MOL   H10732687   7.143   0.542   0.391 -2.6348  0.3819 -1.9565
   91MOL   H10832688   7.174   0.480   0.547 -0.1618 -2.5968 -0.0696
   91MOL   H10932689   7.022   0.544   0.518 -0.6208  0.0206 -1.0485
   91MOL   C11032690   6.825   7.716   0.357  0.8997 -0.1457 -0.4612
   91MOL   C11132691   6.872   7.730   0.216  0.1588  0.2432  0.2086
   91MOL   C11232692   6.966   7.607   0.176  0.7094  0.4289  0.0142
   91MOL   O11332693   7.077   7.624   0.130 -0.4326 -0.2653 -0.0803
   91MOL   O11432694   6.899   7.493   0.188 -0.3351  0.7051  0.3340
   91MOL   C11532695   6.968   7.371   0.186  0.0496 -0.4203  0.2955
   91MOL   C11632696   7.028   7.334   0.323 -0.1021 -0.9261  1.0246
   91MOL   C11732697   6.914   7.299   0.428  0.3962 -0.1867  0.2727
   91MOL   H11832698   6.750   7.640   0.378 -0.0876  0.9925  0.1925
   91MOL   H11932699   6.899   7.672   0.423 -1.2795  1.3460  3.0969
   91MOL   H12032700   6.935   7.819   0.221  0.6552 -0.1908  1.9392
   91MOL   H12132701   6.898   7.298   0.145 -0.5972  1.4134 -1.9572
   91MOL   H12232702   7.043   7.371   0.108  0.7652  0.3260  0.9683
   91MOL   H12332703   7.083   7.240   0.311 -0.4154 -0.7969 -1.7338
   91MOL   H12432704   7.088   7.416   0.361 -0.1074 -0.1079 -0.6782
   91MOL   H12532705   6.940   7.307   0.533  0.1944 -0.9435  0.3830
   91MOL   H12632706   6.872   7.199   0.425  0.2942 -0.1647  0.9708
   91MOL   H12732707   6.828   7.365   0.419 -0.1571 -0.9593 -0.1465
   91MOL   C12832708   6.740   7.735   0.128 -0.2399 -0.1588  0.1103
   91MOL   C12932709   6.750   7.818   0.001  0.0428 -0.6663  0.2217
   91MOL   C13032710   6.788   0.087   0.028  0.2587 -0.8293 -0.0977
   91MOL   O13132711   6.884   0.135   7.847 -0.1322  0.1176 -0.8947
   91MOL   O13232712   6.706   0.149   0.114 -0.0348 -0.1963 -0.2527
   91MOL   C13332713   6.717   0.288   0.146 -0.6510 -0.0802  0.5254
   91MOL   C13432714   6.612   0.335   0.245  0.6002  0.5634  0.0942
   91MOL   C13532715   6.469   0.293   0.213  0.2031 -0.1544  1.2807
   91MOL   H13632716   6.665   7.774   0.196 -2.8081 -2.6643 -1.1754
   91MOL   H13732717   6.700   7.635   0.110 -0.7389  0.2710 -1.2718
   91MOL   H13832718   6.646   7.824   7.847  0.8533  2.9726 -1.8645
   91MOL   H13932719   6.815   0.315   0.185 -0.6256 -0.0061  0.4104
   91MOL   H14032720   6.707   0.349   0.056  2.9218  0.9108  0.7332
   91MOL   H14132721   6.638   0.289   0.341 -0.3616 -1.9153 -0.7690
   91MOL   H14232722   6.613   0.442   0.263 -1.3186  0.3960  1.4209
   91MOL   H14332723   6.411   0.274   0.303 -0.6885 -1.0850  0.5272
   91MOL   H14432724   6.468   0.205   0.148 -0.5702  1.1501 -0.5181
   91MOL   H14532725   6.411   0.372   0.166  0.6292 -1.0746 -0.8784
   91MOL   C14632726   6.835   7.756   7.770 -0.6410  0.1067 -0.6275
   91MOL   C14732727   6.782   7.615   7.722  0.0636  0.2950  0.3340
   91MOL   C14832728   6.640   7.623   7.662 -0.1331  0.2120 -0.2137
   91MOL   O14932729   6.546   7.562   7.717  0.2724 -0.1142 -0.0586
   91MOL   O15032730   6.631   7.710   7.566  0.4506 -0.4091  0.1814
   91MOL   C15132731   6.512   7.744   7.501  1.0831  0.4107  0.0353
   91MOL   C15232732   6.437   7.855   7.584 -1.0873  0.8931  0.5802
   91MOL   C15332733   6.516   0.107   7.600 -0.4251 -0.1056 -0.5352
   91MOL   H15432734   6.933   7.744   7.816 -0.9379  1.1452  0.2827
   91MOL   H15532735   6.849   7.821   7.683  0.8424 -0.4559 -0.8292
   91MOL   H15632736   6.769   7.556   7.813  1.5527  1.1875  1.1470
   91MOL   H15732737   6.512   7.768   7.395  1.2189  0.2564 -0.0000
   91MOL   H15832738   6.454   7.652   7.503  0.9121  0.5260  1.4063
   91MOL   H15932739   6.333   7.868   7.555 -1.1580 -1.0409 -0.1374
   91MOL   H16032740   6.437   7.812   7.684  0.9063 -0.5593 -0.0129
   91MOL   H16132741   6.472   0.156   7.687 -0.0197 -0.1674 -0.2949
   91MOL   H16232742   6.517   0.175   7.515 -3.5466  0.4838 -0.1879
   91MOL   H16332743   6.620   0.085   7.621 -0.0568 -0.9167 -3.0782
   91MOL   C16432744   6.887   7.550   7.627  0.5278  0.3617  1.0329
   91MOL   C16532745   6.847   7.417   7.556 -0.8503  0.3149  0.5074
   91MOL   C16632746   6.879   7.429   7.404  0.5044  0.6427  0.0234
   91MOL   O16732747   6.984   7.382   7.361 -0.6122  0.1683 -0.5929
   91MOL   O16832748   6.781   7.496   7.340  0.0064  0.5235 -0.1315
   91MOL   C16932749   6.787   7.519   7.201 -0.5383 -0.0683  0.3600
   91MOL   C17032750   6.850   7.655   7.155  0.6367 -0.3746  0.6544
   91MOL   C17132751   7.003   7.655   7.168  0.0888  0.3343 -0.3671
   91MOL   H17232752   6.985   7.541   7.675  1.9674 -2.5508 -2.2383
   91MOL   H17332753   6.908   7.625   7.551  2.2568  1.5640  2.6271
   91MOL   H17432754   6.740   7.399   7.556 -0.7541 -0.4867  3.3736
   91MOL   H17532755   6.842   7.439   7.152 -2.3229  1.4438 -4.3966
   91MOL   H17632756   6.683   7.516   7.166 -0.8369  0.2632  1.1927
   91MOL   H17732757   6.830   7.666   7.048  1.2190 -2.0545  0.3719
   91MOL   H17832758   6.799   7.735   7.211 -0.6813 -0.6053 -0.1853
   91MOL   H17932759   7.038   7.747   7.120  3.5803  0.5529  2.3734
   91MOL   H18032760   7.050   7.570   7.119 -0.3580  1.7700 -3.4389
   91MOL   H18132761   7.036   7.666   7.271 -0.9024  0.5079 -0.0603
   91MOL   C18232762   6.911   7.288   7.618  0.5529 -0.3250 -0.7461
   91MOL   C18332763   6.813   7.162   7.632  0.1080  0.3256  0.6705
   91MOL   C18432764   6.681   7.186   7.699  0.1077 -0.1371  0.1634
   91MOL   O18532765   6.572   7.184   7.645  0.1726  0.0131 -0.3927
   91MOL   O18632766   6.692   7.217   7.837 -0.0733  0.5546 -0.1909
   91MOL   C18732767   6.575   7.244   0.033 -0.7262  0.1275  0.4966
   91MOL   C18832768   6.599   7.361   0.130 -0.5279  0.3618  0.5262
   91MOL   C18932769   6.508   7.365   0.251 -0.1123  0.0958  0.0078
   91MOL   H19032770   6.934   7.309   7.723  1.0227 -0.9987 -0.7052
   91MOL   H19132771   7.006   7.261   7.572  0.7260 -2.6740  0.8875
   91MOL   H19232772   6.860   7.091   7.701  1.2306 -0.3784 -0.7977
   91MOL   H19332773   6.488   7.268   7.853 -1.5202 -0.2392  1.4825
   91MOL   H19432774   6.555   7.154   0.091 -0.2869 -0.1436  0.2284
   91MOL   H19532775   6.698   7.362   0.175  0.0418 -1.2097 -0.6795
   91MOL   H19632776   6.597   7.459   0.082  0.9312  0.3709  0.4714
   91MOL   H19732777   6.534   7.445   0.320 -1.2091 -0.6124  1.2605
   91MOL   H19832778   6.514   7.274   0.311  1.9417  1.0971  1.4089
   91MOL   H19932779   6.405   7.382   0.219 -0.4295 -0.8098  0.5381
   91MOL   C20032780   6.792   7.086   7.495 -0.2694  0.0558  0.0924
   91MOL   C20132781   6.918   7.026   7.428 -0.2093 -0.4187 -0.0535
   91MOL   C20232782   7.001   6.960   7.536 -0.9741  0.3509  0.3046
   91MOL   O20332783   6.956   6.857   7.584  0.4344 -0.3168 -0.6108
   91MOL   O20432784   7.123   7.018   7.560 -0.2956 -0.4142 -0.1233
   91MOL   C20532785   7.220   6.947   7.644  0.5668  0.0622 -0.1088
   91MOL   C20632786   7.311   7.043   7.718 -0.7125 -0.1297 -0.3716
   91MOL   C20732787   7.232   7.147   7.797  0.3461  0.1456 -0.6714
   91MOL   H20832788   6.739   7.143   7.419  0.6187 -0.1262 -0.6798
   91MOL   H20932789   6.731   7.003   7.531  2.3060 -1.2150  1.6862
   91MOL   H21032790   6.971   7.112   7.387 -0.3439 -1.2494 -2.0525
   91MOL   H21132791   7.161   6.880   7.707  0.0835  0.7401  0.1596
   91MOL   H21232792   7.288   6.890   7.581 -0.3173 -1.2844  0.1310
   91MOL   H21332793   7.382   6.987   7.780  0.3866  2.1049  0.4445
   91MOL   H21432794   7.381   7.093   7.651 -0.0021 -0.8423 -0.1727
   91MOL   H21532795   7.205   7.225   7.726  0.4174  2.1871  1.5150
   91MOL   H21632796   7.287   7.193   7.878 -0.7606 -0.8585  0.6677
   91MOL   H21732797   7.145   7.108   7.848  0.1361  2.6502  0.9569
   91MOL   C21832798   6.869   6.926   7.324 -0.3316 -0.1695  0.2345
   91MOL   C21932799   6.980   6.869   7.226 -0.0068 -0.6328 -0.0848
   91MOL   C22032800   7.057   6.980   7.155 -0.1472  0.0603 -0.0106
   91MOL   O22132801   7.176   7.003   7.174  0.3533  0.1310 -0.3066
   91MOL   O22232802   6.974   7.054   7.071 -0.0672  0.1476 -0.0884
   91MOL   C22332803   7.020   7.178   7.029  0.9398 -0.4945  0.8860
   91MOL   C22432804   6.918   7.237   6.932 -0.3898 -0.3378 -1.0523
   91MOL   C22532805   6.960   7.372   6.860 -0.7250 -0.0125  0.5177
   91MOL   H22632806   6.807   6.980   7.252 -1.7569 -0.1717  1.4544
   91MOL   H22732807   6.802   6.846   7.354 -1.7548  0.0226 -2.2752
   91MOL   H22832808   6.925   6.820   7.146 -1.6640  0.3444  0.4169
   91MOL   H22932809   7.032   7.246   7.114  1.9950  0.2699  0.1361
   91MOL   H23032810   7.119   7.179   6.984 -0.0472  0.6591 -1.2900
   91MOL   H23132811   6.908   7.159   6.855  0.7158  0.1602 -1.7177
   91MOL   H23232812   6.818   7.255   6.971  0.8654  0.7510  1.7486
   91MOL   H23332813   6.968   7.439   6.945 -0.2517 -0.1693  0.5961
   91MOL   H23432814   6.870   7.405   6.809 -0.3973  0.1971  0.0692
   91MOL   H23532815   7.058   7.370   6.812 -1.1362 -1.2712 -0.2999
   91MOL   C23632816   7.075   6.756   7.284 -0.1051 -0.5996  0.5958
   91MOL   C23732817   7.005   6.634   7.341  0.0975  0.7698  0.2937
   91MOL   C23832818   6.891   6.586   7.252  0.6712 -0.0160 -0.1814
   91MOL   O23932819   6.780   6.574   7.296 -0.4213  0.1247  0.3179
   91MOL   O24032820   6.913   6.575   7.117  0.1188  0.3125 -0.1929
   91MOL   C24132821   6.813   6.535   7.024 -0.2479 -0.2308 -0.1676
   91MOL   C24232822   6.880   6.479   6.895  0.8227  0.2115  0.3503
   91MOL   C24332823   6.785   6.396   6.812  0.4907 -0.3835 -0.3731
   91MOL   H24432824   7.141   6.786   7.365  1.9878  0.9230 -1.6341
   91MOL   H24532825   7.145   6.718   7.210  2.5242 -1.1196  3.2487
   91MOL   H24632826   6.949   6.680   7.423  0.4912  1.6979  0.0457
   91MOL   H24732827   6.735   6.475   7.072  2.9229 -2.2238  2.6851
   91MOL   H24832828   6.759   6.626   6.998  0.1268  0.6944  2.1957
   91MOL   H24932829   6.915   6.564   6.837 -1.5592  1.9573  1.3950
   91MOL   H25032830   6.973   6.423   6.907  1.0183 -0.2538 -2.7865
   91MOL   H25132831   6.785   6.290   6.840 -1.2001 -0.5423 -0.9610
   91MOL   H25232832   6.824   6.387   6.711 -0.1432 -4.0847 -0.3630
   91MOL   H25332833   6.685   6.437   6.811  0.1653 -0.9436  2.5345
   91MOL   C25432834   7.105   6.517   7.375 -0.2523  0.2625 -0.4426
   91MOL   C25532835   7.082   6.438   7.506  0.2653 -0.1264  0.3011
   91MOL   C25632836   6.956   6.343   7.507  0.4974 -0.5442  0.5893
   91MOL   O25732837   6.858   6.366   7.570 -0.2796 -0.4459  0.3174
   91MOL   O25832838   6.971   6.234   7.429  0.6373  0.4597 -0.2407
   91MOL   C25932839   6.870   6.138   7.416  0.0633 -0.1961 -0.3101
   91MOL   C26032840   6.874   6.029   7.532 -0.4318  0.0115  0.4417
   91MOL   C26132841   6.770   5.917   7.525 -0.1316  0.7814 -0.9303
   91MOL   H26232842   7.199   6.572   7.381  0.2712 -0.6021 -0.6248
   91MOL   H26332843   7.122   6.457   7.285 -0.2774 -1.1744  0.4856
   91MOL   H26432844   7.045   6.518   7.570 -1.2609  0.0577 -0.7874
   91MOL   H26532845   6.775   6.190   7.416  0.9777  1.6713 -3.8362
   91MOL   H26632846   6.877   6.098   7.315  0.8088  0.9524 -0.7285
   91MOL   H26732847   6.971   5.982   7.511 -0.1419  0.6539  0.3393
   91MOL   H26832848   6.884   6.075   7.630  0.2530 -0.3003  0.5251
   91MOL   H26932849   6.809   5.835   7.585  1.3642  1.7149 -0.5946
   91MOL   H27032850   6.738   5.882   7.427 -2.1991  1.8021 -0.6634
   91MOL   H27132851   6.679   5.938   7.582  0.2912 -2.6479  1.1294
   91MOL   C27232852   7.209   6.370   7.558 -0.5641 -0.2517 -0.0035
   91MOL   C27332853   7.277   6.456   7.671  0.5493 -0.5636  0.3778
   91MOL   C27432854   7.356   6.576   7.634 -0.6081 -0.0505  0.0551
   91MOL   O27532855   7.361   6.675   7.707 -0.1600 -0.1983 -0.2536
   91MOL   O27632856   7.417   6.563   7.526 -0.0699 -0.2925 -0.3572
   91MOL   C27732857   7.514   6.668   7.495 -0.6016  0.3583  0.2769
   91MOL   C27832858   7.450   6.759   7.386  0.9387 -0.2214  0.2423
   91MOL   C27932859   7.460   6.703   7.238  0.3624  0.6204 -0.3725
   91MOL   H28032860   7.270   6.358   7.468  0.4338  2.6245  0.2268
   91MOL   H28132861   7.185   6.271   7.597  1.6217 -1.0781 -0.6892
   91MOL   H28232862   7.357   6.390   7.705  0.3677 -0.9004  0.1554
   91MOL   H28332863   7.556   6.721   7.580 -1.5983 -1.3732  1.8833
   91MOL   H28432864   7.599   6.606   7.465 -1.6562 -1.1172  0.2759
   91MOL   H28532865   7.348   6.769   7.423  1.2427  2.2919  0.4766
   91MOL   H28632866   7.480   6.862   7.403  0.4779  0.4662 -2.6805
   91MOL   H28732867   7.416   6.603   7.243  0.6500  0.5363  0.7217
   91MOL   H28832868   7.560   6.700   7.195 -0.0750 -1.2899 -1.2997
   91MOL   H28932869   7.409   6.764   7.163 -0.5377 -1.3428 -1.4001
   91MOL   C29032870   7.186   6.475   7.796  0.0586 -0.1261  0.3220
   91MOL   C29132871   7.245   6.464   0.057 -0.2843  0.6471 -0.1124
   91MOL   C29232872   7.339   6.347   0.081  0.9847 -0.6770 -0.2462
   91MOL   O29332873   7.297   6.232   0.101  0.7313  0.3752  0.1901
   91MOL   O29432874   7.472   6.371   0.064 -0.1183 -0.0173 -0.0227
   91MOL   C29532875   7.569   6.273   0.098 -0.2131 -0.0210 -0.3028
   91MOL   C29632876   7.709   6.330   0.067  0.5416  0.9387 -0.6703
   91MOL   C29732877   7.740   6.317   7.799  0.1040  0.1942 -0.2776
   91MOL   H29832878   7.113   6.395   7.793 -2.2726  1.9597 -0.4190
   91MOL   H29932879   7.132   6.568   7.775  1.7285  0.5454 -1.1141
   91MOL   H30032880   7.160   6.427   0.114 -0.1372 -1.3195 -1.1297
   91MOL   H30132881   7.564   6.251   0.205  1.5372  0.0612 -0.1822
   91MOL   H30232882   7.547   6.177   0.051 -1.1668  0.0501 -0.0119
   91MOL   H30332883   7.707   6.436   0.094 -1.4375  0.3310  1.6947
   91MOL   H30432884   7.789   6.280   0.122 -0.4736  1.4905  1.3549
   91MOL   H30532885   7.682   6.376   7.728  0.2871  0.1571 -0.4595
   91MOL   H30632886   7.735   6.216   7.758 -2.0059  0.5786 -1.0827
   91MOL   H30732887   7.844   6.347   7.798  0.3202 -0.4733  1.3679
   91MOL   C30832888   7.300   6.596   0.113 -0.2548 -0.0459 -0.3964
   91MOL   C30932889   7.253   6.631   0.260  0.2869  0.1934  0.1599
   91MOL   C31032890   7.277   6.522   0.362 -0.6940  0.2426 -0.6313
   91MOL   O31132891   7.181   6.468   0.420  0.0450 -0.1931  0.2524
   91MOL   O31232892   7.400   6.482   0.365 -0.0231  0.2156 -0.6044
   91MOL   C31332893   7.437   6.371   0.447  0.3708  0.0186  0.4984
   91MOL   C31432894   7.535   6.439   0.552  0.0939 -0.4501  0.2931
   91MOL   C31532895   7.472   6.535   0.658 -0.7359 -0.7782 -0.1661
   91MOL   H31632896   7.268   6.675   0.046 -0.5166  0.2434  0.0671
   91MOL   H31732897   7.409   6.598   0.118 -0.2895  0.4315  0.2882
   91MOL   H31832898   7.145   6.645   0.255  0.1937 -0.4927  0.2771
   91MOL   H31932899   7.357   6.327   0.507 -0.7814  0.7047 -0.5250
   91MOL   H32032900   7.487   6.285   0.401 -2.5528 -1.0224 -0.8425
   91MOL   H32132901   7.584   6.359   0.607  1.4172  0.1038 -0.0744
   91MOL   H32232902   7.624   6.482   0.506 -0.4069  1.3070  0.8842
   91MOL   H32332903   7.411   6.597   0.592  0.9784  1.0977 -0.0362
   91MOL   H32432904   7.407   6.479   0.726  0.8280 -1.9501  0.3926
   91MOL   H32532905   7.546   6.602   0.702  0.4277  1.2688 -5.0073
   91MOL   C32632906   7.322   6.761   0.302  0.2820  0.3137 -0.3122
   91MOL   C32732907   7.262   6.827   0.430 -0.2355  0.6432  0.2428
   91MOL   C32832908   7.374   6.918   0.484  0.1671 -0.6291  0.6021
   91MOL   O32932909   7.445   6.885   0.579  0.0971  0.0547 -0.0734
   91MOL   O33032910   7.405   7.028   0.404 -0.0709 -0.0455  0.2229
   91MOL   C33132911   7.464   7.137   0.463 -0.1562  0.0112 -0.5006
   91MOL   C33232912   7.445   7.259   0.371 -0.1536 -0.0269 -0.0352
   91MOL   C33332913   7.501   7.231   0.235  0.3783 -0.5947  0.0734
   91MOL   H33432914   7.324   6.838   0.225 -2.0776  0.6445 -0.0943
   91MOL   H33532915   7.427   6.739   0.319 -0.5438 -3.3493  0.4733
   91MOL   H33632916   7.247   6.748   0.504  0.4839 -0.3097 -0.6046
   91MOL   H33732917   7.424   7.168   0.560  1.0219  1.8949 -0.5920
   91MOL   H33832918   7.569   7.120   0.486 -0.0395  0.3819 -0.7487
   91MOL   H33932919   7.341   7.280   0.346 -0.4193  0.3963  1.3818
   91MOL   H34032920   7.489   7.350   0.413  0.0703 -0.1331 -0.0375
   91MOL   H34132921   7.606   7.215   0.256  0.3716 -1.0836 -0.2627
   91MOL   H34232922   7.457   7.141   0.192  2.1236 -1.9708  1.1446
   91MOL   H34332923   7.488   7.303   0.154 -0.5593 -1.8434 -0.8978
   91MOL   C34432924   7.131   6.904   0.415 -0.1540  0.1915  0.3184
   91MOL   C34532925   7.065   6.962   0.547 -0.4326 -0.1387 -0.0020
   91MOL   C34632926   7.029   6.864   0.657  0.4195  0.1326 -0.5297
   91MOL   O34732927   6.912   6.830   0.680 -0.3005 -0.0847 -0.2087
   91MOL   O34832928   7.130   6.808   0.725  0.0307  0.0227 -0.0312
   91MOL   C34932929   7.109   6.717   0.829  0.9558  0.8958  0.4037
   91MOL   C35032930   7.238   6.657   0.894 -0.0469  0.5130 -0.9674
   91MOL   C35132931   7.251   6.666   1.046  0.1802 -0.0191  0.6774
   91MOL   H35232932   7.057   6.840   0.367  1.3357 -1.6331  0.4067
   91MOL   H35332933   7.142   6.984   0.342 -0.1646 -2.3441 -2.5866
   91MOL   H35432934   6.983   7.025   0.514  0.1422  0.4528 -0.3103
   91MOL   H35532935   7.056   6.774   0.905 -1.0165  1.6919 -1.5114
   91MOL   H35632936   7.050   6.632   0.795  1.5757  0.6269 -0.0226
   91MOL   H35732937   7.261   6.555   0.863  4.5284  1.5538 -1.3084
   91MOL   H35832938   7.321   6.718   0.859  0.3642  0.4071 -0.1697
   91MOL   H35932939   7.277   6.766   1.081 -0.9247  0.4798  0.1172
   91MOL   H36032940   7.156   6.651   1.096  1.0567  1.6300  2.9409
   91MOL   H36132941   7.318   6.591   1.089  0.0713 -0.0605  0.7702
   91MOL   H36232942   7.142   7.025   0.591  2.0354 -1.6552 -1.9590
   92MOL     C132943   3.752   7.534   6.637  0.2125 -0.5750 -0.1162
   92MOL     C232944   3.652   7.451   6.721  0.5683  0.2143 -0.2469
   92MOL     C332945   3.528   7.538   6.758 -0.7498  0.0286 -0.1592
   92MOL     O432946   3.500   7.642   6.696  0.1928 -0.8477 -0.0757
   92MOL     O532947   3.461   7.490   6.863  0.6470 -0.1485 -0.2867
   92MOL     C632948   3.350   7.558   6.918  1.0849  0.0925  0.2356
   92MOL     C732949   3.230   7.467   6.915  0.5410 -0.2377 -0.0804
   92MOL     C832950   3.101   7.535   6.956 -0.0943  0.7899 -0.4070
   92MOL     H932951   3.767   7.623   6.698  0.2496 -1.2096  0.8010
   92MOL    H1032952   3.847   7.485   6.614  0.2960  0.5574 -2.3311
   92MOL    H1132953   3.692   7.448   6.823  0.7445 -1.3319 -0.3475
   92MOL    H1232954   3.382   7.583   7.018  2.5086 -0.0583 -0.1790
   92MOL    H1332955   3.329   7.649   6.862  0.0049  0.0186  0.5047
   92MOL    H1432956   3.224   7.443   6.809  1.5005  0.1687 -0.2298
   92MOL    H1532957   3.248   7.378   6.975 -2.3681 -1.3790 -0.8342
   92MOL    H1632958   3.028   7.455   6.962 -0.7491  1.0614 -3.4681
   92MOL    H1732959   3.103   7.579   7.056 -0.0824  2.2872 -1.0467
   92MOL    H1832960   3.062   7.603   6.879 -0.6627  0.9853  0.0482
   92MOL    H1932961   3.712   7.563   6.540 -2.1523  0.5411  1.1430
   92MOL    C2032962   3.614   7.309   6.671 -0.5258  0.5298 -0.4538
   92MOL    C2132963   3.730   7.200   6.676  0.2982  0.1059  0.3977
   92MOL    C2232964   3.786   7.172   6.811  0.4018  0.3148 -0.0779
   92MOL    O2332965   3.724   7.191   6.913  1.0220  0.3581 -0.6656
   92MOL    O2432966   3.903   7.109   6.807 -0.0665  0.1401  0.6451
   92MOL    C2532967   3.976   7.077   6.921  0.0774 -0.2923 -0.0954
   92MOL    C2632968   4.110   7.009   6.890 -0.4122  0.1622 -0.5481
   92MOL    C2732969   4.181   6.964   7.020 -0.4538 -0.7744  0.6041
   92MOL    H2832970   3.572   7.315   6.571 -1.2850 -0.5636 -0.2054
   92MOL    H2932971   3.533   7.277   6.736  0.5996 -0.4744  0.4743
   92MOL    H3032972   3.815   7.254   6.633  1.0916 -1.9658 -0.7289
   92MOL    H3132973   3.987   7.166   6.983  0.8457  0.2925 -1.0553
   92MOL    H3232974   3.913   7.004   6.974  0.1615 -0.1357  0.2213
   92MOL    H3332975   4.100   6.926   6.820  0.6020  0.4914 -1.0930
   92MOL    H3432976   4.182   7.075   6.841 -0.3883  0.5142 -0.0495
   92MOL    H3532977   4.131   6.885   7.076  1.6750 -1.0518  2.1467
   92MOL    H3632978   4.195   7.049   7.086  0.8070 -0.6953  0.2404
   92MOL    H3732979   4.278   6.929   6.987 -0.4840  2.0295 -2.7190
   92MOL    C3832980   3.693   7.069   6.596  0.1735  0.4869 -0.8910
   92MOL    C3932981   3.683   7.096   6.441  0.0715 -0.1862 -0.5207
   92MOL    C4032982   3.803   7.168   6.384 -0.5399 -0.0664 -0.3192
   92MOL    O4132983   3.790   7.277   6.337  0.3203  0.2358 -0.2766
   92MOL    O4232984   3.913   7.093   6.396  0.0406  0.0053 -0.1432
   92MOL    C4332985   4.037   7.163   6.376  0.0471 -0.0656  0.4027
   92MOL    C4432986   4.073   7.227   6.510  0.0004 -0.1677  0.2733
   92MOL    C4532987   4.216   7.274   6.491  0.7429  0.2281 -0.3016
   92MOL    H4632988   3.601   7.032   6.639 -0.3186  0.4874 -1.9380
   92MOL    H4732989   3.776   6.999   6.608 -0.3330 -0.0615 -0.6297
   92MOL    H4832990   3.593   7.156   6.421 -0.0028  0.1064  0.6558
   92MOL    H4932991   4.119   7.100   6.342 -0.2079 -1.2877  2.0103
   92MOL    H5032992   4.018   7.242   6.303  1.3844  0.0033  0.1114
   92MOL    H5132993   4.007   7.312   6.526  1.5359  0.8383  1.3661
   92MOL    H5232994   4.074   7.170   6.603  0.5849  1.4324  1.2604
   92MOL    H5332995   4.255   7.328   6.577 -0.9854  0.4636  0.3531
   92MOL    H5432996   4.218   7.344   6.408 -1.1588 -0.8113 -1.2737
   92MOL    H5532997   4.269   7.184   6.460  0.1421  0.6603 -2.7078
   92MOL    C5632998   3.666   6.968   6.360  0.6028  0.3886 -0.7471
   92MOL    C5732999   3.641   6.975   6.210 -0.3000  0.1985  0.4309
   92MOL    C5833000   3.717   6.866   6.141 -0.4430  0.1723 -0.3889
   92MOL    O5933001   3.793   6.882   6.045  0.5550  0.6758 -0.6988
   92MOL    O6033002   3.688   6.743   6.197  0.2109  0.5341  0.6781
   92MOL    C6133003   3.765   6.629   6.145  0.2962 -0.2325 -0.0457
   92MOL    C6233004   3.682   6.534   6.055  0.6612  0.6893  0.5658
   92MOL    C6333005   3.548   6.469   6.116 -0.5360  0.1949  0.5888
   92MOL    H6433006   3.576   6.918   6.396  1.6744 -0.9232  0.1832
   92MOL    H6533007   3.749   6.902   6.388 -0.5779  0.2765  2.6132
   92MOL    H6633008   3.686   7.063   6.165 -1.3650  0.0281 -0.9756
   92MOL    H6733009   3.859   6.654   6.096  1.5531 -2.8614  0.9081
   92MOL    H6833010   3.801   6.570   6.229  2.3934  0.2366 -0.6001
   92MOL    H6933011   3.658   6.600   5.972 -1.6571 -0.0580  0.6051
   92MOL    H7033012   3.749   6.456   6.017 -1.5689 -1.8197  1.5599
   92MOL    H7133013   3.557   6.381   6.178 -3.2268 -1.4857 -1.2697
   92MOL    H7233014   3.478   6.436   6.039 -0.2723 -0.4071  0.6109
   92MOL    H7333015   3.490   6.543   6.171 -2.7055  0.3271 -1.7647
   92MOL    C7433016   3.491   6.970   6.173  0.0554  0.7553 -0.6490
   92MOL    C7533017   3.453   6.989   6.025 -0.4234  0.5111 -0.1065
   92MOL    C7633018   3.416   6.858   5.959  0.2500 -0.0755 -0.3644
   92MOL    O7733019   3.477   6.815   5.863 -0.7356 -0.1950  0.6398
   92MOL    O7833020   3.303   6.802   6.013 -0.1356 -0.2253  0.2829
   92MOL    C7933021   3.268   6.672   5.962 -0.2725 -0.6617 -0.3308
   92MOL    C8033022   3.133   6.627   6.024  0.1705  0.2523 -0.1851
   92MOL    C8133023   3.017   6.719   5.971 -0.6498 -0.0207  0.2366
   92MOL    H8233024   3.438   7.047   6.228 -0.7059  1.1343 -1.9148
   92MOL    H8333025   3.444   6.875   6.201  4.3312 -0.6972  2.1958
   92MOL    H8433026   3.545   7.021   5.976  1.3201 -0.7155  2.2440
   92MOL    H8533027   3.250   6.675   5.855  0.4773  0.0325 -0.4416
   92MOL    H8633028   3.353   6.611   5.994  0.5154 -0.4619 -1.9936
   92MOL    H8733029   3.109   6.522   6.006  3.0434 -0.3282 -0.8415
   92MOL    H8833030   3.133   6.634   6.133 -1.8997 -0.7738 -0.1059
   92MOL    H8933031   3.004   6.708   5.863 -1.9853  1.8299  0.1903
   92MOL    H9033032   3.038   6.825   5.986  1.2131  0.0800 -2.6753
   92MOL    H9133033   2.927   6.696   6.028  0.6195 -0.4417  2.1270
   92MOL    C9233034   3.352   7.103   6.000  0.6682 -0.6695 -0.1866
   92MOL    C9333035   3.386   7.255   6.026  0.6292  0.1344  1.0812
   92MOL    C9433036   3.464   7.308   5.904 -0.8224 -0.9431  0.0098
   92MOL    O9533037   3.410   7.379   5.815  0.1354  0.4915 -0.2581
   92MOL    O9633038   3.590   7.269   5.908 -0.3550 -0.1523  0.4205
   92MOL    C9733039   3.691   7.320   5.826  0.2564  0.1863 -0.1055
   92MOL    C9833040   3.804   7.388   5.909  0.8231 -0.0662 -0.7842
   92MOL    C9933041   3.882   7.287   5.990  0.2995 -0.3067  0.1506
   92MOL   H10033042   3.267   7.075   6.062 -0.0676  1.9524  0.0349
   92MOL   H10133043   3.320   7.090   5.897  2.2589 -1.2554 -0.6245
   92MOL   H10233044   3.452   7.273   6.111  0.7198  0.0676  1.0236
   92MOL   H10333045   3.737   7.239   5.769  0.0946  0.0228 -0.0059
   92MOL   H10433046   3.645   7.393   5.759 -1.4492 -3.2250 -2.8270
   92MOL   H10533047   3.878   7.428   5.841 -0.0027 -2.6513 -3.3127
   92MOL   H10633048   3.765   7.470   5.969  0.9965 -1.7494  1.7204
   92MOL   H10733049   3.978   7.323   6.027  0.1029  0.6710 -0.2744
   92MOL   H10833050   3.898   7.193   5.938  1.0563 -0.6552  0.9890
   92MOL   H10933051   3.819   7.274   6.078  0.8068  1.6619  0.8375
   92MOL   C11033052   3.263   7.336   6.062 -0.2113 -0.4024  0.1571
   92MOL   C11133053   3.219   7.310   6.211  0.0216 -0.0160 -0.1816
   92MOL   C11233054   3.320   7.362   6.311  0.5873 -0.1597  0.9370
   92MOL   O11333055   3.376   7.289   6.391  0.8609 -0.4498 -0.0133
   92MOL   O11433056   3.328   7.493   6.309  0.5362  0.2930 -0.0649
   92MOL   C11533057   3.408   7.560   6.409  0.4940 -0.1750  0.2296
   92MOL   C11633058   3.512   7.632   6.325 -0.1367 -0.4900 -0.8654
   92MOL   C11733059   3.590   7.548   6.230  0.4553 -0.5044 -0.2315
   92MOL   H11833060   3.181   7.312   5.993  1.5459 -0.4586 -1.9505
   92MOL   H11933061   3.290   7.441   6.049  0.4907 -0.5275  0.6081
   92MOL   H12033062   3.215   7.203   6.229 -3.0808  0.1058  0.1208
   92MOL   H12133063   3.346   7.629   6.467  0.6058  0.0781  0.0480
   92MOL   H12233064   3.459   7.502   6.486 -0.1132  3.2989  3.3920
   92MOL   H12333065   3.475   7.723   6.279 -3.2867 -1.3210 -0.1611
   92MOL   H12433066   3.586   7.654   6.401 -0.5917 -1.5968 -0.0754
   92MOL   H12533067   3.641   7.471   6.288 -0.7281 -0.0101  1.5068
   92MOL   H12633068   3.665   7.619   6.193 -0.9702  1.0253 -0.2184
   92MOL   H12733069   3.531   7.507   6.148  0.1991 -0.2192 -0.1930
   92MOL   C12833070   3.076   7.355   6.224 -0.0877 -0.6102  0.2528
   92MOL   C12933071   3.013   7.317   6.363  0.3433 -0.2515 -0.4023
   92MOL   C13033072   3.009   7.439   6.461  0.2406  0.2579  0.1458
   92MOL   O13133073   3.092   7.457   6.545  0.0453  0.2386  0.1839
   92MOL   O13233074   2.917   7.527   6.416  0.2222 -0.2094 -0.7613
   92MOL   C13333075   2.906   7.652   6.471  0.0813 -0.4068 -0.3231
   92MOL   C13433076   2.930   7.765   6.364 -0.0577  0.9299  0.0792
   92MOL   C13533077   3.057   7.751   6.284 -0.0758  0.6757 -0.3386
   92MOL   H13633078   3.024   7.301   6.145  0.7976 -1.6300  0.3541
   92MOL   H13733079   3.071   7.462   6.207  0.8757 -0.7790 -1.2141
   92MOL   H13833080   3.084   7.245   6.404  2.9961  0.4278 -3.5958
   92MOL   H13933081   2.809   7.673   6.516  0.3008 -1.2186  0.5565
   92MOL   H14033082   2.977   7.673   6.552  0.6040 -0.7939 -0.6764
   92MOL   H14133083   2.842   7.773   6.301  0.0670 -0.3204 -0.2817
   92MOL   H14233084   2.922   7.856   6.424 -0.6865  2.2468 -1.9824
   92MOL   H14333085   3.071   7.848   6.235  1.4219  2.0642  2.6707
   92MOL   H14433086   3.040   7.669   6.214 -2.1552  0.7726  0.0188
   92MOL   H14533087   3.149   7.741   6.341 -0.7052 -1.7849  0.2820
   92MOL   C14633088   2.878   7.246   6.352 -0.6852  0.2658 -0.3061
   92MOL   C14733089   2.869   7.103   6.415  0.2349 -0.2143  0.2228
   92MOL   C14833090   2.722   7.076   6.464  0.2021  0.1879  0.3295
   92MOL   O14933091   2.636   7.044   6.384 -0.3961 -0.2008 -0.9377
   92MOL   O15033092   2.704   7.090   6.595 -0.2672 -0.3024 -0.1661
   92MOL   C15133093   2.582   7.057   6.656 -0.1577  0.3481  0.3364
   92MOL   C15233094   2.610   6.948   6.761 -0.3052  0.3437  0.3718
   92MOL   C15333095   2.638   6.808   6.704 -0.2118  0.2594 -0.1857
   92MOL   H15433096   2.851   7.233   6.247 -1.1266  1.2565 -0.3262
   92MOL   H15533097   2.797   7.297   6.404 -1.1471  0.9364 -1.6536
   92MOL   H15633098   2.933   7.084   6.501  2.3036 -0.3731 -1.3121
   92MOL   H15733099   2.540   7.148   6.697 -1.2140 -0.7305  1.6995
   92MOL   H15833100   2.509   7.025   6.581 -0.1380  0.6146  0.2024
   92MOL   H15933101   2.691   6.978   6.827 -0.7535  1.5264  0.4053
   92MOL   H16033102   2.522   6.953   6.826 -1.1167 -0.7447 -0.6243
   92MOL   H16133103   2.559   6.784   6.633 -0.3967  3.5802 -1.1640
   92MOL   H16233104   2.645   6.737   6.787  0.6058  1.2089  0.5714
   92MOL   H16333105   2.735   6.790   6.659 -1.3356 -1.8744 -1.8626
   92MOL   C16433106   2.928   6.994   6.321  0.1271 -0.0236  0.9100
   92MOL   C16533107   3.006   6.873   6.376  0.0449 -0.2597  0.3549
   92MOL   C16633108   3.143   6.915   6.432  0.1502  0.3094 -0.5053
   92MOL   O16733109   3.245   6.862   6.393 -0.0047  0.0547 -0.4905
   92MOL   O16833110   3.147   6.999   6.530  0.0075  0.0470  0.0174
   92MOL   C16933111   3.263   7.044   6.598 -0.2404  0.0916 -0.1860
   92MOL   C17033112   3.243   7.034   6.749  0.2976 -0.3050  0.2061
   92MOL   C17133113   3.129   7.122   6.814 -1.0808 -0.7126  0.1580
   92MOL   H17233114   2.988   7.049   6.249  0.1816 -2.0080 -0.6026
   92MOL   H17333115   2.848   6.949   6.262  0.2790  3.6104 -2.2383
   92MOL   H17433116   3.031   6.800   6.300 -1.5995  0.5170 -0.9723
   92MOL   H17533117   3.358   6.999   6.570  0.5572  1.4222  0.2804
   92MOL   H17633118   3.280   7.152   6.588  2.9553 -0.3073  0.3656
   92MOL   H17733119   3.237   6.929   6.778 -0.0404 -1.5608 -4.0318
   92MOL   H17833120   3.335   7.073   6.793  0.4715 -0.3378 -0.1254
   92MOL   H17933121   3.034   7.093   6.772  0.7840 -2.8077 -2.7940
   92MOL   H18033122   3.156   7.225   6.792  2.1550 -0.7886  3.1510
   92MOL   H18133123   3.126   7.102   6.922  0.7847 -0.3998  0.2951
   92MOL   C18233124   2.925   6.793   6.480 -0.5908  0.1547 -0.1956
   92MOL   C18333125   2.945   6.642   6.488 -0.6545 -0.1258  0.0763
   92MOL   C18433126   2.887   6.580   6.369  0.8172 -0.2644  0.0326
   92MOL   O18533127   2.963   6.539   6.277 -0.2045  0.3301  0.1429
   92MOL   O18633128   2.755   6.570   6.367 -0.2094  0.4033 -0.3907
   92MOL   C18733129   2.696   6.532   6.248  0.0256 -0.4508 -0.2061
   92MOL   C18833130   2.644   6.656   6.168 -0.2414  0.2966  0.1366
   92MOL   C18933131   2.506   6.715   6.217 -0.0674 -0.2093  0.5400
   92MOL   H19033132   2.820   6.805   6.454 -1.2389 -2.1290  1.2107
   92MOL   H19133133   2.949   6.832   6.579  0.8811 -0.9668 -0.0834
   92MOL   H19233134   2.881   6.609   6.570  1.9970 -3.1779  1.0213
   92MOL   H19333135   2.756   6.476   6.176 -1.3301 -0.1979 -1.5675
   92MOL   H19433136   2.620   6.454   6.259 -0.3561 -0.0574 -0.0505
   92MOL   H19533137   2.714   6.739   6.170 -0.4385  0.5536 -2.4771
   92MOL   H19633138   2.615   6.628   6.067  0.0891 -1.1989  0.4480
   92MOL   H19733139   2.476   6.780   6.135  1.3078  0.8289  0.8256
   92MOL   H19833140   2.521   6.785   6.300  1.4274  0.2963 -0.1236
   92MOL   H19933141   2.438   6.631   6.229 -1.0880  0.5763  0.3100
   92MOL   C20033142   3.097   6.590   6.521 -0.2788  0.1379 -0.2828
   92MOL   C20133143   3.158   6.656   6.646  0.3273 -0.3611 -0.0921
   92MOL   C20233144   3.064   6.650   6.774  0.2863  0.1029  0.7064
   92MOL   O20333145   3.035   6.754   6.838 -0.4908 -0.4088 -0.6398
   92MOL   O20433146   3.023   6.528   6.805  0.6636 -0.1344  0.3476
   92MOL   C20533147   2.953   6.513   6.932 -1.1690  0.0187 -0.3075
   92MOL   C20633148   2.809   6.462   6.888 -0.6604 -0.1461 -0.3928
   92MOL   C20733149   2.711   6.427   7.005 -0.1494  0.0312 -0.4288
   92MOL   H20833150   3.165   6.616   6.440 -0.6492  0.3724 -0.5214
   92MOL   H20933151   3.098   6.484   6.547  1.2831  0.7266  2.3126
   92MOL   H21033152   3.170   6.761   6.621 -1.2045 -0.0833  0.3087
   92MOL   H21133153   3.001   6.427   6.979  0.1172 -0.0877 -1.7723
   92MOL   H21233154   2.962   6.593   7.006  2.8846 -2.4412  2.0531
   92MOL   H21333155   2.768   6.543   6.827 -1.0963 -0.1530 -0.1141
   92MOL   H21433156   2.801   6.374   6.824  0.5217 -0.4784 -0.1016
   92MOL   H21533157   2.710   6.499   7.087  1.8843  0.2362 -0.5610
   92MOL   H21633158   2.738   6.336   7.058 -0.2591  1.0336  1.3743
   92MOL   H21733159   2.610   6.412   6.966  0.3244  0.6877 -1.9577
   92MOL   C21833160   3.303   6.597   6.677  0.2468  0.3572  0.5794
   92MOL   C21933161   3.320   6.443   6.718  0.8417 -0.1267  0.0106
   92MOL   C22033162   3.336   6.344   6.601  0.1501 -0.3321 -0.0565
   92MOL   O22133163   3.436   6.354   6.526  0.7142 -0.1738 -0.6626
   92MOL   O22233164   3.251   6.243   6.604  0.2113  0.4425  0.1687
   92MOL   C22333165   3.269   6.124   6.519  0.5921 -0.8688  0.2606
   92MOL   C22433166   3.198   6.134   6.372  0.0265  0.4099  0.3221
   92MOL   C22533167   3.275   6.231   6.276 -0.8893 -0.0454 -0.3294
   92MOL   H22633168   3.345   6.662   6.753  0.2178  0.6348  0.3571
   92MOL   H22733169   3.360   6.610   6.585 -1.7823 -1.5072 -1.0212
   92MOL   H22833170   3.237   6.412   6.781  0.4032  0.7721 -0.1246
   92MOL   H22933171   3.375   6.095   6.520  0.3293 -1.8144  1.4971
   92MOL   H23033172   3.217   6.044   6.571  0.6682 -0.3115  1.1967
   92MOL   H23133173   3.197   6.035   6.325 -0.2589  1.1805 -1.3468
   92MOL   H23233174   3.097   6.171   6.385  0.7378  2.7511 -0.6400
   92MOL   H23333175   3.249   6.210   6.172  0.0379  1.5025 -0.8909
   92MOL   H23433176   3.383   6.212   6.275 -1.1261 -1.5003 -0.2379
   92MOL   H23533177   3.260   6.336   6.298  0.6756  0.0817  0.2317
   92MOL   C23633178   3.435   6.426   6.823 -0.2249  0.1638  0.5039
   92MOL   C23733179   3.479   6.281   6.865 -0.3797  0.3250  0.0518
   92MOL   C23833180   3.603   6.296   6.945 -0.5548 -0.4168  0.6797
   92MOL   O23933181   3.631   6.396   7.010 -0.0517 -0.3274  0.4345
   92MOL   O24033182   3.685   6.190   6.932  0.2049  0.1690 -0.1039
   92MOL   C24133183   3.815   6.190   6.981 -0.0747 -0.7604 -0.2726
   92MOL   C24233184   3.935   6.146   6.892 -0.1666  0.2509 -0.3484
   92MOL   C24333185   3.921   6.003   6.836  0.4686  0.3164 -0.0163
   92MOL   H24433186   3.388   6.468   6.912 -0.7905 -2.1397  1.3096
   92MOL   H24533187   3.520   6.493   6.808  0.7473 -0.7242  1.9439
   92MOL   H24633188   3.511   6.212   6.788 -1.4555 -1.4590  1.1694
   92MOL   H24733189   3.839   6.292   7.010 -3.5887  0.2202 -0.5169
   92MOL   H24833190   3.806   6.137   7.076  1.7349 -2.2733 -0.9179
   92MOL   H24933191   3.946   6.209   6.804 -0.4371 -0.3374 -0.8070
   92MOL   H25033192   4.030   6.154   6.945  0.1233  0.5421 -0.9062
   92MOL   H25133193   3.904   5.929   6.914  0.0922  1.4322  0.9920
   92MOL   H25233194   4.007   5.975   6.776  0.8805 -0.9136  1.1483
   92MOL   H25333195   3.831   5.997   6.774  0.0250 -3.5398  0.8623
   92MOL   C25433196   3.374   6.206   6.954 -0.3603 -0.1901 -1.0652
   92MOL   C25533197   3.315   6.077   6.890 -0.1990 -0.3409 -0.7720
   92MOL   C25633198   3.424   5.978   6.858 -0.6931  0.0243  0.0263
   92MOL   O25733199   3.429   5.930   6.743 -0.0540  0.4769 -0.3104
   92MOL   O25833200   3.506   5.952   6.960 -0.1820 -0.0006  0.6205
   92MOL   C25933201   3.613   5.861   6.946 -0.8735 -0.0561  0.0371
   92MOL   C26033202   3.575   5.711   6.962 -0.1261  0.0901  0.3092
   92MOL   C26133203   3.515   5.674   7.097  0.4437 -0.3742  0.3716
   92MOL   H26233204   3.293   6.277   6.971  1.9498  2.1301  0.7150
   92MOL   H26333205   3.397   6.188   7.059 -0.9846  0.8009 -0.7465
   92MOL   H26433206   3.256   6.096   6.800 -1.0857 -0.8906 -0.3114
   92MOL   H26533207   3.655   5.883   6.848 -0.2101 -0.1188  0.3005
   92MOL   H26633208   3.687   5.884   7.023 -0.2165 -3.7987  0.6474
   92MOL   H26733209   3.497   5.697   6.888 -0.5155  1.5869  0.4219
   92MOL   H26833210   3.654   5.639   6.941 -0.4431 -0.4700  1.0443
   92MOL   H26933211   3.430   5.735   7.128 -0.9036 -1.1521 -1.7625
   92MOL   H27033212   3.590   5.685   7.177 -0.5174  1.3475  1.0700
   92MOL   H27133213   3.465   5.578   7.099 -0.7835  0.2717  1.4137
   92MOL   C27233214   3.222   6.010   6.994  0.1324 -0.0669  0.3247
   92MOL   C27333215   3.078   6.077   7.020 -0.2328  0.3282 -0.3910
   92MOL   C27433216   2.983   6.060   6.905  0.0095 -0.2709 -0.4187
   92MOL   O27533217   2.959   6.147   6.820 -0.3194  0.3875 -0.1054
   92MOL   O27633218   2.930   5.935   6.895 -0.3269  0.0304  0.9238
   92MOL   C27733219   2.858   5.902   6.780 -0.0983  0.4075 -0.4329
   92MOL   C27833220   2.772   5.780   6.811  0.6325  0.7708 -0.0193
   92MOL   C27933221   2.618   5.805   6.808 -0.4352  0.4654 -0.0650
   92MOL   H28033222   3.272   6.000   7.090  1.5971  1.2979 -0.2696
   92MOL   H28133223   3.209   5.904   6.976 -1.9078 -0.2431  2.5421
   92MOL   H28233224   3.092   6.185   7.030  0.2989  0.0354  2.7851
   92MOL   H28333225   2.795   5.980   6.736  1.1278  1.5946 -0.1020
   92MOL   H28433226   2.927   5.885   6.697 -0.5459 -0.2200 -0.6837
   92MOL   H28533227   2.792   5.712   6.727  2.5090  1.9104 -0.5213
   92MOL   H28633228   2.815   5.731   6.899 -0.8037 -2.4604 -1.0189
   92MOL   H28733229   2.585   5.872   6.888  0.4457  0.6862  0.1209
   92MOL   H28833230   2.563   5.713   6.822  0.9710 -0.2965  0.5094
   92MOL   H28933231   2.588   5.843   6.710 -0.0352  1.1329  0.0625
   92MOL   C29033232   3.026   6.027   7.158 -0.0375  0.3297  0.0420
   92MOL   C29133233   3.073   6.128   7.262  0.0380  0.5542 -0.1826
   92MOL   C29233234   2.969   6.238   7.286  0.1731  0.8361 -0.4812
   92MOL   O29333235   2.853   6.212   7.324 -0.0433 -0.3740 -0.4249
   92MOL   O29433236   3.028   6.363   7.272  0.4545  0.4056  0.0226
   92MOL   C29533237   2.950   6.477   7.299  0.1362 -0.5123 -0.4653
   92MOL   C29633238   2.965   6.517   7.447 -0.6558 -0.6700 -0.2312
   92MOL   C29733239   3.104   6.548   7.488 -0.5891 -0.7017 -0.5660
   92MOL   H29833240   3.062   5.925   7.167 -0.0350  0.2346 -1.0178
   92MOL   H29933241   2.918   6.015   7.168 -0.0740 -2.6586 -3.0396
   92MOL   H30033242   3.165   6.167   7.217  0.7736 -1.1323 -0.1875
   92MOL   H30133243   2.994   6.557   7.240 -0.0607  0.5929  0.8712
   92MOL   H30233244   2.844   6.464   7.278 -0.2865  0.6434  0.8764
   92MOL   H30333245   2.902   6.605   7.461 -1.2751 -1.0172 -0.8182
   92MOL   H30433246   2.930   6.446   7.521 -0.8498 -1.0875 -0.7261
   92MOL   H30533247   3.172   6.464   7.499 -1.6691 -1.4810  0.3582
   92MOL   H30633248   3.107   6.604   7.582  0.8273 -2.4776  0.4550
   92MOL   H30733249   3.144   6.624   7.421 -0.1901  1.7122  2.3310
   92MOL   C30833250   3.103   6.048   7.388  0.1970 -0.1686  0.1485
   92MOL   C30933251   3.177   6.113   7.503 -0.2462 -0.1700  0.8280
   92MOL   C31033252   3.110   6.086   7.638  0.7588 -0.0241  0.3969
   92MOL   O31133253   3.114   5.977   7.691  0.5848 -0.2898 -0.0882
   92MOL   O31233254   3.046   6.192   7.689  0.2878 -0.3340 -0.1278
   92MOL   C31333255   3.002   6.192   7.821 -0.6800  0.0184  0.4635
   92MOL   C31433256   2.844   6.213   7.830 -0.2521  0.6088  0.0308
   92MOL   C31533257   2.789   6.094   7.744 -0.3476 -0.7365  0.3842
   92MOL   H31633258   3.166   5.966   7.354 -0.3410 -0.2875 -0.5776
   92MOL   H31733259   3.010   6.007   7.426  0.0612 -1.6051 -1.6855
   92MOL   H31833260   3.181   6.220   7.486 -1.2331 -0.2558  0.0066
   92MOL   H31933261   3.037   6.109   0.001 -0.2743 -0.0194  0.1793
   92MOL   H32033262   3.054   6.280   7.858 -1.8148  0.0877  1.9239
   92MOL   H32133263   2.811   6.211   0.054 -1.0275  2.3895 -0.1585
   92MOL   H32233264   2.821   6.315   7.798  0.9570  0.5632 -1.0042
   92MOL   H32333265   2.839   6.002   7.772 -0.0565 -0.6983 -0.0032
   92MOL   H32433266   2.681   6.083   7.757 -1.3035  4.2467 -1.8309
   92MOL   H32533267   2.797   6.108   7.636  0.6653  0.2820  0.5797
   92MOL   C32633268   3.327   6.066   7.516 -0.5572  0.1156 -0.0998
   92MOL   C32733269   3.416   6.121   7.395 -0.2528  0.4294  0.2770
   92MOL   C32833270   3.423   6.272   7.375  0.3659  0.2619 -0.1630
   92MOL   O32933271   3.399   6.317   7.258  0.3038  0.1204 -0.4826
   92MOL   O33033272   3.452   6.345   7.485 -0.0691  0.0586 -0.1025
   92MOL   C33133273   3.498   6.478   7.459  0.3418  0.2974  0.3875
   92MOL   C33233274   3.648   6.485   7.471  0.0722 -0.7606  0.0375
   92MOL   C33333275   3.679   6.479   7.624 -0.6006 -0.5462  0.1367
   92MOL   H33433276   3.331   5.957   7.517 -0.9388  0.0937 -0.5946
   92MOL   H33533277   3.375   6.093   7.610 -0.3929 -1.5351  0.2956
   92MOL   H33633278   3.361   6.087   7.307 -2.9137  1.8861  1.3356
   92MOL   H33733279   3.478   6.509   7.357 -0.5636 -1.0797  0.1311
   92MOL   H33833280   3.459   6.546   7.535 -0.3071  1.3002 -0.8250
   92MOL   H33933281   3.689   6.401   7.414  1.3006 -0.6451  0.7334
   92MOL   H34033282   3.697   6.568   7.421 -1.4519 -0.3186 -0.7425
   92MOL   H34133283   3.772   6.431   7.654 -1.4054 -1.0785  1.8387
   92MOL   H34233284   3.676   6.581   7.664 -0.1987 -0.2992 -0.4542
   92MOL   H34333285   3.606   6.418   7.675 -1.3303 -0.0034 -0.2556
   92MOL   C34433286   3.554   6.054   7.398 -0.5236 -0.0591  0.4860
   92MOL   C34533287   3.641   6.043   7.279  0.1813  0.2115 -0.3309
   92MOL   C34633288   3.768   5.960   7.310  0.0123  0.2204 -0.3081
   92MOL   O34733289   3.804   5.856   7.252 -0.7768  0.3093  0.1540
   92MOL   O34833290   3.832   6.029   7.405 -0.5107 -0.2180 -0.2826
   92MOL   C34933291   3.958   5.975   7.457 -0.6051 -0.6313  0.4599
   92MOL   C35033292   4.064   6.083   7.459  0.3578 -0.2956 -0.5865
   92MOL   C35133293   4.112   6.120   7.317  0.2559  0.2600  0.6207
   92MOL   H35233294   3.546   5.957   7.446 -0.9877 -0.2818 -0.0223
   92MOL   H35333295   3.603   6.116   7.473  2.1153  0.2928 -1.4409
   92MOL   H35433296   3.675   6.142   7.251  2.2375 -0.9298 -2.0701
   92MOL   H35533297   3.950   5.934   7.558 -1.4452  1.4250  1.2641
   92MOL   H35633298   4.000   5.897   7.393  2.4328 -0.4091  2.1394
   92MOL   H35733299   4.017   6.166   7.512 -0.4930 -1.2023  0.1006
   92MOL   H35833300   4.143   6.044   7.523 -3.2376 -1.4894  3.4009
   92MOL   H35933301   4.145   6.034   7.257  0.1079  0.8426 -0.3102
   92MOL   H36033302   4.041   6.171   7.252  1.7227  1.2876 -0.2100
   92MOL   H36133303   4.210   6.167   7.324  1.6351 -2.3689 -0.1187
   92MOL   H36233304   3.581   5.994   7.202  1.6364 -1.0277 -0.7097
   93MOL     C133305   1.351   2.034   6.980 -0.1246  0.3598 -0.1921
   93MOL     C233306   1.214   2.021   6.915 -0.4604 -0.9553 -0.5371
   93MOL     C333307   1.167   1.873   6.890  0.0880 -0.6433 -0.2974
   93MOL     O433308   1.221   1.782   6.954 -0.4093  0.0396  0.0512
   93MOL     O533309   1.080   1.857   6.789 -0.1128  0.6344 -0.1620
   93MOL     C633310   1.009   1.739   6.778  0.2286 -0.6703  0.7456
   93MOL     C733311   1.058   1.637   6.674 -0.3704  0.0862  0.3065
   93MOL     C833312   1.046   1.684   6.526 -0.1841  1.0617  0.2262
   93MOL     H933313   1.419   1.982   6.913  0.7439 -0.2555  1.1338
   93MOL    H1033314   1.375   2.138   7.001  1.5039  0.1058 -0.7416
   93MOL    H1133315   1.195   2.079   6.825 -0.6068 -1.4719 -0.8422
   93MOL    H1233316   1.013   1.686   6.874  1.8899 -1.9684 -0.0138
   93MOL    H1333317   0.905   1.760   6.754  0.9104  1.4940 -0.3893
   93MOL    H1433318   1.160   1.600   6.687 -0.5626 -0.6144 -0.1607
   93MOL    H1533319   0.997   1.546   6.680  0.6547 -0.6153  0.2186
   93MOL    H1633320   0.948   1.722   6.497 -1.3587 -2.0097  0.0179
   93MOL    H1733321   1.120   1.762   6.507 -0.9186  1.1793 -2.2589
   93MOL    H1833322   1.083   1.606   6.459  1.5855  1.0577  1.1582
   93MOL    H1933323   1.349   1.974   7.071  0.6685  1.6579  0.6997
   93MOL    C2033324   1.105   2.079   7.015 -0.3817  0.0723  0.2754
   93MOL    C2133325   0.978   2.137   6.956  0.2295 -0.0713  0.3246
   93MOL    C2233326   0.881   2.168   7.070  0.3027  0.3651  0.1540
   93MOL    O2333327   0.791   2.093   7.098 -0.2728  0.0960 -0.0637
   93MOL    O2433328   0.908   2.287   7.133  0.4673  0.0279  0.6785
   93MOL    C2533329   0.828   2.323   7.247 -0.1310 -0.2151 -0.1935
   93MOL    C2633330   0.871   2.456   7.314 -0.6742 -0.8510 -0.2907
   93MOL    C2733331   0.772   2.501   7.417 -0.0802  0.4604 -0.3318
   93MOL    H2833332   1.153   2.156   7.075  0.2600 -0.0138 -0.1094
   93MOL    H2933333   1.084   1.994   7.080 -1.6773 -0.8741 -1.3366
   93MOL    H3033334   0.936   2.057   6.895  0.6458  0.0076 -0.0700
   93MOL    H3133335   0.726   2.312   7.210  0.4412 -0.8378 -1.5939
   93MOL    H3233336   0.836   2.242   7.320  1.8506  0.0118 -0.1325
   93MOL    H3333337   0.976   2.448   7.341 -0.0338  3.7632 -1.0791
   93MOL    H3433338   0.873   2.529   7.233 -0.8925  0.5464  0.9562
   93MOL    H3533339   0.739   2.421   7.484 -0.5934  0.5712 -0.4453
   93MOL    H3633340   0.678   2.531   7.368  0.5187  1.5548 -0.8271
   93MOL    H3733341   0.805   2.588   7.472 -0.6228  1.1128 -1.0210
   93MOL    C3833342   0.996   2.253   6.857 -0.8131  0.4262 -0.0805
   93MOL    C3933343   0.953   2.214   6.710  0.4171 -0.7359  0.2431
   93MOL    C4033344   0.800   2.231   6.702  0.1174  0.3842  0.1013
   93MOL    O4133345   0.751   2.341   6.720  0.2982 -0.0189  0.2296
   93MOL    O4233346   0.745   2.111   6.687 -0.6060  0.5371  0.7214
   93MOL    C4333347   0.605   2.102   6.699 -1.0122 -0.3829 -0.0347
   93MOL    C4433348   0.573   2.073   6.849 -0.1060 -0.3961  0.0982
   93MOL    C4533349   0.427   2.064   6.885  0.5807 -0.0609  0.0874
   93MOL    H4633350   1.101   2.284   6.860 -0.5810 -0.3357  0.0073
   93MOL    H4733351   0.950   2.344   6.895 -1.3580  1.1101 -2.3079
   93MOL    H4833352   0.977   2.115   6.673 -0.0358 -0.2976 -1.2834
   93MOL    H4933353   0.544   2.181   6.656 -1.0575  0.0151  0.7464
   93MOL    H5033354   0.567   2.020   6.638 -0.4994 -0.6771  0.0452
   93MOL    H5133355   0.629   1.986   6.882  0.9442 -0.0964 -0.8860
   93MOL    H5233356   0.615   2.152   6.912 -0.6827 -0.2348  0.2827
   93MOL    H5333357   0.378   2.161   6.874  1.3817  0.7753  3.5211
   93MOL    H5433358   0.426   2.043   6.991  1.0792 -0.2253  0.0608
   93MOL    H5533359   0.376   1.979   6.839  0.2442 -1.1755  2.4720
   93MOL    C5633360   1.014   2.318   6.622  0.3741 -0.1535  0.5709
   93MOL    C5733361   1.164   2.283   6.585  0.5175  0.3368 -0.7846
   93MOL    C5833362   1.170   2.175   6.484 -0.3747  0.1289  0.0262
   93MOL    O5933363   1.210   2.067   6.526 -0.1644  1.0373  0.1270
   93MOL    O6033364   1.127   2.207   6.362 -0.0083 -0.4032  0.2822
   93MOL    C6133365   1.083   2.106   6.272  0.6722 -0.1396  0.4241
   93MOL    C6233366   0.935   2.097   6.299 -0.4253 -0.0954  0.6129
   93MOL    C6333367   0.864   2.000   6.215 -0.5166  0.3690 -0.1631
   93MOL    H6433368   1.016   2.417   6.670 -0.6761  0.1961 -0.0863
   93MOL    H6533369   0.953   2.333   6.533  1.5748  0.7060 -0.1284
   93MOL    H6633370   1.222   2.252   6.672  0.5011  1.1935 -0.4679
   93MOL    H6733371   1.097   2.134   6.167  0.1369 -0.6350  0.2159
   93MOL    H6833372   1.129   2.008   6.284  0.2683 -0.6965 -2.2452
   93MOL    H6933373   0.911   2.075   6.403 -1.7373 -2.0489 -0.0743
   93MOL    H7033374   0.896   2.198   6.287  0.3997  0.1740  0.1677
   93MOL    H7133375   0.894   1.897   6.239  0.1591  0.5278 -0.3243
   93MOL    H7233376   0.872   2.006   6.107 -2.3847 -1.2061 -0.4135
   93MOL    H7333377   0.756   2.002   6.227 -0.6377  1.8957 -1.4401
   93MOL    C7433378   1.225   2.410   6.521 -0.2108  0.0624 -0.0529
   93MOL    C7533379   1.268   2.512   6.631  0.6535  0.3320  0.3890
   93MOL    C7633380   1.388   2.459   6.709 -0.3002 -0.1756  0.7613
   93MOL    O7733381   1.386   2.429   6.825  0.5180  0.4248  0.0140
   93MOL    O7833382   1.492   2.442   6.632 -0.3465 -0.0774 -0.6877
   93MOL    C7933383   1.620   2.420   6.698 -0.7606 -0.4087 -0.2139
   93MOL    C8033384   1.694   2.291   6.646  0.0588 -0.5010 -0.1717
   93MOL    C8133385   1.621   2.162   6.680 -0.2581  0.5891 -0.2596
   93MOL    H8233386   1.140   2.452   6.469 -0.7322  0.3347  0.9954
   93MOL    H8333387   1.299   2.393   6.443  0.4144 -0.9509  0.7370
   93MOL    H8433388   1.192   2.514   6.709  0.6368 -1.5442  0.4557
   93MOL    H8533389   1.680   2.509   6.683 -0.1719 -0.6047  0.9322
   93MOL    H8633390   1.606   2.417   6.806  0.8186  2.2851  0.0996
   93MOL    H8733391   1.709   2.297   6.538 -0.8248 -2.7389 -0.4653
   93MOL    H8833392   1.793   2.291   6.691 -0.2515 -0.6245  0.5176
   93MOL    H8933393   1.585   2.177   6.782 -0.6750  0.9460 -0.4587
   93MOL    H9033394   1.691   2.079   6.688  2.0987  2.2039 -3.1918
   93MOL    H9133395   1.536   2.138   6.617 -0.3761  3.1265 -1.1267
   93MOL    C9233396   1.292   2.657   6.585  0.3572  0.3446  0.1269
   93MOL    C9333397   1.267   2.770   6.693  0.2233 -0.6278  0.5702
   93MOL    C9433398   1.133   2.751   6.775  0.3459  0.6760  0.6750
   93MOL    O9533399   1.133   2.722   6.891 -0.1319 -0.3954  0.9766
   93MOL    O9633400   1.024   2.778   6.699  0.0225  0.8803  0.1883
   93MOL    C9733401   0.898   2.793   6.760 -0.3946  0.1374  0.7444
   93MOL    C9833402   0.837   2.656   6.804 -0.1759 -0.1099 -0.0726
   93MOL    C9933403   0.692   2.663   6.824  0.4646  0.2803  0.4544
   93MOL   H10033404   1.217   2.680   6.510 -0.8347 -1.6289  0.6651
   93MOL   H10133405   1.391   2.671   6.540 -0.7011  1.0966 -2.0207
   93MOL   H10233406   1.254   2.858   6.629 -2.0391 -1.6286 -0.3939
   93MOL   H10333407   0.905   2.853   6.851 -1.7743  0.2847  0.7643
   93MOL   H10433408   0.837   2.847   6.688 -3.0287  0.3826  3.1277
   93MOL   H10533409   0.860   2.579   6.731  0.4927  0.3398 -0.3426
   93MOL   H10633410   0.875   2.631   6.903 -0.6918 -0.3564  0.0642
   93MOL   H10733411   0.632   2.644   6.735  1.7525  1.4167 -0.6720
   93MOL   H10833412   0.670   2.761   6.868  0.5372  0.0716  0.9645
   93MOL   H10933413   0.662   2.589   6.899  3.8020 -2.5821 -0.9440
   93MOL   C11033414   1.389   2.797   6.778 -0.0753  0.4668  0.1732
   93MOL   C11133415   1.394   2.943   6.833  0.6271 -0.4764 -0.1234
   93MOL   C11233416   1.473   2.946   6.958  0.2063 -0.1572 -0.6844
   93MOL   O11333417   1.422   2.942   7.072  0.0849  0.3461  0.7569
   93MOL   O11433418   1.608   2.936   6.941  0.1169 -0.4019  0.0508
   93MOL   C11533419   1.682   2.954   7.060  0.4425 -0.5974  0.1983
   93MOL   C11633420   1.694   3.102   7.091  0.5746  0.3076 -0.8614
   93MOL   C11733421   1.789   3.164   7.001  0.2471 -0.1410 -0.3419
   93MOL   H11833422   1.489   2.770   6.743 -0.6657 -0.1319 -1.0834
   93MOL   H11933423   1.379   2.731   6.864 -1.4825  0.4486  0.0004
   93MOL   H12033424   1.291   2.977   6.851  0.8467 -1.4341  3.2525
   93MOL   H12133425   1.643   2.911   7.152 -1.5117  0.3979 -0.1458
   93MOL   H12233426   1.776   2.901   7.043  1.2563  0.9062 -0.0247
   93MOL   H12333427   1.597   3.153   7.082 -0.2523 -1.3724 -1.6465
   93MOL   H12433428   1.734   3.111   7.192  0.1282  1.4803 -0.7831
   93MOL   H12533429   1.752   3.158   6.898  1.6888  1.2906 -0.9759
   93MOL   H12633430   1.887   3.120   6.985 -0.1570 -0.8995 -0.7721
   93MOL   H12733431   1.814   3.267   7.027  1.7341 -1.3481  3.2634
   93MOL   C12833432   1.453   3.037   6.730  0.0123  0.4742 -0.2833
   93MOL   C12933433   1.468   3.190   6.761 -0.8009  0.7940 -0.4150
   93MOL   C13033434   1.564   3.251   6.652 -0.2334 -0.1458  0.5617
   93MOL   O13133435   1.683   3.251   6.668 -0.6626  0.2268  0.0113
   93MOL   O13233436   1.507   3.298   6.536  0.5309 -0.5787  0.4878
   93MOL   C13333437   1.586   3.366   6.439 -0.1414 -0.3217 -0.0810
   93MOL   C13433438   1.503   3.456   6.346 -0.4063  0.9129  0.0016
   93MOL   C13533439   1.437   3.583   6.402 -0.4568 -0.1536 -0.1292
   93MOL   H13633440   1.407   3.033   6.632  0.3070  0.0023 -0.4038
   93MOL   H13733441   1.555   3.003   6.708 -0.1999 -0.6758  0.4873
   93MOL   H13833442   1.527   3.191   6.852 -1.3261 -2.3564  0.0095
   93MOL   H13933443   1.657   3.431   6.490  0.9741 -0.0951 -1.8892
   93MOL   H14033444   1.632   3.289   6.378 -1.9255 -0.0201 -1.8608
   93MOL   H14133445   1.565   3.492   6.264 -1.6131  0.9493 -0.8995
   93MOL   H14233446   1.423   3.394   6.306  0.9809 -0.0810 -1.2964
   93MOL   H14333447   1.370   3.561   6.485  1.3669  0.8378  1.6666
   93MOL   H14433448   1.384   3.643   6.328  0.1340 -3.7115 -3.5649
   93MOL   H14533449   1.518   3.645   6.441  0.5623 -1.5179 -0.0400
   93MOL   C14633450   1.343   3.278   6.784  0.6796 -0.2842  0.2431
   93MOL   C14733451   1.308   3.317   6.926 -0.1566  0.2945  0.2628
   93MOL   C14833452   1.421   3.385   7.003  0.7812 -0.3936 -0.0887
   93MOL   O14933453   1.504   3.462   6.947  0.2478  0.1265 -0.1757
   93MOL   O15033454   1.419   3.359   7.130 -0.0224 -0.2626 -0.2385
   93MOL   C15133455   1.500   3.431   7.223 -0.4617  0.8129  0.2790
   93MOL   C15233456   1.408   3.528   7.306 -0.1367 -0.0038  0.1019
   93MOL   C15333457   1.301   3.446   7.373 -0.5079  0.1424  0.0767
   93MOL   H15433458   1.261   3.221   6.741  0.5368 -0.3149  0.5572
   93MOL   H15533459   1.356   3.370   6.727 -3.2891  0.1126 -0.1859
   93MOL   H15633460   1.295   3.232   6.993  1.8948 -1.4526 -1.4416
   93MOL   H15733461   1.551   3.362   7.290 -0.8329  1.2530  1.0134
   93MOL   H15833462   1.572   3.500   7.177 -1.4258  0.9196 -1.1136
   93MOL   H15933463   1.462   3.593   7.373 -1.1453 -0.3512  1.2642
   93MOL   H16033464   1.359   3.588   7.229 -0.4379  1.2460  1.2469
   93MOL   H16133465   1.348   3.376   7.442  0.5015  1.8098  1.1188
   93MOL   H16233466   1.235   3.382   7.313  0.3751 -0.8207  0.1167
   93MOL   H16333467   1.242   3.516   7.431  1.5044  1.3027  0.7599
   93MOL   C16433468   1.181   3.402   6.945  0.9382 -0.0929 -0.2693
   93MOL   C16533469   1.043   3.333   6.925 -0.2814 -0.1066 -0.0637
   93MOL   C16633470   0.997   3.267   7.059 -0.3730 -0.4520 -0.7755
   93MOL   O16733471   0.938   3.327   7.147 -0.4722 -0.0743  0.4289
   93MOL   O16833472   1.018   3.137   7.066  0.2327  0.2645  0.7329
   93MOL   C16933473   0.973   3.056   7.173 -0.2196  0.1914  0.2711
   93MOL   C17033474   1.032   2.923   7.143  0.2702 -0.1870  0.5573
   93MOL   C17133475   1.000   2.823   7.255 -1.1056 -0.3523  0.0533
   93MOL   H17233476   1.189   3.494   6.888 -0.3289 -0.4452 -1.0409
   93MOL   H17333477   1.191   3.444   7.045  2.4757  2.8223 -1.6160
   93MOL   H17433478   1.058   3.250   6.856 -0.9288 -0.8298  0.6556
   93MOL   H17533479   1.032   3.100   7.253 -2.4081 -1.0121  2.6049
   93MOL   H17633480   0.864   3.054   7.178 -0.2336 -1.2809 -0.2548
   93MOL   H17733481   0.991   2.895   7.045 -0.1099  1.0965  0.3476
   93MOL   H17833482   1.140   2.924   7.130  0.2390  2.1358  0.3251
   93MOL   H17933483   0.891   2.814   7.249 -1.6265  4.3652  0.0264
   93MOL   H18033484   1.038   2.855   7.352 -1.0441  1.0730 -0.4196
   93MOL   H18133485   1.049   2.729   7.231  1.2237  0.7911  0.2619
   93MOL   C18233486   0.930   3.430   6.869  0.4778 -1.0783 -0.2974
   93MOL   C18333487   0.874   3.395   6.725  0.1546  0.1548 -1.0324
   93MOL   C18433488   0.825   3.252   6.723 -0.1534 -0.1050 -0.1835
   93MOL   O18533489   0.895   3.160   6.665 -0.0992 -0.2011  0.1097
   93MOL   O18633490   0.719   3.223   6.814 -0.0044  0.3789  0.2023
   93MOL   C18733491   0.660   3.101   6.845  0.0546 -1.1073  0.6729
   93MOL   C18833492   0.555   3.118   6.953 -0.8009  0.6765  0.4907
   93MOL   C18933493   0.440   3.208   6.915  0.2638  0.3185 -0.5486
   93MOL   H19033494   0.965   3.534   6.870  0.5120 -1.0804 -1.2065
   93MOL   H19133495   0.841   3.424   6.933 -0.2098 -0.2842 -1.1503
   93MOL   H19233496   0.960   3.416   6.661  0.3166 -1.7159 -1.4829
   93MOL   H19333497   0.624   3.061   6.750 -1.5156  2.9554 -0.5365
   93MOL   H19433498   0.738   3.035   6.883 -0.8666 -2.8798 -0.4741
   93MOL   H19533499   0.502   3.024   6.964  0.2427  0.2187  1.6860
   93MOL   H19633500   0.598   3.154   7.046  0.4609 -0.8100  0.4995
   93MOL   H19733501   0.386   3.165   6.831 -0.6574 -0.1422  0.2708
   93MOL   H19833502   0.467   3.314   6.914 -2.1930  0.9863  0.9815
   93MOL   H19933503   0.370   3.193   6.997 -0.7876  2.0416 -1.1104
   93MOL   C20033504   0.756   3.492   6.688 -0.1284 -0.4237 -0.0049
   93MOL   C20133505   0.688   3.460   6.550 -0.2114  0.0785 -0.4141
   93MOL   C20233506   0.570   3.551   6.517 -0.6722 -0.9386  0.0702
   93MOL   O20333507   0.458   3.505   6.542  0.1673  0.3889 -0.4981
   93MOL   O20433508   0.606   3.670   6.468 -0.0423 -0.1585  0.0971
   93MOL   C20533509   0.508   3.753   6.425  0.3889 -0.4939 -0.2302
   93MOL   C20633510   0.541   3.810   6.286  0.4433  1.1647  0.2980
   93MOL   C20733511   0.452   3.925   6.242 -0.4767 -0.2341  0.7647
   93MOL   H20833512   0.793   3.593   6.671  1.5278 -1.3452 -2.1081
   93MOL   H20933513   0.680   3.492   6.766  0.2030 -0.2518  0.3171
   93MOL   H21033514   0.640   3.363   6.557  1.3085 -0.8205 -1.9244
   93MOL   H21133515   0.410   3.706   6.414 -0.6054  0.8262  2.5657
   93MOL   H21233516   0.500   3.816   6.513 -1.3277 -1.0406  0.0230
   93MOL   H21333517   0.641   3.853   6.298  0.5873  0.7480  0.5879
   93MOL   H21433518   0.566   3.741   6.206  1.3657  2.1614 -0.2987
   93MOL   H21533519   0.381   3.959   6.317 -1.3884  0.5522 -0.4398
   93MOL   H21633520   0.380   3.894   6.166 -0.8786  0.3268  0.9150
   93MOL   H21733521   0.511   4.011   6.212 -2.1914  0.2817 -1.2621
   93MOL   C21833522   0.789   3.446   6.430 -0.4603 -0.2463  0.2602
   93MOL   C21933523   0.727   3.400   6.300 -0.0742  0.5748 -0.2662
   93MOL   C22033524   0.812   3.453   6.188  0.8138 -0.1962 -0.1641
   93MOL   O22133525   0.756   3.544   6.122 -0.0699  0.1469 -0.7182
   93MOL   O22233526   0.934   3.397   6.175 -0.1304 -0.0112 -0.3711
   93MOL   C22333527   1.018   3.444   6.068  0.0773 -0.0116  0.0414
   93MOL   C22433528   1.152   3.496   6.118  0.3793  0.1406  0.4915
   93MOL   C22533529   1.251   3.474   6.015 -0.4125  0.5448 -0.4064
   93MOL   H22633530   0.864   3.373   6.459  0.9227  0.6764 -0.8935
   93MOL   H22733531   0.844   3.538   6.415 -1.5409  0.2013 -1.0389
   93MOL   H22833532   0.630   3.447   6.287 -0.8813 -0.7901  0.7230
   93MOL   H22933533   1.040   3.363   5.999 -0.5387  0.5437 -0.8147
   93MOL   H23033534   0.963   3.516   6.008 -1.7712 -0.0386  1.6400
   93MOL   H23133535   1.129   3.601   6.136 -1.5077 -0.1193 -0.3946
   93MOL   H23233536   1.185   3.460   6.216 -1.6591  0.5483  1.3641
   93MOL   H23333537   1.347   3.520   6.036  0.0770 -1.2649  1.4118
   93MOL   H23433538   1.217   3.516   5.920 -1.3830  1.6253  0.4126
   93MOL   H23533539   1.285   3.370   6.018 -4.2520 -0.8114 -1.0011
   93MOL   C23633540   0.711   3.243   6.297  0.3102  0.4193  0.0522
   93MOL   C23733541   0.570   3.190   6.339 -0.3835  0.1704 -0.3521
   93MOL   C23833542   0.461   3.232   6.238  0.5013 -0.0470  0.0131
   93MOL   O23933543   0.348   3.277   6.271  0.4064 -0.0061 -0.5739
   93MOL   O24033544   0.499   3.201   6.113 -0.4919 -0.0059  0.7770
   93MOL   C24133545   0.416   3.215   5.989 -0.0750 -0.3743 -0.6136
   93MOL   C24233546   0.336   3.087   5.967  0.2494 -0.0904 -0.1586
   93MOL   C24333547   0.280   3.074   5.818 -0.2382  0.2943 -0.3104
   93MOL   H24433548   0.792   3.203   6.358 -0.8395 -0.3745  1.0730
   93MOL   H24533549   0.739   3.206   6.199  0.1957  0.1748  0.1123
   93MOL   H24633550   0.522   3.224   6.431  0.4024  1.1322 -0.2963
   93MOL   H24733551   0.347   3.295   6.014 -0.8593 -0.4692 -2.4274
   93MOL   H24833552   0.476   3.232   5.900  1.9245  1.6291  1.0735
   93MOL   H24933553   0.397   2.997   5.976 -0.6794 -0.7703 -0.6042
   93MOL   H25033554   0.260   3.088   6.045  1.3240 -0.7222  0.9181
   93MOL   H25133555   0.214   2.987   5.815  0.0719  0.0541 -0.2777
   93MOL   H25233556   0.364   3.056   5.751 -1.6492 -0.8217 -1.8441
   93MOL   H25333557   0.228   3.167   5.795 -0.1894  0.6450  0.9787
   93MOL   C25433558   0.581   3.029   6.339 -0.7575 -0.2561 -0.0317
   93MOL   C25533559   0.461   2.956   6.380  0.7716  0.0687 -0.6106
   93MOL   C25633560   0.471   2.809   6.329  1.0807  0.7993 -0.0371
   93MOL   O25733561   0.557   2.732   6.374  0.2911 -0.0707 -0.1494
   93MOL   O25833562   0.388   2.769   6.236 -0.2040 -0.2372  0.1016
   93MOL   C25933563   0.389   2.631   6.186  0.4470  0.3649  0.3504
   93MOL   C26033564   0.314   2.623   6.052  0.4948 -0.8277 -0.5675
   93MOL   C26133565   0.291   2.484   5.991  0.1602 -0.0153  0.1040
   93MOL   H26233566   0.649   2.999   6.420 -1.0719  0.9334  0.6848
   93MOL   H26333567   0.630   2.988   6.251  1.3603 -0.4130  1.1768
   93MOL   H26433568   0.371   2.997   6.333  1.5481  0.0769 -2.1301
   93MOL   H26533569   0.490   2.592   6.184  0.6368  0.8794 -0.0973
   93MOL   H26633570   0.320   2.579   6.254 -1.0164  2.3142  0.4119
   93MOL   H26733571   0.217   2.670   6.063  1.0668  0.4070 -0.6908
   93MOL   H26833572   0.366   2.670   5.968 -0.7535  0.0693 -0.8518
   93MOL   H26933573   0.198   2.441   6.028 -0.3158  0.1273 -0.9118
   93MOL   H27033574   0.375   2.422   6.023 -0.2096 -1.4380 -1.6309
   93MOL   H27133575   0.289   2.482   5.882 -0.0272 -2.5614  0.1285
   93MOL   C27233576   0.444   2.963   6.533 -0.0764 -0.1243 -0.2268
   93MOL   C27333577   0.298   2.928   6.574  0.7408  0.4277 -0.0356
   93MOL   C27433578   0.295   2.843   6.707  0.6323 -0.1806 -0.0867
   93MOL   O27533579   0.294   2.894   6.817  0.4246 -0.0801 -0.7103
   93MOL   O27633580   0.298   2.716   6.685  0.1308  0.0606  0.7587
   93MOL   C27733581   0.305   2.634   6.799 -0.5642 -0.4192 -0.0605
   93MOL   C27833582   0.287   2.497   6.738 -0.0641  0.0442 -0.4856
   93MOL   C27933583   0.374   2.446   6.614 -0.3644 -0.1365  0.1959
   93MOL   H28033584   0.472   3.063   6.566 -1.2325  0.1581 -0.0774
   93MOL   H28133585   0.518   2.900   6.582 -0.1174  0.1330  0.1645
   93MOL   H28233586   0.263   2.855   6.501  2.3274  0.6454 -1.0452
   93MOL   H28333587   0.407   2.651   6.834 -0.3062 -0.0873 -0.9643
   93MOL   H28433588   0.226   2.657   6.871  0.0422  0.2302  0.4048
   93MOL   H28533589   0.287   2.424   6.819 -0.5485  0.9787  0.3650
   93MOL   H28633590   0.184   2.499   6.702 -0.2590 -0.5075  0.0426
   93MOL   H28733591   0.376   2.518   6.533  1.8826  1.3753  1.5432
   93MOL   H28833592   0.337   2.348   6.583 -1.5333  0.4072 -0.1373
   93MOL   H28933593   0.472   2.418   6.655 -1.1526  0.3778  2.5412
   93MOL   C29033594   0.208   3.057   6.569  0.3264  0.5552 -0.3766
   93MOL   C29133595   0.065   3.023   6.515 -0.3810  0.6143  0.3388
   93MOL   C29233596   0.056   3.003   6.363 -0.3823 -0.2242  0.0507
   93MOL   O29333597   0.124   2.926   6.303  0.3716  0.0246 -0.1297
   93MOL   O29433598   7.835   3.072   6.310  0.3284  0.0680  0.1401
   93MOL   C29533599   7.806   3.064   6.165  0.3604  0.4135  0.2418
   93MOL   C29633600   7.653   3.034   6.152  0.6367  0.7014 -0.3180
   93MOL   C29733601   7.599   2.921   6.246  1.2793 -0.0172 -0.2043
   93MOL   H29833602   0.262   3.135   6.515 -0.0854  1.3443  0.3381
   93MOL   H29933603   0.192   3.085   6.673 -1.9368 -0.5250 -0.4083
   93MOL   H30033604   0.005   3.111   6.542  2.3421  2.8657 -0.7440
   93MOL   H30133605   7.838   3.151   6.109 -0.5938  1.1613  0.8543
   93MOL   H30233606   7.853   2.976   6.119  1.2061  1.3816 -0.7642
   93MOL   H30333607   7.598   3.124   6.179  0.2541 -0.4616  2.9304
   93MOL   H30433608   7.639   3.014   6.045 -0.0731  0.6142 -0.2110
   93MOL   H30533609   7.604   2.956   6.349 -1.1941  1.1280 -0.4249
   93MOL   H30633610   7.659   2.830   6.237 -0.9357 -1.6305  0.8153
   93MOL   H30733611   7.492   2.904   6.233  1.4253 -1.7191  0.6792
   93MOL   C30833612   7.868   2.904   6.586  0.0188 -0.5659  0.6428
   93MOL   C30933613   7.834   2.931   6.737  0.3354  0.0962 -0.1870
   93MOL   C31033614   7.726   3.044   6.761  0.4770 -0.2701 -0.5485
   93MOL   O31133615   7.649   3.075   6.673  0.5091 -0.5494  0.1735
   93MOL   O31233616   7.717   3.090   6.889 -0.2604  0.3719  0.1295
   93MOL   C31333617   7.610   3.173   6.934  0.1213  0.0116 -0.0523
   93MOL   C31433618   7.509   3.106   7.025  0.3563 -0.1491  0.1190
   93MOL   C31533619   7.407   3.212   7.068 -0.0337 -0.0710 -0.3435
   93MOL   H31633620   0.043   2.810   6.585 -0.7462 -1.0802  3.1320
   93MOL   H31733621   7.772   2.879   6.542 -1.9960  0.8185  4.0270
   93MOL   H31833622   0.040   2.976   6.785 -0.1736 -2.0195  2.8497
   93MOL   H31933623   7.662   3.246   6.996 -0.2863  0.4422 -0.2196
   93MOL   H32033624   7.559   3.232   6.858 -0.6710  0.6586  0.9668
   93MOL   H32133625   7.449   3.032   6.971  0.6009  1.2624 -2.1331
   93MOL   H32233626   7.556   3.050   7.106  0.7400  0.0068  0.0008
   93MOL   H32333627   7.447   3.295   7.125  0.0308  0.0655 -0.5884
   93MOL   H32433628   7.360   3.252   6.979  0.9731  0.4832 -0.6277
   93MOL   H32533629   7.325   3.159   7.117  1.3920  1.6052  4.1013
   93MOL   C32633630   7.786   2.803   6.817 -0.2321  0.2494  0.4854
   93MOL   C32733631   7.641   2.755   6.793  0.0596 -0.1289 -0.4527
   93MOL   C32833632   7.628   2.685   6.657 -0.1122  0.1279  0.4387
   93MOL   O32933633   7.528   2.699   6.589 -0.2005  0.4485  0.1721
   93MOL   O33033634   7.729   2.589   6.636  0.2698 -0.1673 -0.1696
   93MOL   C33133635   7.716   2.494   6.534 -0.5955 -0.0495  0.5420
   93MOL   C33233636   7.780   2.548   6.406 -0.0820  0.1338  0.3056
   93MOL   C33333637   0.048   2.532   6.407  0.7180  0.3201  0.0946
   93MOL   H33433638   7.798   2.833   6.920  0.3098  1.5420  0.0523
   93MOL   H33533639   7.856   2.721   6.800 -1.8369 -0.9788 -0.4046
   93MOL   H33633640   7.578   2.844   6.787  1.1839  0.8700  1.8533
   93MOL   H33733641   7.774   2.407   6.566 -1.5333 -0.9241 -0.1278
   93MOL   H33833642   7.610   2.477   6.517 -0.2053 -1.2859 -0.7211
   93MOL   H33933643   7.743   2.495   6.319  0.5316 -0.8622  0.6467
   93MOL   H34033644   7.742   2.649   6.387 -2.5881 -0.8581 -0.0286
   93MOL   H34133645   0.075   2.428   6.423 -0.7548  0.1880  1.8715
   93MOL   H34233646   0.088   2.569   6.312 -1.0841 -1.4328 -1.4023
   93MOL   H34333647   0.090   2.596   6.484  2.6810  0.5528 -1.1583
   93MOL   C34433648   7.604   2.653   6.912  1.1482 -0.3443  0.7197
   93MOL   C34533649   7.536   2.725   7.032  0.3294 -0.0792 -0.2520
   93MOL   C34633650   7.387   2.761   7.002  0.3247 -0.8157  0.5455
   93MOL   O34733651   7.324   2.844   7.068 -0.0747 -0.7036  0.1355
   93MOL   O34833652   7.330   2.677   6.914  0.3269 -0.2992  0.0902
   93MOL   C34933653   7.186   2.690   6.894  0.2134  0.0678 -0.5335
   93MOL   C35033654   7.128   2.584   6.808  0.9298 -0.8452 -0.5590
   93MOL   C35133655   7.195   2.583   6.674 -0.2316  0.8276 -0.6349
   93MOL   H35233656   7.694   2.606   6.951  1.4969  0.5845  1.0432
   93MOL   H35333657   7.551   2.562   6.882  0.2802  0.0062  1.1554
   93MOL   H35433658   7.596   2.814   7.052 -1.4193  0.7843  1.3368
   93MOL   H35533659   7.134   2.706   6.988  0.2032  2.4434 -0.9109
   93MOL   H35633660   7.174   2.783   6.839 -2.0442 -0.9045 -1.7358
   93MOL   H35733661   7.135   2.481   6.844  3.0560  0.1607  2.0232
   93MOL   H35833662   7.022   2.598   6.788  1.0024  1.4831  0.5582
   93MOL   H35933663   7.157   2.498   6.616  0.5394  0.1087 -0.1011
   93MOL   H36033664   7.188   2.675   6.615  1.4712  1.3667 -0.0090
   93MOL   H36133665   7.302   2.569   6.687 -0.4685 -0.4379 -0.0052
   93MOL   H36233666   7.537   2.655   7.115  1.4695 -1.4579 -1.4030
   94MOL     C133667   7.243   6.580   4.774  0.0735  0.6663 -0.0861
   94MOL     C233668   7.246   6.586   4.622 -0.0115  0.7873 -0.2724
   94MOL     C333669   7.350   6.691   4.581 -0.1972  0.0068  0.1192
   94MOL     O433670   7.462   6.656   4.544 -0.5721  0.6576 -0.0203
   94MOL     O533671   7.303   6.820   4.583  0.2489 -0.1765  0.1187
   94MOL     C633672   7.384   6.927   4.545 -0.2960 -0.0945 -0.5461
   94MOL     C733673   7.362   6.963   4.391  0.1408  0.7142 -0.0102
   94MOL     C833674   7.446   7.079   4.339 -0.4222 -0.0600 -0.2205
   94MOL     H933675   7.346   6.576   4.811 -0.6407  0.6160  1.9702
   94MOL    H1033676   7.185   6.667   4.802 -1.5874  0.5053 -2.9083
   94MOL    H1133677   7.150   6.615   4.576 -1.2910 -0.4464  1.5767
   94MOL    H1233678   7.372   7.014   4.610  0.9076  1.4796 -2.3804
   94MOL    H1333679   7.487   6.895   4.564  0.3576  1.7554 -0.8380
   94MOL    H1433680   7.395   6.871   4.342 -0.1599 -0.7525  2.4535
   94MOL    H1533681   7.257   6.982   4.372  0.1405  1.5951  0.8283
   94MOL    H1633682   7.449   7.091   4.231 -0.0513 -1.8918 -0.4232
   94MOL    H1733683   7.419   7.178   4.376 -0.1625  1.1150 -3.0613
   94MOL    H1833684   7.549   7.059   4.367 -0.6745 -0.3538  0.5161
   94MOL    H1933685   7.192   6.492   4.814  0.2611 -0.5696 -2.4692
   94MOL    C2033686   7.281   6.440   4.570  0.1770 -0.6337 -0.4197
   94MOL    C2133687   7.173   6.325   4.581 -0.1047 -0.7859  0.0845
   94MOL    C2233688   7.034   6.361   4.520  0.7354  0.4205  0.0793
   94MOL    O2333689   7.007   6.471   4.481  0.1586 -0.3982 -0.1897
   94MOL    O2433690   6.944   6.264   4.512  0.4183  0.0123 -0.1812
   94MOL    C2533691   6.817   6.290   4.447  0.3758 -1.1580  0.2130
   94MOL    C2633692   6.732   6.169   4.410  0.2660 -0.1891  0.6342
   94MOL    C2733693   6.604   6.209   4.338  0.3146  0.2749  0.0576
   94MOL    H2833694   7.368   6.410   4.629  1.0120  1.6427 -0.4233
   94MOL    H2933695   7.320   6.440   4.468 -1.2490  0.9577 -0.9863
   94MOL    H3033696   7.156   6.318   4.688  0.5932  2.7621  0.4829
   94MOL    H3133697   6.759   6.350   4.517  1.3697 -1.6837  1.4942
   94MOL    H3233698   6.836   6.344   4.355 -1.7437  1.1442  1.0681
   94MOL    H3333699   6.804   6.115   4.348 -1.2788  0.7351 -2.0539
   94MOL    H3433700   6.720   6.102   4.495 -1.2722 -3.6167 -2.1696
   94MOL    H3533701   6.531   6.233   4.415  0.9586  0.6085  0.5593
   94MOL    H3633702   6.552   6.129   4.284  0.9540 -0.2293  0.1851
   94MOL    H3733703   6.602   6.289   4.264  1.7520  3.5045  3.3639
   94MOL    C3833704   7.224   6.172   4.544  0.0327  0.3002  0.3663
   94MOL    C3933705   7.235   6.133   4.397  0.0581  0.4883 -0.2845
   94MOL    C4033706   7.372   6.182   4.335 -0.5493  0.1837 -0.4102
   94MOL    O4133707   7.379   6.269   4.246  0.0086  0.0679  0.0965
   94MOL    O4233708   7.470   6.126   4.394  0.0170 -0.3526  0.4582
   94MOL    C4333709   7.604   6.141   4.349  0.4119  0.4580  0.4106
   94MOL    C4433710   7.686   6.255   4.415  0.1903  0.2031  0.9904
   94MOL    C4533711   7.829   6.281   4.366  0.3127  0.2275  0.0283
   94MOL    H4633712   7.154   6.101   4.587 -2.3470  2.2974 -0.0731
   94MOL    H4733713   7.314   6.154   4.604 -0.7906  0.2473  1.5960
   94MOL    H4833714   7.156   6.182   4.340 -0.2704  0.9901  0.5881
   94MOL    H4933715   7.658   6.047   4.362  0.9111  0.4702 -1.4285
   94MOL    H5033716   7.603   6.154   4.241  1.4783 -0.2354  0.3036
   94MOL    H5133717   7.625   6.345   4.402  0.7912  0.4181 -0.3830
   94MOL    H5233718   7.679   6.239   4.523 -0.8736 -2.2146  0.5791
   94MOL    H5333719   7.870   6.379   4.388 -1.6603  1.7167 -2.6571
   94MOL    H5433720   7.849   6.253   4.263  0.3511  0.1243  0.0632
   94MOL    H5533721   0.001   6.195   4.408  1.5358  0.2678 -1.4088
   94MOL    C5633722   7.216   5.984   4.367  0.4075 -0.5618 -0.3624
   94MOL    C5733723   7.077   5.921   4.324  0.3200 -0.3999 -0.1241
   94MOL    C5833724   7.045   5.962   4.172 -0.1170 -0.0493 -0.1854
   94MOL    O5933725   6.934   5.994   4.132  0.3689 -0.4155  0.1179
   94MOL    O6033726   7.151   5.941   4.088  0.3052 -0.2272 -0.1063
   94MOL    C6133727   7.151   5.982   3.957  0.1105 -0.1577 -0.0102
   94MOL    C6233728   7.203   6.123   3.934  0.0140  0.3398  0.3065
   94MOL    C6333729   7.134   6.172   3.808 -0.4944 -0.3381  0.3321
   94MOL    H6433730   7.241   5.930   4.459 -1.3503  2.7332  2.1829
   94MOL    H6533731   7.284   5.947   4.291  1.7966  0.5935  0.3043
   94MOL    H6633732   7.000   5.972   4.381 -2.2491 -2.7702 -1.3112
   94MOL    H6733733   7.198   5.908   3.893  0.8971 -0.0285  0.4160
   94MOL    H6833734   7.048   5.970   3.922  0.4467 -0.5152 -0.8923
   94MOL    H6933735   7.186   6.202   4.007  0.6033 -0.4558  1.3240
   94MOL    H7033736   7.311   6.114   3.922 -0.2194 -0.1510 -1.6857
   94MOL    H7133737   7.184   6.262   3.772 -0.6065  0.8027  2.9231
   94MOL    H7233738   7.027   6.191   3.814 -0.4522 -0.1077  0.3719
   94MOL    H7333739   7.151   6.106   3.723  1.5538  1.9032 -1.0751
   94MOL    C7433740   7.062   5.768   4.338  0.0752  0.2584  0.0358
   94MOL    C7533741   7.068   5.712   4.485  0.1977 -0.2721  0.6001
   94MOL    C7633742   6.927   5.722   4.542 -0.2326  0.0624 -0.7487
   94MOL    O7733743   6.894   5.793   4.640  0.3689 -0.5565 -0.4816
   94MOL    O7833744   6.836   5.665   4.462  0.3835  0.2022 -0.2255
   94MOL    C7933745   6.706   5.660   4.517  0.7868  0.4299 -0.0435
   94MOL    C8033746   6.637   5.793   4.477 -0.0953 -0.0606 -1.2640
   94MOL    C8133747   6.602   5.813   4.325  0.4564 -0.1911 -0.3857
   94MOL    H8233748   7.139   5.717   4.280 -0.6850 -1.4649  0.4922
   94MOL    H8333749   6.968   5.741   4.289 -0.1995  2.3884 -0.6611
   94MOL    H8433750   7.135   5.778   4.541  0.0806 -1.5753  2.3028
   94MOL    H8533751   6.657   5.585   4.455  0.0671  2.2953 -1.7997
   94MOL    H8633752   6.694   5.638   4.624  2.4982  3.6141  0.8686
   94MOL    H8733753   6.539   5.794   4.524  1.2269 -0.8500  1.6153
   94MOL    H8833754   6.690   5.869   4.534 -0.0842 -1.6445  0.8847
   94MOL    H8933755   6.551   5.908   4.306  1.3389  0.6056  1.1354
   94MOL    H9033756   6.535   5.740   4.280 -0.8390 -0.3409  1.7245
   94MOL    H9133757   6.701   5.818   4.279  1.4986 -0.3930  1.7899
   94MOL    C9233758   7.110   5.562   4.474 -0.4781 -0.0915  0.0742
   94MOL    C9333759   7.264   5.548   4.459  0.0374  0.5037 -0.1473
   94MOL    C9433760   7.316   5.566   4.602  0.3671  0.3194 -1.3098
   94MOL    O9533761   7.356   5.468   4.670  0.2144  0.1430 -0.8878
   94MOL    O9633762   7.333   5.698   4.642  0.5247  0.9525 -0.1855
   94MOL    C9733763   7.389   5.719   4.773 -0.3633 -0.2904 -0.8115
   94MOL    C9833764   7.347   5.867   4.811  1.1628 -0.2753  0.2954
   94MOL    C9933765   7.194   5.873   4.835  0.0562 -1.1775  0.2730
   94MOL   H10033766   7.060   5.514   4.390 -0.3037 -1.4036  0.6930
   94MOL   H10133767   7.076   5.503   4.560 -1.3049 -2.0247 -1.5403
   94MOL   H10233768   7.296   5.637   4.405 -0.7974  0.7293 -0.2739
   94MOL   H10333769   7.373   5.645   4.851 -0.2293 -2.2529 -2.6113
   94MOL   H10433770   7.496   5.737   4.759 -0.6284  1.9914 -0.1352
   94MOL   H10533771   7.405   5.891   4.900  1.0428  2.1769 -0.2471
   94MOL   H10633772   7.381   5.945   4.742  0.2242 -0.2877 -0.1896
   94MOL   H10733773   7.135   5.850   4.746 -0.8926 -0.3655  0.6882
   94MOL   H10833774   7.158   5.970   4.869 -0.4134 -0.9981 -0.6997
   94MOL   H10933775   7.161   5.800   4.908 -0.4647 -0.9925  0.2211
   94MOL   C11033776   7.310   5.421   4.391 -0.0373 -0.0048  0.0794
   94MOL   C11133777   7.466   5.424   4.353  0.1353  0.2038  0.1061
   94MOL   C11233778   7.509   5.286   4.291 -0.1145 -0.3142 -0.2079
   94MOL   O11333779   7.433   5.210   4.234 -0.2951 -0.4756  0.3765
   94MOL   O11433780   7.638   5.250   4.318 -0.1435  0.0228 -0.0492
   94MOL   C11533781   7.694   5.147   4.238  0.3087 -0.4411  0.0280
   94MOL   C11633782   7.840   5.132   4.275  0.4521 -0.1210  0.4873
   94MOL   C11733783   0.034   5.005   4.221  0.6350 -0.0329  0.6457
   94MOL   H11833784   7.257   5.430   4.296  1.8202  1.6961 -0.8400
   94MOL   H11933785   7.271   5.334   4.444 -0.6131 -0.4630 -1.0697
   94MOL   H12033786   7.525   5.426   4.445 -0.9977  0.5857  0.8377
   94MOL   H12133787   7.651   5.047   4.249 -1.0983  0.0150 -1.2218
   94MOL   H12233788   7.690   5.186   4.137  2.3868 -0.7328 -0.2005
   94MOL   H12333789   0.004   5.219   4.226  2.8787 -0.8886  1.2784
   94MOL   H12433790   7.845   5.144   4.383  0.1817 -1.3226  0.6350
   94MOL   H12533791   0.023   5.006   4.113  0.4620  1.6861  0.6554
   94MOL   H12633792   7.880   4.912   4.266  0.0091 -0.5751 -0.9210
   94MOL   H12733793   0.139   5.010   4.251  1.0433 -2.5225 -0.2269
   94MOL   C12833794   7.496   5.532   4.247  0.0548  0.2148 -0.4424
   94MOL   C12933795   7.558   5.662   4.303 -0.0789  0.2009  0.2998
   94MOL   C13033796   7.685   5.652   4.392  0.1984 -0.0852  0.4410
   94MOL   O13133797   7.758   5.548   4.382 -0.3926  0.5984 -0.0796
   94MOL   O13233798   7.689   5.755   4.476  0.1196 -0.3585  0.4109
   94MOL   C13333799   7.799   5.770   4.568 -0.1952  0.4242 -0.5454
   94MOL   C13433800   7.842   5.911   4.612  0.5379 -0.0054 -0.0817
   94MOL   C13533801   7.723   5.984   4.676 -0.2403  0.3860  0.3428
   94MOL   H13633802   7.406   5.544   4.187  0.6900  0.9717 -1.2540
   94MOL   H13733803   7.571   5.489   4.181 -0.5632 -2.0955  0.3079
   94MOL   H13833804   7.490   5.700   4.380 -0.3413 -0.3363  0.3375
   94MOL   H13933805   7.784   5.712   4.659 -0.0487  0.0823 -0.7394
   94MOL   H14033806   0.009   5.724   4.528  0.2571 -0.5288  1.4869
   94MOL   H14133807   0.043   5.904   4.684 -0.3559 -1.1151  0.8292
   94MOL   H14233808   7.863   5.975   4.526 -2.2722  2.3887  0.9197
   94MOL   H14333809   7.637   5.980   4.609 -1.7875 -1.1149  2.3241
   94MOL   H14433810   7.753   6.086   4.701 -0.5691  0.7751 -0.8208
   94MOL   H14533811   7.709   5.933   4.772  3.5208  0.8129  1.1871
   94MOL   C14633812   7.564   5.771   4.193  0.1899  0.2501  0.3913
   94MOL   C14733813   7.649   5.738   4.068 -0.6140  0.0693 -0.1375
   94MOL   C14833814   7.621   5.852   3.959 -0.8080 -0.0111  0.6687
   94MOL   O14933815   7.596   5.969   3.977  0.2889 -0.0587 -0.4072
   94MOL   O15033816   7.615   5.783   3.843 -0.0642 -0.2067  0.2061
   94MOL   C15133817   7.589   5.847   3.718  0.6791  0.2755 -0.2039
   94MOL   C15233818   7.434   5.876   3.704 -0.0081 -0.1712 -0.2391
   94MOL   C15333819   7.342   5.755   3.703  0.2378  1.4721  0.0899
   94MOL   H15433820   7.606   5.861   4.237  0.9735  0.2861 -0.4144
   94MOL   H15533821   7.462   5.790   4.160  0.9709  3.4537 -0.3621
   94MOL   H15633822   7.627   5.637   4.033 -0.2343 -0.1675  0.2915
   94MOL   H15733823   7.635   5.946   3.721 -0.1542  0.6159  3.3428
   94MOL   H15833824   7.619   5.784   3.635  1.3700 -0.7707  0.8302
   94MOL   H15933825   7.396   5.953   3.771 -0.5159  1.5612 -2.4507
   94MOL   H16033826   7.416   5.926   3.608 -2.3251  0.6569  0.6040
   94MOL   H16133827   7.357   5.701   3.796  0.6969  0.2908 -0.6577
   94MOL   H16233828   7.365   5.679   3.628  0.5610 -0.3804  2.0157
   94MOL   H16333829   7.235   5.778   3.705 -0.0137  0.5215 -1.3590
   94MOL   C16433830   7.798   5.700   4.089  0.5199  0.6211  0.1925
   94MOL   C16533831   0.008   5.807   4.159  0.0494 -0.1056  0.4461
   94MOL   C16633832   0.123   5.746   4.234 -0.3025  0.3342  0.4281
   94MOL   O16733833   0.162   5.800   4.342  0.5117  0.4074 -0.6148
   94MOL   O16833834   0.175   5.634   4.173 -0.1049  0.4202  0.1169
   94MOL   C16933835   0.283   5.568   4.234  0.3171 -0.3441  0.2540
   94MOL   C17033836   0.234   5.451   4.321 -0.5824 -0.0533  0.2878
   94MOL   C17133837   0.203   5.489   4.466 -0.4190  0.5648 -0.7392
   94MOL   H17233838   7.839   5.675   3.991  1.2680  1.0944  0.3785
   94MOL   H17333839   7.803   5.609   4.148  0.7276 -0.2913 -1.1984
   94MOL   H17433840   7.830   5.838   4.246  0.2781 -0.7315  0.8222
   94MOL   H17533841   0.339   5.521   4.153 -1.9099 -2.1464 -0.2872
   94MOL   H17633842   0.352   5.635   4.285  2.2386 -0.7574 -1.7400
   94MOL   H17733843   0.151   5.395   4.277  0.1717  1.1911 -2.8475
   94MOL   H17833844   0.311   5.375   4.333 -0.2345  0.2691  0.1199
   94MOL   H17933845   0.285   5.534   4.523 -0.1671 -1.5297  0.6129
   94MOL   H18033846   0.164   5.399   4.515 -1.6929  2.4130  1.7679
   94MOL   H18133847   0.114   5.552   4.466 -1.2697 -0.5274  2.2005
   94MOL   C18233848   0.052   5.932   4.078 -0.7033 -0.6881 -0.4545
   94MOL   C18333849   0.101   5.909   3.927  0.1772 -0.4393 -0.3031
   94MOL   C18433850   0.050   6.031   3.842 -0.0551 -0.5508  0.2242
   94MOL   O18533851   7.863   6.016   3.744 -0.0657  0.2105  0.3450
   94MOL   O18633852   0.113   6.142   3.868  0.3758  0.0067 -0.6580
   94MOL   C18733853   0.093   6.262   3.800  0.1570  0.2268 -0.1318
   94MOL   C18833854   0.225   6.322   3.752  0.2953 -0.5759  1.5051
   94MOL   C18933855   0.316   6.240   3.662  0.3297  0.3466  0.2800
   94MOL   H19033856   0.139   5.977   4.127 -1.4925  0.4383 -0.0536
   94MOL   H19133857   7.850   6.003   4.090  0.5468  1.1690 -2.3227
   94MOL   H19233858   0.048   5.826   3.879 -1.8125 -0.7175  2.2938
   94MOL   H19333859   0.015   6.268   3.724  1.4677  0.7406 -1.4567
   94MOL   H19433860   0.046   6.332   3.870  1.0398  2.0231 -1.2923
   94MOL   H19533861   0.186   6.406   3.694  0.9718 -1.2163  0.0930
   94MOL   H19633862   0.278   6.372   3.833  1.5601 -0.9010  0.8856
   94MOL   H19733863   0.372   6.168   3.721 -1.8573 -1.4859  0.1848
   94MOL   H19833864   0.389   6.288   3.596 -0.5261 -0.6601 -1.4220
   94MOL   H19933865   0.246   6.187   3.598  0.7320  0.9446 -0.6652
   94MOL   C20033866   0.254   5.889   3.912  0.0978  0.7741  0.4316
   94MOL   C20133867   0.320   5.849   3.782 -0.8511 -0.8976 -0.3412
   94MOL   C20233868   0.471   5.829   3.814 -0.1581 -0.3428 -0.0554
   94MOL   O20333869   0.557   5.886   3.749 -0.2713  0.6024  0.2420
   94MOL   O20433870   0.489   5.730   3.912 -0.1558 -0.6746 -0.3342
   94MOL   C20533871   0.615   5.686   3.957  0.0458 -0.5783  0.2051
   94MOL   C20633872   0.649   5.558   3.883 -0.2523 -0.6422 -0.0121
   94MOL   C20733873   0.534   5.452   3.897 -0.7315 -0.6094  0.5522
   94MOL   H20833874   0.289   5.820   3.989 -0.3300  1.0600  0.8890
   94MOL   H20933875   0.302   5.981   3.945 -0.1285  1.1407 -0.2557
   94MOL   H21033876   0.313   5.938   3.719 -4.0210  1.1862  2.7552
   94MOL   H21133877   0.691   5.763   3.945 -1.6810  1.4705  1.8493
   94MOL   H21233878   0.613   5.654   4.061  0.5175 -0.8084  0.1414
   94MOL   H21333879   0.659   5.583   3.778  0.3784  1.1405  0.4697
   94MOL   H21433880   0.749   5.526   3.912  1.0240  1.4654 -1.9169
   94MOL   H21533881   0.519   5.405   3.994  0.2062 -2.3105 -0.0951
   94MOL   H21633882   0.555   5.366   3.833 -1.1128  1.1910 -2.0935
   94MOL   H21733883   0.441   5.494   3.856 -0.3287  0.0728  0.3313
   94MOL   C21833884   0.248   5.735   3.710 -0.1319  0.0186  0.0865
   94MOL   C21933885   0.286   5.686   3.569  0.5274 -0.0711 -0.1961
   94MOL   C22033886   0.278   5.804   3.470  0.1302 -0.0365 -0.2556
   94MOL   O22133887   0.171   5.836   3.424 -0.3729  0.0820  0.6570
   94MOL   O22233888   0.385   5.883   3.468 -0.2695  0.2131 -0.1795
   94MOL   C22333889   0.391   5.996   3.391  0.4628  0.1313  1.2435
   94MOL   C22433890   0.475   5.969   3.262 -0.2649  0.0182  0.2439
   94MOL   C22533891   0.486   6.103   3.182  0.1574 -0.0894 -0.9586
   94MOL   H22633892   0.150   5.783   3.711 -0.5182 -0.7583  1.7296
   94MOL   H22733893   0.254   5.647   3.775  0.0613 -1.3233 -1.7107
   94MOL   H22833894   0.213   5.612   3.535 -1.7923  1.1305  2.0064
   94MOL   H22933895   0.289   6.033   3.376 -0.0879 -1.9333 -0.2817
   94MOL   H23033896   0.445   6.074   3.444 -1.6930  2.9403 -0.5629
   94MOL   H23133897   0.577   5.942   3.285 -0.7737 -1.5975  0.6631
   94MOL   H23233898   0.424   5.897   3.197 -0.0562 -1.7512  1.9830
   94MOL   H23333899   0.537   6.185   3.233  2.4056 -2.9111  1.5631
   94MOL   H23433900   0.385   6.139   3.163  0.5011  0.4800 -1.7202
   94MOL   H23533901   0.538   6.097   3.087 -1.7112  0.6285 -2.0397
   94MOL   C23633902   0.403   5.593   3.563 -0.2289 -0.4181  0.1118
   94MOL   C23733903   0.427   5.523   3.425  0.1293 -0.8322 -0.3327
   94MOL   C23833904   0.508   5.600   3.325 -0.2164  0.8523 -0.5986
   94MOL   O23933905   0.463   5.633   3.216  0.0102 -0.8057  0.4108
   94MOL   O24033906   0.636   5.611   3.359 -0.5834  0.1640 -0.2073
   94MOL   C24133907   0.736   5.677   3.280 -0.0581 -0.1114 -0.2152
   94MOL   C24233908   0.840   5.737   3.371 -0.4353 -0.0712  0.2177
   94MOL   C24333909   0.780   5.845   3.463 -0.4800 -0.3604  0.0614
   94MOL   H24433910   0.395   5.515   3.638  0.3355  0.1347  0.7540
   94MOL   H24533911   0.497   5.642   3.586 -0.7008  2.2988 -3.3174
   94MOL   H24633912   0.329   5.510   3.378  0.6593 -1.8394 -1.1665
   94MOL   H24733913   0.778   5.605   3.211 -2.5834  0.1529 -2.1106
   94MOL   H24833914   0.690   5.750   3.213  2.3453 -0.7066 -2.5587
   94MOL   H24933915   0.876   5.655   3.433  2.2661  1.3617  0.6645
   94MOL   H25033916   0.922   5.779   3.312  0.8823 -1.4374  1.0401
   94MOL   H25133917   0.744   5.930   3.405 -1.0203 -1.0972 -0.7134
   94MOL   H25233918   0.852   5.876   3.538  1.2373 -1.8894 -0.8976
   94MOL   H25333919   0.691   5.812   3.517 -0.2277  1.1787  1.4345
   94MOL   C25433920   0.485   5.380   3.443 -0.3083 -0.5090 -0.3068
   94MOL   C25533921   0.386   5.273   3.425 -0.7393 -0.4475 -0.0593
   94MOL   C25633922   0.258   5.289   3.511 -0.5224 -0.0606  0.1924
   94MOL   O25733923   0.147   5.314   3.460  0.1517  0.4442  0.4377
   94MOL   O25833924   0.279   5.267   3.644 -0.9028  0.1029 -0.0923
   94MOL   C25933925   0.172   5.253   3.731 -0.3384 -0.1414 -0.7622
   94MOL   C26033926   0.166   5.358   3.840  0.2563  0.3379  1.0770
   94MOL   C26133927   0.068   5.327   3.950  0.1584  0.4956 -0.1677
   94MOL   H26233928   0.530   5.357   3.539  0.5682  4.0288  0.4665
   94MOL   H26333929   0.570   5.358   3.378  2.1581 -1.8224  3.2260
   94MOL   H26433930   0.435   5.181   3.455  1.6681  0.9793  0.4982
   94MOL   H26533931   0.074   5.235   3.686 -0.5179  0.4857 -0.6329
   94MOL   H26633932   0.194   5.153   3.768  1.9898  0.2696 -0.9582
   94MOL   H26733933   0.268   5.372   3.876  0.1962  1.2597  0.8950
   94MOL   H26833934   0.145   5.460   3.809 -0.2077  0.4135  1.6214
   94MOL   H26933935   0.075   5.231   4.002 -0.7700  1.0575  1.0404
   94MOL   H27033936   7.844   5.316   3.919  0.2004  3.0106 -1.2783
   94MOL   H27133937   0.075   5.389   4.039  0.0228 -0.8424  0.8071
   94MOL   C27233938   0.364   5.253   3.278 -0.1153 -0.7069  0.7252
   94MOL   C27333939   0.279   5.131   3.238  0.4930  0.0100 -0.8588
   94MOL   C27433940   0.195   5.153   3.118 -0.0864  0.1420 -0.5449
   94MOL   O27533941   0.082   5.101   3.107  0.0963 -0.4807  1.4317
   94MOL   O27633942   0.246   5.238   3.018  0.1367 -0.1377 -0.1935
   94MOL   C27733943   0.168   5.261   2.907  0.5475 -0.2863 -0.1690
   94MOL   C27833944   0.252   5.280   2.774  0.0102 -0.1139  0.3658
   94MOL   C27933945   0.332   5.406   2.795  0.4707 -0.5710 -0.3522
   94MOL   H28033946   0.462   5.254   3.230 -0.1879 -0.3289  0.5840
   94MOL   H28133947   0.317   5.345   3.243  0.5810  0.4193  2.6096
   94MOL   H28233948   0.208   5.112   3.319  1.9584 -0.9160  0.2239
   94MOL   H28333949   0.101   5.178   2.883  0.3981 -0.1875 -0.1002
   94MOL   H28433950   0.117   5.356   2.926  1.9327 -0.0375  2.4914
   94MOL   H28533951   0.301   5.185   2.755  0.5222  0.2220 -0.0246
   94MOL   H28633952   0.185   5.309   2.693 -2.0429 -3.2984  0.8762
   94MOL   H28733953   0.272   5.491   2.827  0.8288 -1.1164  1.8375
   94MOL   H28833954   0.386   5.430   2.704  0.5188 -0.2123 -0.2282
   94MOL   H28933955   0.413   5.392   2.866 -0.1681 -4.8558 -0.3443
   94MOL   C29033956   0.373   5.002   3.228  0.1446  0.0037  0.1135
   94MOL   C29133957   0.323   4.865   3.281  0.4875  0.9320 -0.1488
   94MOL   C29233958   0.291   4.859   3.429 -0.0711  0.7860 -0.5844
   94MOL   O29333959   0.253   4.961   3.487  0.7610  0.4921  0.9739
   94MOL   O29433960   0.299   4.735   3.484  0.0133  0.0381  0.7397
   94MOL   C29533961   0.245   4.711   3.609  0.7764 -0.2840  0.0557
   94MOL   C29633962   0.143   4.603   3.598 -0.2680 -0.5476 -0.1921
   94MOL   C29733963   0.071   4.558   3.726  0.1982  0.0277  1.3972
   94MOL   H29833964   0.475   5.009   3.265  0.0377  1.8993  0.0614
   94MOL   H29933965   0.416   5.003   3.128  0.1532  1.0011  0.1213
   94MOL   H30033966   0.407   4.795   3.274  0.7006  1.1857 -0.1224
   94MOL   H30133967   0.324   4.667   3.669  0.3274 -1.9951 -0.6022
   94MOL   H30233968   0.206   4.795   3.667 -0.2427  0.0715 -1.1074
   94MOL   H30333969   0.065   4.631   3.527  0.3406  1.0521 -0.2362
   94MOL   H30433970   0.195   4.519   3.553  1.8760  0.6382  0.0314
   94MOL   H30533971   0.009   4.640   3.761  0.2020  0.0162  1.4322
   94MOL   H30633972   0.154   4.525   3.789 -1.2641 -3.3211  1.6738
   94MOL   H30733973   0.011   4.467   3.719  0.5409 -0.1326  0.4622
   94MOL   C30833974   0.202   4.813   3.199 -0.9421 -0.0045 -0.7322
   94MOL   C30933975   0.238   4.784   3.052 -0.2593  0.5188  0.2726
   94MOL   C31033976   0.330   4.655   3.050  0.0848 -0.1645  0.0602
   94MOL   O31133977   0.278   4.546   3.049  0.2844 -0.5940  0.6669
   94MOL   O31233978   0.456   4.680   3.049 -0.1658  0.6272 -0.0811
   94MOL   C31333979   0.544   4.566   3.059 -0.5443 -0.5538 -0.6256
   94MOL   C31433980   0.688   4.591   3.014  1.1450 -0.0465 -0.2397
   94MOL   C31533981   0.760   4.662   3.130  0.3435 -0.2472 -0.0121
   94MOL   H31633982   0.124   4.887   3.178 -1.2117 -0.1076 -0.0984
   94MOL   H31733983   0.143   4.731   3.240 -0.3580  0.2709  0.6943
   94MOL   H31833984   0.293   4.871   3.017  0.8457 -0.2468  0.0546
   94MOL   H31933985   0.539   4.533   3.163  0.0928 -0.0834 -0.4470
   94MOL   H32033986   0.503   4.487   2.996 -0.9089 -0.7297 -0.1731
   94MOL   H32133987   0.737   4.498   2.985 -0.9853 -2.2169  2.7429
   94MOL   H32233988   0.682   4.652   2.924  0.2552  1.5600  0.8675
   94MOL   H32333989   0.865   4.668   3.103 -0.5061  0.0036 -3.5732
   94MOL   H32433990   0.722   4.764   3.136  0.8579  0.0346 -1.2857
   94MOL   H32533991   0.737   4.610   3.223 -0.8706 -2.2469 -1.4045
   94MOL   C32633992   0.113   4.762   2.961  0.3844 -0.2837  0.1737
   94MOL   C32733993   0.145   4.744   2.811 -0.2441  0.2130  0.3975
   94MOL   C32833994   0.045   4.652   2.745  0.2979  0.0574  0.3398
   94MOL   O32933995   7.852   4.700   2.659 -0.4250 -0.1481  0.0011
   94MOL   O33033996   0.066   4.522   2.762  0.4310 -0.0140 -0.1515
   94MOL   C33133997   7.861   4.425   2.701 -0.2033 -0.2808  0.1270
   94MOL   C33233998   7.732   4.398   2.778 -0.0678  0.1002  0.0953
   94MOL   C33333999   7.761   4.330   2.914 -0.4053  0.0305  0.3295
   94MOL   H33434000   0.040   4.841   2.977  0.1040 -0.4196 -0.4188
   94MOL   H33534001   0.065   4.672   3.000 -0.9886  0.5440  0.4269
   94MOL   H33634002   0.236   4.686   2.798  0.8031  1.7125  0.9480
   94MOL   H33734003   7.838   4.442   2.595 -0.7128 -0.4967  0.1963
   94MOL   H33834004   0.033   4.329   2.704 -0.4274 -0.4417 -0.8281
   94MOL   H33934005   7.676   4.490   2.793  0.7796  1.0298 -2.1112
   94MOL   H34034006   7.680   4.320   2.723  0.7413 -0.1014 -0.3978
   94MOL   H34134007   7.663   4.315   2.958 -0.8333  1.4437 -0.1099
   94MOL   H34234008   7.814   4.236   2.901  0.3223  0.1142  2.4042
   94MOL   H34334009   7.824   4.398   2.972 -1.7344  0.9516  0.7297
   94MOL   C34434010   0.166   4.879   2.740  0.7177 -0.1584  0.0483
   94MOL   C34534011   0.289   4.884   2.636  0.5201 -0.2271  1.0265
   94MOL   C34634012   0.254   4.834   2.492 -0.0632  0.1536 -0.4781
   94MOL   O34734013   0.253   4.909   2.397  0.0936  0.0404 -0.0568
   94MOL   O34834014   0.248   4.697   2.478 -0.7214 -0.8265  0.4494
   94MOL   C34934015   0.213   4.634   2.352  0.1432  0.9209  0.0156
   94MOL   C35034016   0.104   4.525   2.369  0.3403  0.2226  0.1825
   94MOL   C35134017   0.165   4.384   2.414  0.6939 -1.4712  0.2125
   94MOL   H35234018   0.192   4.948   2.821  0.8201 -1.2624  0.9619
   94MOL   H35334019   0.072   4.922   2.703  1.0085  0.1638 -0.3257
   94MOL   H35434020   0.359   4.808   2.671  0.4818 -0.7309  0.0229
   94MOL   H35534021   0.178   4.696   2.271  1.2303  0.1161 -1.0940
   94MOL   H35634022   0.297   4.580   2.308 -0.7747 -1.1371  0.6989
   94MOL   H35734023   0.038   4.574   2.440 -0.5336 -1.0831  0.2883
   94MOL   H35834024   0.078   4.510   2.264  1.7649 -0.8522 -0.0478
   94MOL   H35934025   0.208   4.401   2.513  0.9610  1.3563 -0.3542
   94MOL   H36034026   0.076   4.322   2.425 -0.1472 -0.2957  0.0856
   94MOL   H36134027   0.240   4.348   2.344 -0.7605 -0.4383 -1.9270
   94MOL   H36234028   0.334   4.980   2.608  3.6282 -1.8891  0.1324
   95MOL     C134029   6.167   2.019   4.987 -0.3025  0.4614 -0.2455
   95MOL     C234030   6.080   1.922   4.909  0.4523  0.3012 -0.0080
   95MOL     C334031   5.946   1.987   4.877  0.0576  0.0600  0.5524
   95MOL     O434032   5.932   2.110   4.878 -0.9763  0.1317  0.3164
   95MOL     O534033   5.856   1.897   4.850  0.0491  0.1026 -0.4866
   95MOL     C634034   5.727   1.931   4.807  0.1940 -0.0010 -0.7806
   95MOL     C734035   5.710   1.874   4.666 -0.7720 -0.2599  0.3091
   95MOL     C834036   5.587   1.923   4.592  0.4210  1.0382  0.3759
   95MOL     H934037   6.254   1.970   5.030  1.0657  1.2968 -1.9997
   95MOL    H1034038   6.184   2.110   4.930 -1.9247  0.8309 -0.1548
   95MOL    H1134039   6.050   1.839   4.973 -1.0889  1.3110  0.5883
   95MOL    H1234040   5.649   1.889   4.871  0.1958  0.2989 -0.5836
   95MOL    H1334041   5.702   2.037   4.799  1.9881  0.3780 -1.5484
   95MOL    H1434042   5.787   1.917   4.603 -0.9805 -1.8523 -1.0667
   95MOL    H1534043   5.718   1.766   4.657 -1.0981 -0.2780  0.2388
   95MOL    H1634044   5.570   2.028   4.615  1.5313  1.0445  1.1977
   95MOL    H1734045   5.597   1.897   4.487 -1.5019 -3.2550  1.1389
   95MOL    H1834046   5.502   1.868   4.633  0.8396 -3.0761 -3.8832
   95MOL    H1934047   6.121   2.051   5.080  0.3039  1.3635 -0.2587
   95MOL    C2034048   6.149   1.875   4.777 -0.0992 -0.3428 -0.1473
   95MOL    C2134049   6.082   1.757   4.707  0.0538 -0.6479  0.0727
   95MOL    C2234050   6.130   1.758   4.561 -0.2341 -0.4525  0.8064
   95MOL    O2334051   6.062   1.792   4.463  0.3795  0.3287  0.3247
   95MOL    O2434052   6.253   1.704   4.548  0.1247 -0.2127 -1.0398
   95MOL    C2534053   6.308   1.672   4.427  0.2219 -0.0477 -0.1154
   95MOL    C2634054   6.458   1.622   4.438  0.1316  0.7514 -0.0512
   95MOL    C2734055   6.463   1.490   4.519  0.2200 -0.1216 -0.2568
   95MOL    H2834056   6.244   1.844   4.821  0.2570 -0.1821 -0.7991
   95MOL    H2934057   6.172   1.963   4.717  0.3672 -0.4114 -0.0760
   95MOL    H3034058   5.978   1.789   4.699  0.1975  0.0928  1.0827
   95MOL    H3134059   6.249   1.594   4.378  0.8468 -1.0658  0.7164
   95MOL    H3234060   6.311   1.755   4.357  1.2680  0.5205  0.5929
   95MOL    H3334061   6.494   1.603   4.336 -1.4205  3.0222 -1.0695
   95MOL    H3434062   6.525   1.700   4.474 -3.0128  2.4380  2.3841
   95MOL    H3534063   6.395   1.507   4.603 -1.2401  1.2881 -1.6826
   95MOL    H3634064   6.559   1.465   4.564 -0.0044 -0.0611  0.2535
   95MOL    H3734065   6.432   1.400   4.466 -0.5581  0.3564 -0.6351
   95MOL    C3834066   6.095   1.619   4.769  0.0914 -0.0148  0.4747
   95MOL    C3934067   5.998   1.518   4.705  0.1997  0.3362  0.0496
   95MOL    C4034068   6.057   1.380   4.708 -0.9047 -0.3029  1.0044
   95MOL    O4134069   6.105   1.334   4.608 -0.1621  0.4132 -0.1144
   95MOL    O4234070   6.043   1.329   4.824  0.1989 -0.1971  0.0396
   95MOL    C4334071   6.067   1.191   4.848 -0.1081  0.1685  0.8202
   95MOL    C4434072   5.986   1.138   4.965 -0.4272  0.3826 -0.7013
   95MOL    C4534073   5.835   1.118   4.945  0.2386  0.0943  0.4204
   95MOL    H4634074   6.088   1.622   4.878 -1.4287 -0.5098  0.3958
   95MOL    H4734075   6.199   1.588   4.753  1.0578  3.7440 -0.9949
   95MOL    H4834076   5.988   1.550   4.602  4.3185  2.0684  0.1204
   95MOL    H4934077   6.032   1.134   4.762 -1.5543 -0.4834  1.8241
   95MOL    H5034078   6.171   1.166   4.869 -0.8574 -1.9624  2.1030
   95MOL    H5134079   6.031   1.048   5.006  2.2885  1.2338 -1.6699
   95MOL    H5234080   5.994   1.216   5.041  0.3628  0.1971 -0.5880
   95MOL    H5334081   5.816   1.079   4.845 -1.4153 -0.3926  0.8905
   95MOL    H5434082   5.801   1.221   4.936  2.6406  0.8656 -0.0530
   95MOL    H5534083   5.786   1.059   5.022  0.4768 -1.5465 -0.6642
   95MOL    C5634084   5.852   1.514   4.760 -0.0465  0.0072  0.4658
   95MOL    C5734085   5.743   1.425   4.693 -0.2114  0.4647  0.0427
   95MOL    C5834086   5.608   1.436   4.762 -0.0035 -0.2583 -0.0908
   95MOL    O5934087   5.537   1.529   4.729  0.2661  0.3718  0.0508
   95MOL    O6034088   5.587   1.351   4.863  0.2397 -0.1704  0.7878
   95MOL    C6134089   5.470   1.360   4.938  0.2089  0.2879 -0.4474
   95MOL    C6234090   5.419   1.232   5.003 -0.1821  0.0021 -0.3394
   95MOL    C6334091   5.414   1.116   4.907  0.8172 -0.4656 -0.0366
   95MOL    H6434092   5.813   1.616   4.764  0.4754  0.1712  1.8482
   95MOL    H6534093   5.849   1.477   4.863 -1.8573  0.7065  0.6897
   95MOL    H6634094   5.779   1.324   4.713  1.0083  0.5713 -1.4987
   95MOL    H6734095   5.481   1.446   5.004  0.9743 -0.0479 -0.1265
   95MOL    H6834096   5.389   1.386   4.871 -1.6122 -0.3191  1.4717
   95MOL    H6934097   5.487   1.202   5.083 -1.0968  0.0413  0.4622
   95MOL    H7034098   5.322   1.254   5.047 -0.5376  4.4232 -3.0362
   95MOL    H7134099   5.351   1.168   4.835 -0.4678 -0.5857  0.9939
   95MOL    H7234100   5.375   1.025   4.954  0.9117  0.3259  1.6075
   95MOL    H7334101   5.512   1.091   4.865  1.4903 -3.0895  2.8759
   95MOL    C7434102   5.735   1.437   4.539 -0.1236  0.2719  0.1824
   95MOL    C7534103   5.683   1.318   4.455  0.2861 -0.4082 -0.0289
   95MOL    C7634104   5.791   1.206   4.464 -0.0664  0.0450  0.1889
   95MOL    O7734105   5.795   1.127   4.557  0.4143  0.4850 -0.0074
   95MOL    O7834106   5.877   1.210   4.360  0.3842 -0.3675 -0.4110
   95MOL    C7934107   5.998   1.135   4.363 -0.6238  0.5279  0.1436
   95MOL    C8034108   6.108   1.186   4.263  0.3671 -0.0774  0.4502
   95MOL    C8134109   6.159   1.326   4.300 -0.2648 -0.2440 -0.4303
   95MOL    H8234110   5.834   1.439   4.495 -0.6662 -2.6318 -1.2967
   95MOL    H8334111   5.688   1.535   4.527 -3.5585 -1.3260 -0.1085
   95MOL    H8434112   5.681   1.344   4.349 -0.3611  0.8291  0.2814
   95MOL    H8534113   6.044   1.129   4.461  0.4404  1.8417 -0.2611
   95MOL    H8634114   5.973   1.033   4.333  0.3498 -0.4842  2.6587
   95MOL    H8734115   6.182   1.108   4.245 -0.7417 -1.5445  2.1073
   95MOL    H8834116   6.057   1.196   4.167  1.2916  1.0979  0.0531
   95MOL    H8934117   6.209   1.358   4.209  0.1511 -2.8335 -1.1489
   95MOL    H9034118   6.228   1.323   4.385 -0.7268  0.9999  0.0037
   95MOL    H9134119   6.078   1.397   4.316  0.1947  0.1359  0.2840
   95MOL    C9234120   5.541   1.266   4.486  0.1481 -0.4921 -0.0589
   95MOL    C9334121   5.478   1.180   4.381  0.2113  0.0470  0.0928
   95MOL    C9434122   5.360   1.101   4.439 -0.7541  0.1705 -0.7262
   95MOL    O9534123   5.246   1.124   4.417 -0.3574  0.2958 -0.0253
   95MOL    O9634124   5.401   1.020   4.537 -0.6649  0.2156  0.3136
   95MOL    C9734125   5.314   0.927   4.597  0.3578 -0.0035 -0.4751
   95MOL    C9834126   5.392   0.795   4.609  0.1153 -0.3840  0.6305
   95MOL    C9934127   5.459   0.787   4.747 -0.3128  0.3301 -0.7434
   95MOL   H10034128   5.480   1.356   4.488 -0.4433 -0.9101  1.9294
   95MOL   H10134129   5.538   1.225   4.587 -2.1121  4.5570  2.0857
   95MOL   H10234130   5.543   1.099   4.347 -0.7872  0.1190 -2.0617
   95MOL   H10334131   5.268   0.964   4.689  1.7152 -1.0999  0.6721
   95MOL   H10434132   5.234   0.912   4.526 -0.0992  1.3523 -0.2462
   95MOL   H10534133   5.316   0.718   4.597  0.6323 -0.6865 -0.7869
   95MOL   H10634134   5.466   0.783   4.530 -0.4066  1.0565 -0.1023
   95MOL   H10734135   5.384   0.765   4.822  1.4587 -0.3776  0.8664
   95MOL   H10834136   5.509   0.880   4.773  0.7601  0.1727 -2.1937
   95MOL   H10934137   5.539   0.712   4.746  0.2787  0.9553 -1.7825
   95MOL   C11034138   5.423   1.256   4.253  0.1217  0.2537  0.2947
   95MOL   C11134139   5.525   1.310   4.153  0.5893  0.7602  0.5138
   95MOL   C11234140   5.619   1.193   4.109  0.7705 -0.4394  0.3317
   95MOL   O11334141   5.744   1.204   4.109  0.4814 -0.0731 -0.4444
   95MOL   O11434142   5.560   1.087   4.066 -0.2124  0.0965 -0.0091
   95MOL   C11534143   5.639   0.975   4.033 -0.4361  0.3048 -0.0178
   95MOL   C11634144   5.634   0.870   4.149  0.5510  0.0839  0.2624
   95MOL   C11734145   5.495   0.802   4.146 -0.1710 -0.0396 -0.0516
   95MOL   H11834146   5.370   1.341   4.296 -0.7421 -0.5521  0.8425
   95MOL   H11934147   5.343   1.204   4.201 -0.2328  0.5479  0.5456
   95MOL   H12034148   5.591   1.385   4.198 -0.9246  2.5440 -0.1808
   95MOL   H12134149   5.596   0.937   3.941 -0.7098 -0.2590  0.3392
   95MOL   H12234150   5.741   0.988   3.999 -0.8355 -0.4979 -1.5811
   95MOL   H12334151   5.706   0.794   4.121 -0.0632 -1.3097  2.2918
   95MOL   H12434152   5.657   0.912   4.247  0.7848 -0.1842  0.3202
   95MOL   H12534153   5.413   0.868   4.174 -1.0815 -2.2404  2.7434
   95MOL   H12634154   5.485   0.719   4.216  1.2401 -0.0707  0.1362
   95MOL   H12734155   5.460   0.757   4.053 -1.8408 -4.1730  2.4190
   95MOL   C12834156   5.455   1.388   4.034  0.9598  0.0734  0.3846
   95MOL   C12934157   5.530   1.500   3.960  0.2602  0.0266  0.4155
   95MOL   C13034158   5.656   1.456   3.880  0.1409 -0.9482 -1.1653
   95MOL   O13134159   5.648   1.407   3.764 -0.2063 -0.0664 -0.0008
   95MOL   O13234160   5.773   1.481   3.940 -0.2279  0.0310 -0.1599
   95MOL   C13334161   5.901   1.431   3.894 -0.6557 -0.5920 -0.5553
   95MOL   C13434162   5.998   1.536   3.951 -0.2022  0.1710  0.7993
   95MOL   C13534163   6.139   1.508   3.895  0.0427  0.5005  0.0019
   95MOL   H13634164   5.353   1.422   4.052  0.8662 -0.1281  0.2407
   95MOL   H13734165   5.437   1.314   3.956  3.3103 -0.7532  0.5772
   95MOL   H13834166   5.580   1.564   4.034 -0.6025  1.2623 -0.0518
   95MOL   H13934167   5.930   1.331   3.928 -0.7876 -0.0689  1.1101
   95MOL   H14034168   5.914   1.431   3.785  2.8220 -2.9670 -0.2359
   95MOL   H14134169   5.960   1.634   3.925  0.4952  0.2866  0.2154
   95MOL   H14234170   5.996   1.534   4.060  0.2117  0.2188  0.8059
   95MOL   H14334171   6.186   1.415   3.928  0.6361  0.4913 -0.8317
   95MOL   H14434172   6.214   1.583   3.922  0.5394  0.7593 -2.0016
   95MOL   H14534173   6.135   1.512   3.786 -0.5109  1.9390  0.0699
   95MOL   C14634174   5.441   1.585   3.871 -0.6202 -0.2521 -0.6684
   95MOL   C14734175   5.389   1.717   3.937 -0.5976  0.3492  0.3634
   95MOL   C14834176   5.507   1.815   3.956 -0.2343 -0.1409 -0.4604
   95MOL   O14934177   5.548   1.885   3.864 -0.1687  0.5393 -0.1809
   95MOL   O15034178   5.552   1.814   4.081  0.4511 -0.2172 -0.2857
   95MOL   C15134179   5.661   1.887   4.126 -0.8370 -0.5662  0.2523
   95MOL   C15234180   5.774   1.788   4.161  0.4779  0.0512 -0.0373
   95MOL   C15334181   5.741   1.707   4.290 -0.2087  0.4759 -0.4970
   95MOL   H15434182   5.356   1.522   3.844 -2.6903  1.4386  1.5837
   95MOL   H15534183   5.492   1.615   3.780 -1.5158  0.1348 -1.0525
   95MOL   H15634184   5.363   1.694   4.040  1.1384  0.1995  0.7728
   95MOL   H15734185   5.693   1.950   4.043  0.3863 -0.1670  1.0319
   95MOL   H15834186   5.625   1.948   4.209 -0.2436  3.1865 -2.1405
   95MOL   H15934187   5.800   1.721   4.079 -1.8919 -0.3673 -0.4889
   95MOL   H16034188   5.866   1.838   4.191 -0.0583  1.2436 -0.3481
   95MOL   H16134189   5.758   1.772   4.376  2.5162 -0.9180  0.0705
   95MOL   H16234190   5.794   1.612   4.300 -1.3270  0.0291  1.6978
   95MOL   H16334191   5.635   1.678   4.292 -0.1401  0.1711 -1.2129
   95MOL   C16434192   5.253   1.773   3.880  0.0873 -0.8984  0.5571
   95MOL   C16534193   5.136   1.684   3.911  0.2116  0.6467 -0.0725
   95MOL   C16634194   5.091   1.720   4.050  0.6585  0.5153  0.5968
   95MOL   O16734195   5.012   1.815   4.075 -0.2106 -0.4869 -0.4099
   95MOL   O16834196   5.149   1.646   4.141 -0.0648 -0.2704  0.2915
   95MOL   C16934197   5.129   1.665   4.284  0.3472  0.2481  0.0115
   95MOL   C17034198   5.265   1.675   4.361  0.6609  0.4982 -0.4622
   95MOL   C17134199   5.236   1.697   4.512 -0.0739  0.9674  0.2208
   95MOL   H17234200   5.267   1.776   3.772  2.6670 -2.1514  0.8262
   95MOL   H17334201   5.238   1.875   3.915 -0.3133 -0.7092 -0.1616
   95MOL   H17434202   5.175   1.583   3.918 -1.0051  0.0518 -1.5149
   95MOL   H17534203   5.059   1.740   4.321 -0.9619 -1.3638  0.8414
   95MOL   H17634204   5.091   1.574   4.331  0.6267 -0.7891 -1.7337
   95MOL   H17734205   5.322   1.582   4.359 -0.5409 -0.2948  0.7984
   95MOL   H17834206   5.327   1.750   4.314 -1.2045  1.1005 -2.0557
   95MOL   H17934207   5.205   1.797   4.542 -0.1344  0.7679  0.8210
   95MOL   H18034208   5.320   1.672   4.577 -1.3098 -0.8987  1.1347
   95MOL   H18134209   5.147   1.638   4.535  0.1375 -0.0428 -1.4491
   95MOL   C18234210   5.030   1.699   3.794  0.6671  0.4547 -0.2637
   95MOL   C18334211   4.947   1.575   3.755  0.4241  0.2350 -0.5633
   95MOL   C18434212   5.040   1.455   3.702 -0.0600  1.1522 -0.5454
   95MOL   O18534213   5.039   1.342   3.753  0.0450 -0.0792  0.2561
   95MOL   O18634214   5.116   1.495   3.592  0.6531 -0.0594 -0.2997
   95MOL   C18734215   5.215   1.405   3.537  0.4507  0.1892  0.1508
   95MOL   C18834216   5.252   1.454   3.397  0.2048  0.2571 -0.7263
   95MOL   C18934217   5.335   1.348   3.334 -0.4479  0.4271 -0.3951
   95MOL   H19034218   5.079   1.723   3.700  2.9117  0.4042  0.8550
   95MOL   H19134219   4.958   1.778   3.814  0.0133 -0.0827 -0.4791
   95MOL   H19234220   4.882   1.598   3.670  0.9691  1.2618 -0.7101
   95MOL   H19334221   5.304   1.400   3.600  0.0676 -1.3716  0.5840
   95MOL   H19434222   5.187   1.300   3.546  2.8382 -0.4116  1.0442
   95MOL   H19534223   5.174   1.484   3.327  2.5063  0.5001 -3.2785
   95MOL   H19634224   5.315   1.543   3.394 -0.3014  0.6301 -0.3120
   95MOL   H19734225   5.349   1.377   3.230 -1.5674 -0.6055 -0.8502
   95MOL   H19834226   5.272   1.259   3.340  0.3241 -0.1107 -0.2213
   95MOL   H19934227   5.433   1.329   3.379 -0.1981  0.1121 -1.0611
   95MOL   C20034228   4.859   1.525   3.878 -0.3141 -0.4266 -0.3930
   95MOL   C20134229   4.703   1.522   3.844  0.3036 -0.2960  0.0818
   95MOL   C20234230   4.663   1.418   3.739 -0.1992 -0.3941  0.0249
   95MOL   O20334231   4.734   1.320   3.726 -0.5265  0.8056 -0.4645
   95MOL   O20434232   4.546   1.448   3.676  0.0110  0.1721  0.1535
   95MOL   C20534233   4.494   1.352   3.586 -0.5987 -0.0848 -0.3965
   95MOL   C20634234   4.386   1.417   3.505 -0.1437  1.0535  0.0782
   95MOL   C20734235   4.280   1.491   3.584  0.3323  0.1727 -0.7617
   95MOL   H20834236   4.883   1.597   3.955  0.2068 -0.5758 -0.4129
   95MOL   H20934237   4.896   1.436   3.928 -2.1579 -0.2628  1.3219
   95MOL   H21034238   4.679   1.616   3.794  0.5353 -0.9715 -1.3338
   95MOL   H21134239   4.569   1.304   3.522 -1.1378  0.2672 -1.2928
   95MOL   H21234240   4.453   1.284   3.660 -1.4440  0.1466 -0.6562
   95MOL   H21334241   4.439   1.476   3.430  0.0558  0.3054 -0.3793
   95MOL   H21434242   4.345   1.334   3.447  0.8252  0.3547  0.3949
   95MOL   H21534243   4.219   1.434   3.653  2.0094 -1.6207 -0.7389
   95MOL   H21634244   4.212   1.524   3.505  0.7554  0.9653 -0.8028
   95MOL   H21734245   4.311   1.579   3.640 -1.0741 -0.5905  1.2608
   95MOL   C21834246   4.610   1.534   3.967 -0.2074  0.3121  0.2816
   95MOL   C21934247   4.621   1.406   4.051  0.3655  0.5422 -0.3312
   95MOL   C22034248   4.630   1.433   4.198 -1.0375 -0.3253 -0.0014
   95MOL   O22134249   4.541   1.415   4.274  0.2765  0.0734 -0.0348
   95MOL   O22234250   4.748   1.479   4.235  0.5215 -0.1702 -0.1020
   95MOL   C22334251   4.768   1.516   4.372  0.2060 -0.0785 -0.5294
   95MOL   C22434252   4.742   1.663   4.387  0.2591 -0.3234 -0.8530
   95MOL   C22534253   4.773   1.729   4.524  0.2631 -0.2031  0.0577
   95MOL   H22634254   4.506   1.553   3.940  0.1027  2.6188  0.6036
   95MOL   H22734255   4.627   1.625   4.024  0.7605  0.4372 -0.1884
   95MOL   H22834256   4.714   1.355   4.028  0.9544  0.8922  1.1965
   95MOL   H22934257   4.705   1.466   4.445 -1.5091  1.0185 -1.2207
   95MOL   H23034258   4.869   1.491   4.404 -0.6526 -1.4891  1.1762
   95MOL   H23134259   4.766   1.720   4.297 -2.3002  0.6659 -0.9439
   95MOL   H23234260   4.634   1.677   4.393  0.5353  1.6612  0.2312
   95MOL   H23334261   4.880   1.746   4.522  0.5191 -1.7844  0.0532
   95MOL   H23434262   4.741   1.663   4.605  0.5383 -1.2295 -0.6625
   95MOL   H23534263   4.718   1.820   4.549 -0.8877 -1.0127  0.4925
   95MOL   C23634264   4.503   1.316   4.014 -0.2761  0.4771 -0.2584
   95MOL   C23734265   4.513   1.169   4.062 -1.2466  0.1112  0.4748
   95MOL   C23834266   4.373   1.109   4.042  0.5381  0.1632 -0.2124
   95MOL   O23934267   4.347   1.043   3.944  0.0505  0.5483 -0.4050
   95MOL   O24034268   4.284   1.151   4.133  0.5252  0.0328 -0.1237
   95MOL   C24134269   4.153   1.084   4.141 -0.7038 -0.2627 -0.3724
   95MOL   C24234270   4.034   1.179   4.177 -0.3319  0.0725 -0.4279
   95MOL   C24334271   4.018   1.295   4.071  0.0430  0.5555  0.0223
   95MOL   H24434272   4.496   1.315   3.905 -0.8632 -2.4931 -0.2379
   95MOL   H24534273   4.412   1.362   4.053  0.5947 -0.4148  2.9583
   95MOL   H24634274   4.527   1.170   4.170  1.5947 -3.0611  0.2275
   95MOL   H24734275   4.122   1.027   4.054 -1.8624  0.1856 -0.2655
   95MOL   H24834276   4.177   1.019   4.225  0.3637  0.2652 -0.2581
   95MOL   H24934277   3.950   1.111   4.187 -0.4272  0.1084 -0.9903
   95MOL   H25034278   4.051   1.235   4.269  2.3661  0.2041 -0.9453
   95MOL   H25134279   3.981   1.262   3.974 -0.0255  1.0945 -0.1369
   95MOL   H25234280   4.116   1.338   4.051  0.1577 -0.2872 -1.2623
   95MOL   H25334281   3.949   1.376   4.094  0.8429  1.0912  0.5648
   95MOL   C25434282   4.630   1.085   3.992  0.7019  0.1182 -0.6656
   95MOL   C25534283   4.694   0.964   4.079  0.1783  0.0531 -0.1220
   95MOL   C25634284   4.788   1.021   4.182 -0.1521 -0.1504  0.3654
   95MOL   O25734285   4.765   1.032   4.302 -0.0313  0.5829 -0.0737
   95MOL   O25834286   4.905   1.055   4.123  0.7234  0.4303 -0.3566
   95MOL   C25934287   5.006   1.101   4.206 -0.5956 -0.3328  0.1362
   95MOL   C26034288   5.016   1.252   4.201 -0.2016  0.2430  0.2834
   95MOL   C26134289   5.086   1.295   4.065  0.1172 -0.0745 -0.3537
   95MOL   H26234290   4.714   1.148   3.963  0.1973  0.8199 -0.6100
   95MOL   H26334291   4.603   1.044   3.895  0.1296 -0.3070 -0.3297
   95MOL   H26434292   4.751   0.908   4.005  0.5703  0.6963 -0.3170
   95MOL   H26534293   4.995   1.072   4.311  1.3977  1.2032  0.7950
   95MOL   H26634294   5.098   1.059   4.165 -0.7409 -0.6775  0.1589
   95MOL   H26734295   4.911   1.278   4.190  0.0173  0.9071 -0.2319
   95MOL   H26834296   5.070   1.310   4.276  0.7790  1.6268 -1.4815
   95MOL   H26934297   5.186   1.251   4.057 -0.1159 -0.4911 -1.0908
   95MOL   H27034298   5.082   1.403   4.073 -0.0321 -0.2251  2.0571
   95MOL   H27134299   5.027   1.280   3.975 -1.5349 -3.3517  1.1916
   95MOL   C27234300   4.603   0.862   4.152  0.1351  0.2541  0.4820
   95MOL   C27334301   4.508   0.770   4.078  0.3971 -0.1899 -0.0111
   95MOL   C27434302   4.568   0.700   3.957  0.1172  0.0684 -0.1377
   95MOL   O27534303   4.508   0.705   3.850 -0.0179 -0.0016  0.5056
   95MOL   O27634304   4.671   0.627   3.983 -0.3365 -0.4203 -0.1379
   95MOL   C27734305   4.709   0.533   3.881  1.1484 -0.0436 -0.2749
   95MOL   C27834306   4.815   0.433   3.930  0.1952  0.1360  0.5472
   95MOL   C27934307   4.788   0.373   4.069 -0.3165 -0.2806 -0.1936
   95MOL   H28034308   4.543   0.917   4.225  1.4820 -0.2074  1.9738
   95MOL   H28134309   4.656   0.797   4.222 -1.7013 -1.9611 -0.1088
   95MOL   H28234310   4.431   0.831   4.031  0.6204 -0.0853 -0.2439
   95MOL   H28334311   4.630   0.466   3.848  0.0017  1.1315  0.0589
   95MOL   H28434312   4.735   0.580   3.786 -2.0615 -1.8185 -2.1242
   95MOL   H28534313   4.836   0.354   3.857  0.3941 -0.1786  0.9394
   95MOL   H28634314   4.912   0.482   3.936  0.5110 -0.5319  0.9815
   95MOL   H28734315   4.793   0.448   4.148 -0.7120 -0.1064 -0.3346
   95MOL   H28834316   4.868   0.304   4.098 -0.7509 -0.6274  0.1989
   95MOL   H28934317   4.687   0.332   4.082 -0.6984 -0.0567 -2.2856
   95MOL   C29034318   4.429   0.671   4.169 -0.3472 -0.3504  1.0820
   95MOL   C29134319   4.307   0.601   4.103  0.2442 -0.1017 -0.0095
   95MOL   C29234320   4.263   0.471   4.176 -0.3567 -0.5122 -0.0740
   95MOL   O29334321   4.293   0.455   4.295 -0.3326 -0.2547 -0.1376
   95MOL   O29434322   4.199   0.383   4.095 -0.2255  0.3231  0.6467
   95MOL   C29534323   4.112   0.284   4.151 -0.0505  0.1888  0.3129
   95MOL   C29634324   4.020   0.224   4.043 -0.8342 -0.5661  0.0428
   95MOL   C29734325   3.905   0.149   4.109  0.4500 -0.6747 -0.6444
   95MOL   H29834326   4.395   0.725   4.257 -0.3572  0.1191  0.7907
   95MOL   H29934327   4.497   0.596   4.211  1.0400  1.8392  2.8718
   95MOL   H30034328   4.333   0.567   4.003  0.8050  0.0500  0.0839
   95MOL   H30134329   4.180   0.211   4.195  0.6783 -0.3761 -1.7081
   95MOL   H30234330   4.051   0.331   4.229 -0.2351 -0.4384  0.5485
   95MOL   H30334331   3.958   0.302   3.999 -2.2551 -0.9092  1.3906
   95MOL   H30434332   4.072   0.169   3.964 -0.5635 -0.4882  0.1674
   95MOL   H30534333   3.852   0.204   4.187 -0.3325 -1.2250 -0.7894
   95MOL   H30634334   3.953   0.055   4.137 -0.7332 -1.1528 -0.2129
   95MOL   H30734335   3.825   0.118   4.043  0.6214 -1.2384 -0.5869
   95MOL   C30834336   4.185   0.697   4.084  0.2824  0.8828  0.4309
   95MOL   C30934337   4.077   0.648   3.981  0.1204 -0.1573  0.1235
   95MOL   C31034338   3.943   0.716   4.018 -0.7856  0.6148  0.1632
   95MOL   O31134339   3.933   0.819   4.082 -0.9058  0.2323 -0.0317
   95MOL   O31234340   3.842   0.649   3.969  0.4430 -0.5789  0.6080
   95MOL   C31334341   3.711   0.670   4.011  0.3103 -1.0210  0.3447
   95MOL   C31434342   3.619   0.544   3.991 -0.3547 -0.2629  0.1592
   95MOL   C31534343   3.671   0.420   4.056  0.0470  0.5727  0.4181
   95MOL   H31634344   4.221   0.787   4.036 -0.9104  1.8538  1.3230
   95MOL   H31734345   4.141   0.729   4.178 -0.6025  2.0486 -0.3713
   95MOL   H31834346   4.053   0.543   3.998 -0.4076 -0.6275 -3.2200
   95MOL   H31934347   3.706   0.697   4.116 -1.1734 -0.1281  0.0498
   95MOL   H32034348   3.664   0.761   3.974  0.1321 -2.1709 -2.3962
   95MOL   H32134349   3.517   0.564   4.022 -0.3532  0.0256 -0.0287
   95MOL   H32234350   3.614   0.528   3.884  0.9840  1.9996 -0.2649
   95MOL   H32334351   3.671   0.431   4.164 -0.9994 -0.6089  0.5530
   95MOL   H32434352   3.611   0.335   4.023 -0.0851  0.9270 -0.2656
   95MOL   H32534353   3.773   0.404   4.022  0.1832 -0.4761  1.3016
   95MOL   C32634354   4.100   0.663   3.824  0.1299  0.0125  0.1219
   95MOL   C32734355   4.210   0.583   3.757  0.6734 -0.5565  0.2251
   95MOL   C32834356   4.209   0.428   3.758 -0.3383  0.0523 -0.5765
   95MOL   O32934357   4.106   0.360   3.761 -0.1596  0.4961  0.1155
   95MOL   O33034358   4.333   0.379   3.748  0.1621  0.0155  0.7069
   95MOL   C33134359   4.357   0.241   3.765 -0.8347  0.3808  0.0057
   95MOL   C33234360   4.436   0.203   3.896  0.7294  0.5140 -0.3059
   95MOL   C33334361   4.503   0.064   3.881  0.1313  0.3267 -0.2970
   95MOL   H33434362   4.112   0.769   3.803  0.5365  0.0368  0.4733
   95MOL   H33534363   4.012   0.625   3.771  0.3781 -0.1378 -0.1822
   95MOL   H33634364   4.300   0.613   3.812 -1.0093  1.8134  1.7649
   95MOL   H33734365   4.277   0.171   3.741  1.2420 -2.4745  1.0740
   95MOL   H33834366   4.425   0.215   3.684 -0.2264 -0.9526  0.9265
   95MOL   H33934367   4.516   0.276   3.910 -0.7251  1.6103  2.7051
   95MOL   H34034368   4.384   0.205   3.991 -0.4507 -4.1121 -0.7398
   95MOL   H34134369   4.569   0.043   3.796 -0.7452 -1.0754 -0.6282
   95MOL   H34234370   4.548   0.024   3.972  1.9960 -1.3405 -1.8783
   95MOL   H34334371   4.422   7.877   3.856 -0.2079  0.6613 -0.1036
   95MOL   C34434372   4.243   0.642   3.617 -0.1871 -0.6876 -0.5203
   95MOL   C34534373   4.143   0.609   3.497  0.1885 -0.1006 -0.1609
   95MOL   C34634374   4.006   0.691   3.503  0.4461  0.4256  0.0360
   95MOL   O34734375   3.895   0.639   3.515  0.0347  0.3607 -0.0373
   95MOL   O34834376   4.024   0.828   3.508 -0.3693 -0.1508  0.6602
   95MOL   C34934377   3.911   0.902   3.555 -0.2761 -0.2588 -0.4429
   95MOL   C35034378   3.954   1.048   3.570  0.5187 -0.3796  0.3171
   95MOL   C35134379   4.036   1.072   3.699 -0.5576 -0.1262 -0.4932
   95MOL   H35234380   4.338   0.603   3.581 -0.1283  0.2656 -1.4294
   95MOL   H35334381   4.265   0.747   3.634  0.0062 -0.9044  0.6245
   95MOL   H35434382   4.124   0.503   3.480  1.8083 -0.1753 -1.7217
   95MOL   H35534383   3.829   0.899   3.483 -1.3175  0.5648  0.6922
   95MOL   H35634384   3.885   0.864   3.654 -0.1263  0.3185 -0.1800
   95MOL   H35734385   3.995   1.085   3.476 -1.3263 -0.5321 -0.5684
   95MOL   H35834386   3.867   1.110   3.594 -0.4740 -0.8144 -2.0148
   95MOL   H35934387   4.097   0.983   3.717  0.2870  0.0905 -2.2160
   95MOL   H36034388   4.100   1.160   3.690 -0.4602 -0.0562  0.8236
   95MOL   H36134389   3.979   1.083   3.791 -0.7194 -0.3417 -0.5676
   95MOL   H36234390   4.191   0.638   3.403 -0.0960 -0.6073 -0.4616
   96MOL     C134391   6.598   3.576   1.611 -0.4757 -0.5152  0.0817
   96MOL     C234392   6.618   3.427   1.627 -0.9909 -0.2898  0.8112
   96MOL     C334393   6.552   3.374   1.756  0.2967  0.4060  0.8447
   96MOL     O434394   6.507   3.446   1.839 -0.2168 -0.1391 -0.0662
   96MOL     O534395   6.571   3.243   1.775 -0.3005  0.3464  0.2549
   96MOL     C634396   6.530   3.184   1.897  0.3035 -0.0569 -0.1581
   96MOL     C734397   6.640   3.182   1.999 -0.5284  0.2147 -0.4279
   96MOL     C834398   6.781   3.135   1.952 -0.0797  0.8300 -0.2928
   96MOL     H934399   6.635   3.617   1.518  0.8905  0.0481  0.8598
   96MOL    H1034400   6.493   3.603   1.623 -0.2324  0.1745  0.6831
   96MOL    H1134401   6.725   3.408   1.625 -0.6494  1.4844 -2.4718
   96MOL    H1234402   6.439   3.225   1.942  1.9565  1.5482  1.8060
   96MOL    H1334403   6.505   3.080   1.875  2.0939 -0.3866 -0.6815
   96MOL    H1434404   6.646   3.285   2.035 -1.4554 -0.2449  1.1196
   96MOL    H1534405   6.604   3.110   2.073  0.5760 -0.3961 -0.4754
   96MOL    H1634406   6.841   3.092   2.032  0.9250  0.4730 -1.2248
   96MOL    H1734407   6.770   3.058   1.876 -2.1841  0.1560  0.6807
   96MOL    H1834408   6.841   3.217   1.912 -0.0870  1.3171  0.6898
   96MOL    H1934409   6.657   3.629   1.686 -0.4682  1.1404 -1.0818
   96MOL    C2034410   6.560   3.342   1.503  0.0266  0.4183  0.1157
   96MOL    C2134411   6.631   3.381   1.366  0.0672  0.5131  0.0881
   96MOL    C2234412   6.782   3.360   1.370  0.2132  0.0922  0.2295
   96MOL    O2334413   6.861   3.448   1.337  0.0608  0.7474 -0.5946
   96MOL    O2434414   6.818   3.252   1.442  0.3030 -0.5171  0.1996
   96MOL    C2534415   6.955   3.223   1.470  1.2333 -0.1955  0.1630
   96MOL    C2634416   7.018   3.296   1.585 -0.3932 -0.3222  0.6305
   96MOL    C2734417   7.041   3.445   1.588  0.1552 -0.3965 -0.3533
   96MOL    H2834418   6.454   3.363   1.487  0.2234  1.0396 -0.4065
   96MOL    H2934419   6.562   3.234   1.513  0.9219  0.2764 -1.3278
   96MOL    H3034420   6.613   3.489   1.362  1.0443  0.6308 -1.6732
   96MOL    H3134421   6.953   3.118   1.501 -1.6179 -0.8420 -2.0318
   96MOL    H3234422   7.010   3.234   1.376  2.3622  0.7732  0.9178
   96MOL    H3334423   6.954   3.278   1.672 -0.6570 -1.1815  0.2667
   96MOL    H3434424   7.109   3.240   1.605  1.6051  2.7952  0.5020
   96MOL    H3534425   7.091   3.489   1.502 -0.6147  0.5104 -0.3532
   96MOL    H3634426   7.095   3.473   1.679  1.0209 -0.9716 -0.6930
   96MOL    H3734427   6.946   3.499   1.587  1.4717  2.0317  0.3933
   96MOL    C3834428   6.572   3.310   1.244 -0.6539 -0.0542  0.4026
   96MOL    C3934429   6.581   3.378   1.101 -0.3162  0.5207 -0.6468
   96MOL    C4034430   6.556   3.526   1.119 -0.1472  0.3769  0.8924
   96MOL    O4134431   6.633   3.614   1.086 -0.1412  0.3329 -0.2417
   96MOL    O4234432   6.430   3.550   1.164 -0.2134 -0.5685  0.7350
   96MOL    C4334433   6.393   3.677   1.202 -0.1111  0.0827  0.6232
   96MOL    C4434434   6.255   3.671   1.258  0.1567 -0.6856 -0.4412
   96MOL    C4534435   6.264   3.627   1.404  0.3092 -0.2408  0.7496
   96MOL    H4634436   6.468   3.283   1.263 -0.7856 -0.2512 -0.5535
   96MOL    H4734437   6.619   3.213   1.228 -0.7122 -0.0603  0.2665
   96MOL    H4834438   6.495   3.334   1.049  0.5510 -2.1378  0.0665
   96MOL    H4934439   6.462   3.733   1.266 -1.2420  2.0016  0.2001
   96MOL    H5034440   6.376   3.727   1.107 -1.3750 -1.6289 -0.0748
   96MOL    H5134441   6.219   3.774   1.252  1.2278 -0.3645 -1.5726
   96MOL    H5234442   6.193   3.603   1.198 -1.6470 -0.8452  1.5472
   96MOL    H5334443   6.319   3.704   1.459  0.5103 -0.3249  0.6679
   96MOL    H5434444   6.323   3.535   1.400 -0.5495 -0.8417  1.7248
   96MOL    H5534445   6.170   3.616   1.457 -0.0936 -0.8054 -0.0783
   96MOL    C5634446   6.700   3.344   1.010 -0.4561  0.4056  0.6413
   96MOL    C5734447   6.705   3.201   0.953 -0.3092 -0.0289 -0.4670
   96MOL    C5834448   6.627   3.184   0.824  0.9641  0.0257 -0.1528
   96MOL    O5934449   6.615   3.264   0.734  0.2395  0.7389 -0.1699
   96MOL    O6034450   6.582   3.059   0.806  0.0313 -0.2955 -0.0966
   96MOL    C6134451   6.505   3.036   0.688  1.1785  0.0333  0.5563
   96MOL    C6234452   6.480   2.889   0.666  0.2880  0.6362  0.1440
   96MOL    C6334453   6.400   2.857   0.533  0.1302 -0.7861 -0.0267
   96MOL    H6434454   6.785   3.371   1.072  0.5663 -0.0370 -0.5317
   96MOL    H6534455   6.702   3.416   0.928  1.0865  0.9812  1.1730
   96MOL    H6634456   6.673   3.116   1.015  0.4140 -0.7956 -1.1316
   96MOL    H6734457   6.409   3.087   0.695  0.3688 -1.4498  0.5255
   96MOL    H6834458   6.547   3.086   0.601  0.1260  2.0110  1.1414
   96MOL    H6934459   6.579   2.843   0.663  2.0387  4.1456  1.3923
   96MOL    H7034460   6.424   2.847   0.749 -0.6975  1.3396 -0.1569
   96MOL    H7134461   6.453   2.906   0.451  1.3457 -0.1183  1.1305
   96MOL    H7234462   6.308   2.915   0.536  0.1843 -0.7239  0.5025
   96MOL    H7334463   6.384   2.749   0.531 -0.8696 -0.6651  1.0652
   96MOL    C7434464   6.846   3.150   0.922  0.0569 -0.9626 -0.4557
   96MOL    C7534465   6.934   3.104   1.036 -0.5074  0.3197 -0.1018
   96MOL    C7634466   6.887   2.985   1.115 -0.1492  0.4410 -0.6447
   96MOL    O7734467   6.882   2.987   1.235  0.0761  0.7925  0.0906
   96MOL    O7834468   6.851   2.878   1.051  0.1990  0.0086 -0.3429
   96MOL    C7934469   6.792   2.771   1.121  0.0463 -0.5472 -0.8934
   96MOL    C8034470   6.751   2.654   1.031 -0.0804  0.2353  0.7203
   96MOL    C8134471   6.638   2.685   0.928  0.0881 -0.1670  0.3256
   96MOL    H8234472   6.901   3.228   0.868 -0.5730  1.0400  1.6933
   96MOL    H8334473   6.852   3.064   0.855 -2.3970 -0.2868 -1.6040
   96MOL    H8434474   6.959   3.182   1.107  0.9313  0.4353 -0.7041
   96MOL    H8534475   6.864   2.728   1.191  0.5824  0.1393 -1.0161
   96MOL    H8634476   6.703   2.803   1.175  1.5716  2.5982 -0.0900
   96MOL    H8734477   6.840   2.638   0.970 -1.0999  2.8108 -1.5909
   96MOL    H8834478   6.711   2.566   1.081 -2.5747  1.1021  0.3394
   96MOL    H8934479   6.659   2.771   0.864  1.4078 -0.3486  0.5039
   96MOL    H9034480   6.553   2.725   0.983 -0.1827 -2.3868  1.5563
   96MOL    H9134481   6.606   2.599   0.869 -0.0490 -0.2119  0.4656
   96MOL    C9234482   7.076   3.072   0.968  0.2244 -0.1859  0.2897
   96MOL    C9334483   7.200   3.051   1.054  0.1540  0.4780 -0.0024
   96MOL    C9434484   7.241   3.153   1.159  0.9038  0.1909 -0.5079
   96MOL    O9534485   7.163   3.247   1.192 -0.0253 -0.9486 -0.6343
   96MOL    O9634486   7.367   3.138   1.208  0.0072  0.0487 -0.1348
   96MOL    C9734487   7.422   3.236   1.307 -0.2768 -0.0614 -0.1169
   96MOL    C9834488   7.387   3.188   1.449 -0.0774 -0.5970  0.8982
   96MOL    C9934489   7.471   3.074   1.498  0.0172  0.1915 -0.3244
   96MOL   H10034490   7.112   3.153   0.904  1.2383 -0.9090 -0.0633
   96MOL   H10134491   7.055   2.979   0.916 -1.0414 -1.0815  2.3491
   96MOL   H10234492   7.272   3.074   0.976 -0.2317 -0.3057 -0.5944
   96MOL   H10334493   7.528   3.254   1.294 -0.0735 -1.6687 -0.7228
   96MOL   H10434494   7.361   3.324   1.286 -1.0545 -0.7571 -0.8443
   96MOL   H10534495   7.392   3.265   1.526 -4.0240 -0.1319  0.7778
   96MOL   H10634496   7.281   3.163   1.447 -0.5795  1.5093 -1.2343
   96MOL   H10734497   7.571   3.118   1.501 -0.2100  0.7027 -0.2415
   96MOL   H10834498   7.471   2.983   1.438  1.3659  0.7412 -1.1799
   96MOL   H10934499   7.437   3.039   1.596  2.1747 -1.2932 -0.0502
   96MOL   C11034500   7.214   2.902   1.108 -0.5615 -0.0448 -0.1147
   96MOL   C11134501   7.279   2.806   1.011 -0.1493  0.1425 -0.3984
   96MOL   C11234502   7.430   2.831   1.002  0.4602 -0.3124  0.5386
   96MOL   O11334503   7.476   2.869   0.890 -0.0366 -0.0808  0.1013
   96MOL   O11434504   7.503   2.828   1.114 -0.4956  0.0500 -0.3430
   96MOL   C11534505   7.649   2.831   1.109  0.6796  0.5170 -0.1655
   96MOL   C11634506   7.705   2.978   1.134 -0.4811  0.0552  0.0157
   96MOL   C11734507   7.709   3.070   1.011  0.3059  0.5476  0.0230
   96MOL   H11834508   7.116   2.862   1.133 -0.5547 -0.7752 -1.2497
   96MOL   H11934509   7.268   2.900   1.202 -1.2854  0.9064  0.3359
   96MOL   H12034510   7.234   2.828   0.914 -2.2839 -0.8794  0.3200
   96MOL   H12134511   7.685   2.769   1.191 -2.4315 -0.4171  0.5415
   96MOL   H12234512   7.685   2.797   1.012 -1.0931  0.3048 -0.7748
   96MOL   H12334513   7.654   3.029   1.215  3.2244  2.0263  1.2028
   96MOL   H12434514   7.807   2.961   1.168 -0.2005 -0.0547 -0.8558
   96MOL   H12534515   7.783   3.041   0.936  0.0989 -0.2346  0.1173
   96MOL   H12634516   7.736   3.170   1.045  1.5552 -0.3628  1.7706
   96MOL   H12734517   7.611   3.080   0.964  1.2573 -0.2849 -2.1963
   96MOL   C12834518   7.249   2.649   1.028 -0.3014 -0.2800  0.0945
   96MOL   C12934519   7.286   2.593   1.165  0.1047 -0.1394 -0.2630
   96MOL   C13034520   7.167   2.616   1.265 -0.2496 -0.2349  0.5218
   96MOL   O13134521   7.058   2.569   1.246  0.4161 -0.1515 -0.1393
   96MOL   O13234522   7.210   2.697   1.359  0.7538  0.5507  0.4580
   96MOL   C13334523   7.127   2.730   1.463 -0.2010  0.1603 -0.3675
   96MOL   C13434524   7.173   2.863   1.526  0.0310  0.0404  0.2381
   96MOL   C13534525   7.122   2.905   1.669 -0.4753  0.0873 -0.1472
   96MOL   H13634526   7.309   2.601   0.950 -0.4974 -2.2633  1.1366
   96MOL   H13734527   7.145   2.625   1.006 -1.5616  0.7909  4.4621
   96MOL   H13834528   7.367   2.654   1.204  0.5617 -1.3998  0.8028
   96MOL   H13934529   7.023   2.727   1.430 -0.3257 -0.8383  0.1002
   96MOL   H14034530   7.134   2.650   1.536 -2.7339  1.7690  1.7743
   96MOL   H14134531   7.282   2.862   1.530  0.1408 -0.6695 -1.9920
   96MOL   H14234532   7.142   2.946   1.463 -0.1546  0.6454  1.1156
   96MOL   H14334533   7.015   2.884   1.677 -0.3222 -0.3442  0.7217
   96MOL   H14434534   7.128   3.013   1.682 -2.4466  0.2866 -0.7251
   96MOL   H14534535   7.172   2.852   1.749  1.3063  0.9788 -0.6510
   96MOL   C14634536   7.326   2.439   1.166 -0.8059  0.2442 -0.4706
   96MOL   C14734537   7.470   2.400   1.117 -0.2278  0.3811 -0.7704
   96MOL   C14834538   7.574   2.452   1.215 -0.8102  0.4653  0.6247
   96MOL   O14934539   7.658   2.534   1.179  0.1483 -0.7384 -0.3601
   96MOL   O15034540   7.560   2.414   1.343 -0.2851 -0.3254  0.1881
   96MOL   C15134541   7.658   2.461   1.437 -0.6338 -0.1162 -0.1508
   96MOL   C15234542   7.608   2.591   1.495  0.2876 -0.0698 -0.3599
   96MOL   C15334543   7.456   2.581   1.537  0.4893 -1.4062 -0.7943
   96MOL   H15434544   7.250   2.392   1.103  1.6722 -2.1725 -1.7907
   96MOL   H15534545   7.314   2.409   1.270  2.4708  2.3698  0.5994
   96MOL   H15634546   7.488   2.447   1.020 -2.7234  0.7830 -1.0704
   96MOL   H15734547   7.668   2.389   1.518  1.9136 -1.2800 -1.4431
   96MOL   H15834548   7.760   2.466   1.400  0.1268 -1.2223  1.7044
   96MOL   H15934549   7.665   2.606   1.586  0.7254 -0.7721 -0.5142
   96MOL   H16034550   7.624   2.670   1.422 -1.3032  0.4228 -0.1844
   96MOL   H16134551   7.421   2.663   1.600 -1.4859 -1.8834 -1.2350
   96MOL   H16234552   7.431   2.485   1.580 -0.4872  0.0432  2.0003
   96MOL   H16334553   7.392   2.589   1.449  0.9118  0.2317 -0.9699
   96MOL   C16434554   7.474   2.248   1.093 -0.0666 -0.3249  0.2389
   96MOL   C16534555   7.607   2.199   1.019 -0.2028  0.9392 -0.0632
   96MOL   C16634556   7.623   2.047   1.050 -0.8594 -0.4908 -0.3143
   96MOL   O16734557   7.730   2.010   1.104 -0.8340 -0.0749 -0.4689
   96MOL   O16834558   7.511   1.972   1.020 -0.4231  0.1168  0.5271
   96MOL   C16934559   7.492   1.839   1.060  0.0317 -0.1406  0.1646
   96MOL   C17034560   7.457   1.841   1.210 -0.3042 -0.2546 -0.7886
   96MOL   C17134561   7.316   1.893   1.229 -0.0430  0.0540 -0.2370
   96MOL   H17234562   7.391   2.219   1.029 -0.4569  0.1656  0.5178
   96MOL   H17334563   7.458   2.191   1.185  1.3076 -1.3113 -0.1133
   96MOL   H17434564   7.701   2.238   1.059  0.2780 -1.1557  0.9073
   96MOL   H17534565   7.418   1.791   0.996  3.3636 -2.7920 -1.8670
   96MOL   H17634566   7.584   1.784   1.039  2.3096  3.1377  1.1858
   96MOL   H17734567   7.466   1.747   1.264  0.6512 -0.2912 -0.9979
   96MOL   H17834568   7.533   1.900   1.262 -0.5761 -1.2318  0.7827
   96MOL   H17934569   7.315   1.987   1.175  2.8680  0.1454 -0.1908
   96MOL   H18034570   7.280   1.910   1.331 -0.3630 -0.3660 -0.2775
   96MOL   H18134571   7.249   1.817   1.188 -1.5296  0.5463  1.2277
   96MOL   C18234572   7.597   2.215   0.871  0.4863  0.2702 -0.8419
   96MOL   C18334573   7.631   2.356   0.804 -0.2658  0.1367 -0.0515
   96MOL   C18434574   7.783   2.379   0.816 -0.5406  0.0098  0.9260
   96MOL   O18534575   7.867   2.296   0.845  0.4115  0.1330  0.4749
   96MOL   O18634576   7.812   2.510   0.794  0.4949 -0.1033  0.0843
   96MOL   C18734577   0.067   2.559   0.805 -0.2204 -0.3919 -0.3788
   96MOL   C18834578   0.127   2.566   0.666 -0.3044  0.7571 -0.4006
   96MOL   C18934579   0.054   2.659   0.571 -1.0555 -0.0342 -0.1543
   96MOL   H19034580   7.494   2.187   0.849  0.5655 -0.5645 -0.1911
   96MOL   H19134581   7.653   2.140   0.815  0.6949 -1.4954  1.6293
   96MOL   H19234582   7.572   2.435   0.850  0.8199 -0.5668  2.6224
   96MOL   H19334583   0.084   2.658   0.847  1.8828 -0.8145 -0.1535
   96MOL   H19434584   0.122   2.485   0.864  3.5037 -1.5591 -5.0026
   96MOL   H19534585   0.232   2.596   0.667  0.2035 -0.8336 -1.8325
   96MOL   H19634586   0.123   2.472   0.610 -1.2303  0.6113 -0.0996
   96MOL   H19734587   7.831   2.626   0.555 -0.8495 -0.5865 -0.3557
   96MOL   H19834588   0.109   2.660   0.477  1.6724 -0.6923  1.3740
   96MOL   H19934589   0.067   2.760   0.608 -1.4375  0.0726 -0.3019
   96MOL   C20034590   7.578   2.351   0.662  0.1531 -0.3722 -0.2984
   96MOL   C20134591   7.437   2.420   0.636  0.2491  0.4483 -0.1643
   96MOL   C20234592   7.320   2.348   0.709 -0.2195 -0.0940  0.3715
   96MOL   O20334593   7.244   2.399   0.796 -0.0858  0.3179  0.4141
   96MOL   O20434594   7.300   2.219   0.656  0.0134 -0.1419  0.0265
   96MOL   C20534595   7.195   2.143   0.714 -1.0628 -0.0679 -0.7837
   96MOL   C20634596   7.079   2.125   0.611  0.3229 -0.1129 -0.5350
   96MOL   C20734597   6.981   2.014   0.635  0.4834 -0.2413  0.3142
   96MOL   H20834598   7.585   2.254   0.611  0.0897 -0.1387 -0.7563
   96MOL   H20934599   7.648   2.404   0.597  1.1105 -0.9667  0.2444
   96MOL   H21034600   7.422   2.409   0.528 -0.2594  0.9640 -0.1482
   96MOL   H21134601   7.233   2.041   0.726 -2.9737 -0.7584 -0.4150
   96MOL   H21234602   7.173   2.167   0.818  2.0213 -0.0957 -0.0648
   96MOL   H21334603   7.024   2.218   0.598 -1.7922 -1.3252 -0.5130
   96MOL   H21434604   7.118   2.101   0.512 -0.4349 -2.8214 -0.2199
   96MOL   H21534605   6.909   2.000   0.554 -0.1576  0.8875  0.6833
   96MOL   H21634606   6.921   2.029   0.725  0.6287 -1.7140  0.6817
   96MOL   H21734607   7.043   1.924   0.624  0.1887 -0.4112  0.0425
   96MOL   C21834608   7.444   2.574   0.658  0.5685 -0.3612 -0.3415
   96MOL   C21934609   7.366   2.665   0.563  0.1058  0.1804 -0.3443
   96MOL   C22034610   7.216   2.645   0.559  0.3138  0.3356 -0.2692
   96MOL   O22134611   7.162   2.616   0.453 -0.3602  0.3177 -0.5213
   96MOL   O22234612   7.154   2.655   0.670 -0.1297  0.2042  0.6213
   96MOL   C22334613   7.026   2.600   0.689  0.5206  0.1357 -1.0406
   96MOL   C22434614   6.923   2.688   0.624  0.0410 -0.8381  0.1305
   96MOL   C22534615   6.904   2.827   0.675 -0.7269  0.4388  0.0162
   96MOL   H22634616   7.545   2.613   0.675 -0.4142  1.4285  1.7451
   96MOL   H22734617   7.406   2.579   0.760 -0.7869 -0.0679 -0.8608
   96MOL   H22834618   7.400   2.630   0.466  0.0744  1.9819 -1.0247
   96MOL   H22934619   7.017   2.501   0.645 -1.1485 -0.2438  0.1294
   96MOL   H23034620   7.019   2.594   0.797  4.5877  0.7470 -0.6495
   96MOL   H23134621   6.929   2.701   0.516  1.6206 -0.8067  0.2188
   96MOL   H23234622   6.821   2.648   0.624 -0.7958  1.2494 -0.1074
   96MOL   H23334623   6.987   2.890   0.643  1.6099 -2.3707  0.3489
   96MOL   H23434624   6.890   2.846   0.782 -0.1490 -0.4437  0.2551
   96MOL   H23534625   6.815   2.863   0.624  0.7265  3.9814 -0.1441
   96MOL   C23634626   7.392   2.818   0.566 -0.6773 -0.0209  0.0454
   96MOL   C23734627   7.520   2.865   0.497 -0.2581 -1.0022  0.0239
   96MOL   C23834628   7.553   2.785   0.365  0.1894  0.1636 -0.6357
   96MOL   O23934629   7.645   2.706   0.358 -0.1505  0.6170  0.0743
   96MOL   O24034630   7.481   2.826   0.262 -0.3574 -0.1734  0.1433
   96MOL   C24134631   7.515   2.781   0.130 -0.1215 -0.1173  0.2939
   96MOL   C24234632   7.430   2.849   0.022 -0.0528 -0.4343 -0.3750
   96MOL   C24334633   7.485   2.856   7.760  0.3126 -0.4722 -0.0315
   96MOL   H24434634   7.379   2.863   0.664 -2.9168 -0.2528 -0.1384
   96MOL   H24534635   7.310   2.867   0.514  0.4114 -0.0609 -1.7589
   96MOL   H24634636   7.607   2.834   0.555 -0.1973 -0.6817  0.1061
   96MOL   H24734637   7.618   2.817   0.119 -0.4475  1.6903  2.5969
   96MOL   H24834638   7.514   2.673   0.114  2.4624 -0.2182  0.5901
   96MOL   H24934639   7.323   2.826   0.017  0.1627 -1.5830  0.1021
   96MOL   H25034640   7.427   2.950   0.064  0.3790  0.2058 -1.8381
   96MOL   H25134641   7.426   2.931   7.707  1.4976  1.9351  1.9933
   96MOL   H25234642   7.487   2.758   7.712  1.7848 -1.2325  1.5351
   96MOL   H25334643   7.588   2.891   7.756  0.3962 -0.5697  1.0362
   96MOL   C25434644   7.531   3.020   0.480  0.5196  0.2810 -0.0602
   96MOL   C25534645   7.625   3.086   0.591 -0.4519 -0.0098 -0.0166
   96MOL   C25634646   7.776   3.051   0.577 -0.1549 -0.3002 -0.8316
   96MOL   O25734647   7.817   2.995   0.474 -0.4555  0.2685 -0.0716
   96MOL   O25834648   7.859   3.091   0.682  0.2274 -0.5287 -0.3378
   96MOL   C25934649   0.115   3.072   0.682  0.6087  1.0384  0.3777
   96MOL   C26034650   0.189   3.139   0.808  0.1118  0.2560  0.5936
   96MOL   C26134651   0.164   3.292   0.806 -1.3649  0.5128  0.6770
   96MOL   H26234652   7.430   3.059   0.489  1.2468  2.5683 -1.4181
   96MOL   H26334653   7.569   3.050   0.382 -0.1010 -0.1898 -0.4494
   96MOL   H26434654   7.588   3.044   0.684  2.1889 -2.6957 -0.1042
   96MOL   H26534655   0.135   2.965   0.684 -0.0828  0.9239  1.2723
   96MOL   H26634656   0.154   3.109   0.587 -2.1378 -0.0793 -1.2411
   96MOL   H26734657   0.147   3.092   0.897 -2.3845  0.6396 -0.3168
   96MOL   H26834658   0.297   3.128   0.811  0.1723  0.6437 -0.0406
   96MOL   H26934659   0.069   3.322   0.850 -0.2879  2.4311  1.7708
   96MOL   H27034660   0.172   3.314   0.700  0.1564 -2.7352  0.0545
   96MOL   H27134661   0.243   3.338   0.866  0.5506 -2.9500  1.0150
   96MOL   C27234662   7.617   3.241   0.586  0.2228  0.1568 -0.5407
   96MOL   C27334663   7.474   3.306   0.626  0.0323  0.8868 -0.6305
   96MOL   C27434664   7.449   3.295   0.779  0.3660  0.0217  0.1592
   96MOL   O27534665   7.346   3.243   0.816 -0.2162 -0.5468  0.1719
   96MOL   O27634666   7.547   3.362   0.855 -0.2857 -0.0521  0.0556
   96MOL   C27734667   7.519   3.382   0.992 -0.5727 -0.1037 -0.4711
   96MOL   C27834668   7.601   3.506   1.041 -0.5188  0.0635 -0.0985
   96MOL   C27934669   7.753   3.506   1.015 -0.0508  0.2132  0.6852
   96MOL   H28034670   7.640   3.275   0.486  0.6256  1.1856 -0.1009
   96MOL   H28134671   7.692   3.286   0.651  1.1246 -0.3985 -1.1787
   96MOL   H28234672   7.402   3.246   0.571 -1.1731  0.2606  1.5600
   96MOL   H28334673   7.414   3.411   1.006 -0.3840 -1.1855  3.5909
   96MOL   H28434674   7.538   3.299   1.058  2.0830 -0.2757 -1.3952
   96MOL   H28534675   7.543   3.589   1.002 -1.4379 -0.7979 -0.5901
   96MOL   H28634676   7.589   3.524   1.148  0.1189 -1.0756  0.1800
   96MOL   H28734677   7.786   3.465   0.920  1.1217 -0.4056  1.3542
   96MOL   H28834678   7.789   3.428   1.082  0.8982  0.4335  0.4389
   96MOL   H28934679   7.796   3.602   1.044 -2.0401  0.8910  1.4737
   96MOL   C29034680   7.464   3.456   0.578 -0.2974  0.2233 -0.1548
   96MOL   C29134681   7.359   3.475   0.469 -0.2065 -0.0401 -0.0084
   96MOL   C29234682   7.330   3.626   0.432 -0.2691 -0.2557 -0.0356
   96MOL   O29334683   7.218   3.677   0.443  0.0504  0.1845  0.9944
   96MOL   O29434684   7.439   3.682   0.382 -0.8520 -0.2122 -0.1361
   96MOL   C29534685   7.441   3.816   0.346 -1.3090 -0.5675  0.5641
   96MOL   C29634686   7.574   3.826   0.267 -0.3380 -0.2819  0.0694
   96MOL   C29734687   7.571   3.765   0.121 -0.3071  0.0152  0.0521
   96MOL   H29834688   7.558   3.495   0.541 -1.5924  0.2687 -3.5637
   96MOL   H29934689   7.436   3.513   0.667 -1.8230 -1.2259  0.3213
   96MOL   H30034690   7.261   3.442   0.503 -0.5211  2.3712  1.5131
   96MOL   H30134691   7.358   3.851   0.285 -1.8452  0.0451  1.6155
   96MOL   H30234692   7.454   3.886   0.429  0.6338  1.1427 -1.1363
   96MOL   H30334693   7.605   3.930   0.254  1.2028 -0.8315 -0.8781
   96MOL   H30434694   7.651   3.774   0.323  0.0837  0.3187  0.0611
   96MOL   H30534695   7.663   3.797   0.072  1.1625 -0.1131  2.6263
   96MOL   H30634696   7.488   3.801   0.059 -1.8826  0.7625  2.4749
   96MOL   H30734697   7.583   3.658   0.112 -1.7856  0.0175 -2.4804
   96MOL   C30834698   7.403   3.398   0.338  0.8638 -0.6847  0.8325
   96MOL   C30934699   7.299   3.336   0.239  0.4557 -0.1462 -0.4550
   96MOL   C31034700   7.220   3.217   0.308 -0.1981  0.4106 -0.2616
   96MOL   O31134701   7.225   3.101   0.264  0.3470  0.3411  0.2300
   96MOL   O31234702   7.140   3.258   0.410  0.3741 -0.6281 -0.1091
   96MOL   C31334703   7.058   3.166   0.483  0.0177 -0.0347 -1.3419
   96MOL   C31434704   7.019   3.230   0.613 -0.1320 -0.3662 -0.1816
   96MOL   C31534705   6.907   3.334   0.606  0.2633 -0.1967 -0.3833
   96MOL   H31634706   7.477   3.319   0.351 -0.1787 -2.0121 -1.0451
   96MOL   H31734707   7.465   3.464   0.276  0.7447 -0.8717  0.5093
   96MOL   H31834708   7.346   3.295   0.150  0.0375 -0.6076 -0.4673
   96MOL   H31934709   6.968   3.139   0.427  0.0269 -0.3322 -1.2115
   96MOL   H32034710   7.120   3.081   0.511 -0.8754 -0.3189 -0.1920
   96MOL   H32134711   6.975   3.148   0.669  2.0986 -0.9012  0.8298
   96MOL   H32234712   7.112   3.253   0.665  1.1124 -0.8034 -2.1427
   96MOL   H32334713   6.812   3.300   0.564  0.2818  0.4699 -0.9748
   96MOL   H32434714   6.883   3.381   0.701 -1.4663  0.7464 -1.2570
   96MOL   H32534715   6.926   3.419   0.541  0.0567  0.2022  0.0719
   96MOL   C32634716   7.199   3.442   0.187 -0.8140  0.6337  0.2152
   96MOL   C32734717   7.253   3.548   0.096 -0.0907  0.1240 -0.0646
   96MOL   C32834718   7.277   3.490   7.836  0.8968 -0.8307 -0.6487
   96MOL   O32934719   7.188   3.439   7.770  1.2475  0.6989  0.3874
   96MOL   O33034720   7.404   3.499   7.788  0.3806  0.1821 -0.0505
   96MOL   C33134721   7.439   3.465   7.656 -0.4575 -0.0496 -0.1222
   96MOL   C33234722   7.590   3.470   7.662 -0.1887  0.2265  0.0142
   96MOL   C33334723   7.661   3.459   7.524 -0.8569 -0.0619 -0.4354
   96MOL   H33434724   7.150   3.479   0.277  0.1030 -0.5508  1.2196
   96MOL   H33534725   7.118   3.390   0.136 -1.9301  2.9811 -0.4676
   96MOL   H33634726   7.344   3.587   0.140 -0.1592  0.6364 -0.3725
   96MOL   H33734727   7.408   3.362   7.636 -2.2223  0.9434 -2.7672
   96MOL   H33834728   7.408   3.529   7.573  0.0615 -0.3479 -0.5553
   96MOL   H33934729   7.618   3.567   7.703 -2.0277  0.0142  1.8790
   96MOL   H34034730   7.634   3.397   7.730 -1.7728  0.5694  1.4613
   96MOL   H34134731   7.635   3.371   7.466 -3.0175  0.1217  0.1832
   96MOL   H34234732   7.615   3.538   7.464  1.1652  1.2766 -0.2787
   96MOL   H34334733   7.769   3.476   7.527 -0.5971 -1.5335 -1.1190
   96MOL   C34434734   7.159   3.674   0.088  0.1566 -0.7729 -0.2006
   96MOL   C34534735   7.037   3.677   7.879 -0.1737  0.3469  0.2092
   96MOL   C34634736   6.919   3.592   0.050  0.5189 -0.1413 -0.1372
   96MOL   O34734737   6.884   3.493   7.864  0.1674 -0.2348  0.2312
   96MOL   O34834738   6.877   3.630   0.171  0.4165 -0.0562  0.0332
   96MOL   C34934739   6.782   3.549   0.241 -0.2847  0.3071 -0.0607
   96MOL   C35034740   6.763   3.613   0.376 -0.2325  0.4908  0.0317
   96MOL   C35134741   6.680   3.746   0.373 -0.8820  0.5036 -0.0034
   96MOL   H35234742   7.227   3.758   0.076 -0.8892 -0.1819 -2.1892
   96MOL   H35334743   7.122   3.683   0.191  0.2845  0.6953 -0.2765
   96MOL   H35434744   7.064   3.662   7.774 -1.5228 -0.3545 -0.0537
   96MOL   H35534745   6.684   3.545   0.193  0.4978  0.3962 -1.7254
   96MOL   H35634746   6.811   3.444   0.248  4.0745  1.4405  0.4306
   96MOL   H35734747   6.704   3.544   0.437  1.5877 -0.8452  0.3202
   96MOL   H35834748   6.861   3.632   0.420 -1.3772  0.2387  2.8195
   96MOL   H35934749   6.584   3.727   0.325 -0.4063 -2.5810  0.1160
   96MOL   H36034750   6.668   3.781   0.476 -0.5688 -0.4071  0.3540
   96MOL   H36134751   6.731   3.829   0.324  0.2022  0.7406  1.4774
   96MOL   H36234752   6.998   3.778   7.865  2.1944  1.0807 -1.3579
   97MOL     C134753   1.293   0.703   1.109 -0.3423  0.3111  0.9929
   97MOL     C234754   1.187   0.773   1.199 -0.2306  0.4995 -0.1824
   97MOL     C334755   1.148   0.909   1.145  0.4511  0.3347  0.0790
   97MOL     O434756   1.157   1.009   1.223 -0.7590 -0.4160  1.1629
   97MOL     O534757   1.103   0.902   1.019 -0.0674 -0.1518 -0.2452
   97MOL     C634758   1.070   1.022   0.951  0.4873 -0.2969  0.1846
   97MOL     C734759   0.923   1.047   0.968  0.4631  0.2736  0.7483
   97MOL     C834760   0.869   1.178   0.907  0.1202  0.8552 -0.2994
   97MOL     H934761   1.245   0.664   1.019  2.9249  0.6896 -0.9647
   97MOL    H1034762   1.374   0.773   1.088  0.1367 -0.6923 -0.5994
   97MOL    H1134763   1.237   0.796   1.293  0.5097  0.5818 -0.5971
   97MOL    H1234764   1.125   1.113   0.978 -0.8319  0.6478 -0.2734
   97MOL    H1334765   1.099   0.988   0.851  0.6243 -1.6572  0.6806
   97MOL    H1434766   0.867   0.962   0.929  0.9331 -0.2544  1.2210
   97MOL    H1534767   0.894   1.061   1.072  0.1278  0.0420  0.6862
   97MOL    H1634768   0.836   1.181   0.804  0.8793 -0.1793 -0.5853
   97MOL    H1734769   0.783   1.214   0.964 -0.7063 -1.3578 -0.1025
   97MOL    H1834770   0.945   1.256   0.916 -0.0129  0.8880  0.6306
   97MOL    H1934771   1.344   0.625   1.165  1.8114  1.3825  0.5770
   97MOL    C2034772   1.058   0.689   1.231  0.4140 -1.0212 -0.5424
   97MOL    C2134773   1.054   0.597   1.351  0.2900 -0.6271  0.1332
   97MOL    C2234774   1.148   0.476   1.330  0.6419 -0.1424  0.3527
   97MOL    O2334775   1.264   0.476   1.376 -0.3784  0.9292 -0.6904
   97MOL    O2434776   1.095   0.377   1.250 -0.2230 -0.6810 -0.0678
   97MOL    C2534777   1.187   0.271   1.206  0.2113 -0.5852  0.0186
   97MOL    C2634778   1.116   0.137   1.189  0.0433 -0.1896  0.0579
   97MOL    C2734779   1.218   0.037   1.119  0.5518 -0.1298  0.3754
   97MOL    H2834780   1.029   0.633   1.142  2.6445 -1.0994 -1.2554
   97MOL    H2934781   0.971   0.754   1.239  1.0393 -0.1644 -0.6584
   97MOL    H3034782   0.956   0.549   1.351  0.3319 -0.7132  0.1533
   97MOL    H3134783   1.204   0.310   1.106 -1.3381  0.0513 -0.0198
   97MOL    H3234784   1.278   0.257   1.263 -0.4273  0.0870  1.2313
   97MOL    H3334785   1.095   0.086   1.283  3.4213 -2.5960 -0.3818
   97MOL    H3434786   1.029   0.149   1.125  1.7973  0.8555 -2.2258
   97MOL    H3534787   1.169   7.820   1.110 -3.1579  1.8805 -2.3855
   97MOL    H3634788   1.305   0.019   1.182 -0.9516 -1.5261  2.1061
   97MOL    H3734789   1.263   0.062   1.023  1.8905 -2.2573  0.4057
   97MOL    C3834790   1.069   0.670   1.487  0.2210  0.4061  0.1100
   97MOL    C3934791   0.961   0.774   1.515 -0.1240  0.2827 -0.1851
   97MOL    C4034792   0.822   0.709   1.525  0.3468  0.1193  0.5444
   97MOL    O4134793   0.785   0.649   1.622  0.4909  0.0015 -0.0212
   97MOL    O4234794   0.753   0.750   1.417  0.2545  0.7022 -0.3895
   97MOL    C4334795   0.624   0.699   1.380  0.3258  0.4850 -0.2045
   97MOL    C4434796   0.648   0.681   1.227  0.2644  0.3541 -0.1888
   97MOL    C4534797   0.661   0.810   1.149 -0.8407 -0.1779 -0.0825
   97MOL    H4634798   1.156   0.735   1.482 -1.3678  2.7424  1.6634
   97MOL    H4734799   1.079   0.601   1.570 -0.6769  1.3549  1.0235
   97MOL    H4834800   0.968   0.843   1.431  1.5796 -0.7922 -0.9517
   97MOL    H4934801   0.601   0.606   1.433 -1.8684 -0.8170 -3.2561
   97MOL    H5034802   0.542   0.768   1.401  1.8339  1.6313  2.0962
   97MOL    H5134803   0.737   0.624   1.201 -1.1498 -1.4424 -1.1249
   97MOL    H5234804   0.564   0.629   1.182 -0.5919  0.7531  0.9355
   97MOL    H5334805   0.743   0.868   1.192  0.8938 -2.3019 -0.4660
   97MOL    H5434806   0.578   0.881   1.151 -1.2276 -0.6414  0.6057
   97MOL    H5534807   0.678   0.781   1.046  2.1398 -0.2258  0.3985
   97MOL    C5634808   0.993   0.869   1.637 -0.1206  1.1584  0.0454
   97MOL    C5734809   1.076   0.827   1.759  0.2874 -0.6724  0.1343
   97MOL    C5834810   1.145   0.955   1.822  0.1816  0.3744  0.4783
   97MOL    O5934811   1.265   0.949   1.857 -0.5199  0.3676 -0.2278
   97MOL    O6034812   1.052   1.061   1.839 -0.2942 -0.1540 -0.4071
   97MOL    C6134813   1.108   1.190   1.876 -0.8849  0.1437  0.2956
   97MOL    C6234814   1.015   1.303   1.826  0.2663 -0.0794  0.2353
   97MOL    C6334815   1.044   1.341   1.685 -0.1273  0.0595  0.6146
   97MOL    H6434816   0.896   0.907   1.670 -0.0518  2.0467 -0.7491
   97MOL    H6534817   1.038   0.962   1.603  1.4697  0.1199 -0.7435
   97MOL    H6634818   1.157   0.762   1.727  1.5442  2.3310 -3.1439
   97MOL    H6734819   1.113   1.187   1.985  0.3552 -0.0819  0.2459
   97MOL    H6834820   1.210   1.199   1.839 -0.0075 -3.1164  1.7266
   97MOL    H6934821   0.910   1.281   1.844  0.2764  0.5259  1.0834
   97MOL    H7034822   1.025   1.397   1.881  0.1325 -0.4012  0.8068
   97MOL    H7134823   1.030   1.264   1.609  0.1987 -0.9847  1.6002
   97MOL    H7234824   1.146   1.374   1.671 -0.1794  0.9386  2.1678
   97MOL    H7334825   0.967   1.417   1.667  2.3883  2.8795  1.3781
   97MOL    C7434826   0.996   0.762   1.870 -0.5091 -0.0912  0.0404
   97MOL    C7534827   1.069   0.693   1.990  0.5062 -0.4813 -0.6442
   97MOL    C7634828   1.177   0.594   1.959  0.8485 -0.0221  0.8747
   97MOL    O7734829   1.297   0.621   1.970  0.9435 -0.3320 -0.2588
   97MOL    O7834830   1.124   0.473   1.922 -0.3504  0.2756 -0.1572
   97MOL    C7934831   1.213   0.368   1.912 -0.1948  0.1624  0.2475
   97MOL    C8034832   1.214   0.328   1.760  0.2956 -0.0434 -0.4705
   97MOL    C8134833   1.107   0.228   1.723 -0.5605 -0.2996  0.4164
   97MOL    H8234834   0.955   0.677   1.815 -0.1436  0.6560 -1.3883
   97MOL    H8334835   0.912   0.825   1.899 -0.2622  1.0257 -1.6393
   97MOL    H8434836   0.995   0.623   2.030 -1.0249  1.9140  0.8347
   97MOL    H8534837   1.314   0.387   1.948  0.6015 -2.2667 -0.6109
   97MOL    H8634838   1.176   0.287   1.974 -0.5515  0.8521  0.9426
   97MOL    H8734839   1.207   0.416   1.695 -0.1467 -0.2271 -0.6688
   97MOL    H8834840   1.311   0.287   1.731  0.3849  0.9449 -1.6039
   97MOL    H8934841   1.118   0.135   1.779 -1.0123  0.8542  2.4997
   97MOL    H9034842   1.128   0.202   1.620  2.1357 -1.4296  1.2225
   97MOL    H9134843   1.002   0.255   1.739 -0.7538 -1.7935  1.7947
   97MOL    C9234844   1.101   0.792   2.106  0.3870 -0.3895  0.5592
   97MOL    C9334845   0.990   0.878   2.176  0.1755  0.3492 -0.0142
   97MOL    C9434846   0.884   0.779   2.236 -0.4758 -0.8133 -0.3547
   97MOL    O9534847   0.766   0.792   2.211 -0.9294  0.0631  0.1728
   97MOL    O9634848   0.939   0.689   2.325  0.3139  0.1162 -0.0473
   97MOL    C9734849   0.858   0.608   2.406 -0.5522 -0.0460  0.0998
   97MOL    C9834850   0.812   0.485   2.324  0.8612  0.7154 -0.2875
   97MOL    C9934851   0.926   0.388   2.277  0.9747  0.0060  0.4591
   97MOL   H10034852   1.175   0.858   2.061 -0.8492  0.2923 -0.5170
   97MOL   H10134853   1.149   0.739   2.188  2.8744  1.8053  0.6016
   97MOL   H10234854   0.943   0.927   2.090  0.6333 -2.2411 -1.8237
   97MOL   H10334855   0.926   0.567   2.480  1.1425  2.4846 -0.0130
   97MOL   H10434856   0.781   0.655   2.466  1.2869  2.9164  0.2210
   97MOL   H10534857   0.739   0.435   2.389 -0.5652  3.3101  0.1987
   97MOL   H10634858   0.741   0.511   2.245  0.6548 -2.1415 -1.1033
   97MOL   H10734859   0.988   0.369   2.365  3.3110  1.2297 -0.8484
   97MOL   H10834860   0.983   0.438   2.198  0.4792  2.2209  1.4448
   97MOL   H10934861   0.898   0.289   2.241  0.5740  0.6353 -1.0082
   97MOL   C11034862   1.042   0.983   2.271 -0.5264 -0.1373  0.0197
   97MOL   C11134863   0.945   1.073   2.336 -0.4260 -0.1430 -0.8858
   97MOL   C11234864   0.959   1.080   2.491 -0.0655 -0.0267 -0.0129
   97MOL   O11334865   0.871   1.027   2.554 -0.3555  0.6019  0.2532
   97MOL   O11434866   1.073   1.142   2.539  0.4811 -0.0167 -0.2962
   97MOL   C11534867   1.102   1.141   2.673  0.0589  1.0729 -0.3773
   97MOL   C11634868   1.208   1.034   2.690  0.2496  0.8854  1.0704
   97MOL   C11734869   1.156   0.893   2.697  0.8518  0.7524  0.1693
   97MOL   H11834870   1.115   1.034   2.207  0.1083 -1.3500 -0.2517
   97MOL   H11934871   1.101   0.934   2.349 -0.5581  2.2272  1.5635
   97MOL   H12034872   0.846   1.031   2.316 -0.6694 -2.0842  3.7135
   97MOL   H12134873   1.142   1.233   2.716  2.0207 -0.2735  0.8053
   97MOL   H12234874   1.006   1.114   2.716 -0.8833  0.8471 -2.5474
   97MOL   H12334875   1.286   1.042   2.614 -0.2494  0.2634  0.4877
   97MOL   H12434876   1.258   1.052   2.785 -0.9515 -0.4552  1.9780
   97MOL   H12534877   1.144   0.831   2.607  0.1595 -1.2313  1.5859
   97MOL   H12634878   1.062   0.878   2.750  0.1912  0.4006 -1.0684
   97MOL   H12734879   1.231   0.823   2.732 -0.9266 -0.2651  2.0708
   97MOL   C12834880   0.951   1.216   2.263 -0.4152 -0.4279 -0.2844
   97MOL   C12934881   0.815   1.273   2.227  0.2847 -0.3438  0.0175
   97MOL   C13034882   0.744   1.204   2.107 -0.0710  0.5089  0.6484
   97MOL   O13134883   0.787   1.104   2.050 -0.1382 -0.6356  0.0260
   97MOL   O13234884   0.630   1.264   2.065  0.0499  0.7921 -0.6744
   97MOL   C13334885   0.545   1.201   1.971 -0.6286  0.4928 -0.3852
   97MOL   C13434886   0.464   1.312   1.912  0.4111  0.7044  0.5730
   97MOL   C13534887   0.357   1.276   1.801  0.1004  0.5529  0.2919
   97MOL   H13634888   1.001   1.210   2.167 -0.4447  3.7333 -0.6688
   97MOL   H13734889   1.014   1.291   2.311 -1.9546  2.3707 -2.4731
   97MOL   H13834890   0.843   1.375   2.201  3.2002 -0.9965  0.4056
   97MOL   H13934891   0.601   1.143   1.898 -0.1971 -0.1157  0.4122
   97MOL   H14034892   0.471   1.141   2.024 -1.5254  1.3280 -0.6762
   97MOL   H14134893   0.417   1.382   1.982 -0.4301  0.2807  0.4417
   97MOL   H14234894   0.533   1.375   1.855  0.2937 -0.1675 -0.5512
   97MOL   H14334895   0.279   1.207   1.832 -2.1030  1.3744 -3.2440
   97MOL   H14434896   0.396   1.245   1.704 -1.7138  0.3159 -0.3690
   97MOL   H14534897   0.312   1.372   1.777 -3.7358 -1.3200 -0.4571
   97MOL   C14634898   0.715   1.288   2.343  0.1009 -0.1489 -0.0139
   97MOL   C14734899   0.753   1.381   2.465 -0.0951  0.1839 -0.1544
   97MOL   C14834900   0.798   1.517   2.413 -0.7549 -0.5354 -0.3168
   97MOL   O14934901   0.755   1.578   2.321 -0.2159  0.4041 -0.2502
   97MOL   O15034902   0.890   1.571   2.503 -0.5541 -0.3589  0.2134
   97MOL   C15134903   0.938   1.704   2.490  0.1330 -0.0724  0.8097
   97MOL   C15234904   0.882   1.792   2.613  0.4788 -0.2839  0.1015
   97MOL   C15334905   0.747   1.842   2.584 -0.2790  0.1744  0.4056
   97MOL   H15434906   0.689   1.187   2.374 -2.2780  0.4492 -0.0113
   97MOL   H15534907   0.618   1.325   2.312 -0.4722  0.9172  2.8227
   97MOL   H15634908   0.834   1.344   2.527  0.4861  0.5389 -0.6950
   97MOL   H15734909   1.046   1.696   2.485  0.3343  1.6603  1.9158
   97MOL   H15834910   0.911   1.751   2.395  1.5147  1.8836  1.3606
   97MOL   H15934911   0.871   1.733   2.704  0.1552 -2.6016 -1.4228
   97MOL   H16034912   0.952   1.874   2.632 -0.2769  0.1582  1.0308
   97MOL   H16134913   0.725   1.856   2.478 -0.6373 -2.8254  0.0379
   97MOL   H16234914   0.719   1.937   2.630 -0.9260  1.4498 -2.4985
   97MOL   H16334915   0.672   1.768   2.612 -1.1088  0.2576 -1.4918
   97MOL   C16434916   0.634   1.397   2.566  0.2930 -0.1485  0.6780
   97MOL   C16534917   0.589   1.270   2.635  0.0989  0.4828  0.7423
   97MOL   C16634918   0.699   1.214   2.728  0.1318 -0.2767  0.2196
   97MOL   O16734919   0.784   1.298   2.775 -0.6089  0.5443 -0.6508
   97MOL   O16834920   0.673   1.089   2.759 -0.7753  0.0577 -0.4067
   97MOL   C16934921   0.743   1.035   2.868  0.6991  0.5938 -0.2411
   97MOL   C17034922   0.674   1.061   3.005  0.4773 -0.1288  0.6603
   97MOL   C17134923   0.540   1.002   3.013 -0.1991 -0.4088  0.1327
   97MOL   H17234924   0.552   1.449   2.516  1.0140  2.6471  2.2852
   97MOL   H17334925   0.668   1.466   2.643  0.6330 -0.5159  0.8600
   97MOL   H17434926   0.571   1.191   2.561 -0.1548  1.7915 -0.6255
   97MOL   H17534927   0.744   0.927   2.853  0.3008  0.2149  2.1637
   97MOL   H17634928   0.844   1.075   2.862  1.0232 -0.3434 -1.2583
   97MOL   H17734929   0.739   1.022   3.084  1.6736  1.7294  0.6196
   97MOL   H17834930   0.665   1.167   3.030  0.2754  0.1886 -0.7536
   97MOL   H17934931   0.503   1.043   3.107 -0.9978 -1.7851  0.4352
   97MOL   H18034932   0.541   0.893   3.005 -1.7136 -0.3098 -1.7931
   97MOL   H18134933   0.477   1.039   2.931  2.4148  1.7848 -0.9721
   97MOL   C18234934   0.454   1.284   2.713  0.0846  0.2254 -0.8160
   97MOL   C18334935   0.462   1.372   2.835 -0.1667 -0.1502  0.3896
   97MOL   C18434936   0.452   1.521   2.798 -0.1577 -0.1998 -0.1972
   97MOL   O18534937   0.522   1.605   2.850  0.2234  0.2504  0.1191
   97MOL   O18634938   0.351   1.546   2.710 -0.3995  0.0224 -0.4976
   97MOL   C18734939   0.327   1.683   2.684  0.1403 -0.5969 -0.3358
   97MOL   C18834940   0.171   1.698   2.668 -0.1490 -0.2299 -0.0962
   97MOL   C18934941   0.109   1.632   2.545  0.9447  0.1264  0.0495
   97MOL   H19034942   0.433   1.186   2.758  0.3575  1.1177  1.3101
   97MOL   H19134943   0.377   1.313   2.642  1.2972  0.8568 -1.8756
   97MOL   H19234944   0.563   1.368   2.874 -0.4521  0.4154  1.1850
   97MOL   H19334945   0.357   1.750   2.765 -0.6930  1.1109 -1.4233
   97MOL   H19434946   0.388   1.717   2.601  3.1495  1.1598  2.4983
   97MOL   H19534947   0.115   1.681   2.760  0.0661 -0.3860  0.0058
   97MOL   H19634948   0.147   1.804   2.657 -0.0339 -0.4581 -2.7916
   97MOL   H19734949   0.138   1.527   2.550 -0.7450 -0.3773 -0.2880
   97MOL   H19834950   0.143   1.676   2.452  0.5728 -0.5076 -0.3928
   97MOL   H19934951   0.001   1.635   2.536  0.6460 -1.5124  2.5338
   97MOL   C20034952   0.371   1.338   2.959 -0.3448 -0.1824 -0.2792
   97MOL   C20134953   0.219   1.317   2.904  1.1108 -0.3071 -0.2216
   97MOL   C20234954   0.185   1.178   2.867  0.6949  0.1972  0.1747
   97MOL   O20334955   0.163   1.147   2.753 -0.3879  0.3891  0.0372
   97MOL   O20434956   0.185   1.099   2.975 -0.1226  0.3794 -0.2289
   97MOL   C20534957   0.179   0.956   2.963 -0.0173  0.9412 -0.1586
   97MOL   C20634958   0.032   0.900   2.927 -0.5320 -0.0779  0.2166
   97MOL   C20734959   0.020   0.756   2.946 -0.3620  0.7740 -0.4493
   97MOL   H20834960   0.368   1.412   3.039 -0.2365 -0.1344 -0.3195
   97MOL   H20934961   0.405   1.248   3.010  1.7760  1.9534  2.2383
   97MOL   H21034962   0.207   1.376   2.814  3.6086  0.6964  0.0827
   97MOL   H21134963   0.256   0.928   2.891 -1.5178  1.4823 -2.0232
   97MOL   H21234964   0.215   0.901   3.049 -1.5933  0.5074  0.2367
   97MOL   H21334965   7.842   0.951   2.993 -0.7617 -0.1893  0.0544
   97MOL   H21434966   0.002   0.917   2.824  2.0998  2.5212 -0.1918
   97MOL   H21534967   0.097   0.696   2.897  0.5812  2.0848 -0.5693
   97MOL   H21634968   7.804   0.720   2.909 -0.4624  1.0390 -0.4394
   97MOL   H21734969   0.027   0.719   3.048  0.3198 -0.7351 -1.0165
   97MOL   C21834970   0.125   1.369   3.008 -0.1376 -0.3465 -0.0999
   97MOL   C21934971   7.853   1.326   3.002 -0.3081  0.6003 -0.2688
   97MOL   C22034972   7.794   1.335   3.142 -0.2686 -0.1651 -0.7662
   97MOL   O22134973   7.788   1.238   3.223 -0.1388  0.3521  0.3949
   97MOL   O22234974   7.754   1.459   3.165 -0.3014 -0.1664 -0.1372
   97MOL   C22334975   7.672   1.467   3.271  0.4651  0.5318  0.1252
   97MOL   C22434976   7.625   1.611   3.273  0.2445 -0.5865  0.6749
   97MOL   C22534977   7.736   1.713   3.278 -0.1951 -0.5763 -0.5254
   97MOL   H22634978   0.115   1.478   3.005  1.4435 -0.1536  0.9615
   97MOL   H22734979   0.167   1.347   3.106 -1.6094 -1.7731  0.2192
   97MOL   H22834980   7.848   1.217   2.997  2.7521  0.2470  2.6667
   97MOL   H22934981   7.582   1.406   3.266  1.6996 -1.2730 -0.5005
   97MOL   H23034982   7.725   1.448   3.365 -0.1773  1.6855  0.7332
   97MOL   H23134983   7.562   1.624   3.185  1.0347  0.5837  0.2712
   97MOL   H23234984   7.553   1.631   3.352  0.5624  0.5952  0.6716
   97MOL   H23334985   7.814   1.703   3.202  1.3712  0.3228  0.9405
   97MOL   H23434986   7.785   1.700   3.374 -2.7800  0.7481  1.0051
   97MOL   H23534987   7.701   1.815   3.263 -1.7827 -0.9629  0.4810
   97MOL   C23634988   7.775   1.388   2.887 -0.0609 -0.7374 -0.0670
   97MOL   C23734989   7.696   1.284   2.799  0.6151 -0.0893 -0.3792
   97MOL   C23834990   7.568   1.241   2.873  0.4260 -0.1386  0.5156
   97MOL   O23934991   7.496   1.315   2.936 -0.2038 -0.2451 -0.3775
   97MOL   O24034992   7.537   1.114   2.843  0.1035  0.4169  0.0557
   97MOL   C24134993   7.414   1.057   2.887  0.1110 -0.0430 -0.3555
   97MOL   C24234994   7.452   0.974   3.012  0.9846 -0.1111  0.1426
   97MOL   C24334995   7.329   0.931   3.088  0.0488 -0.8039  0.4514
   97MOL   H24434996   7.836   1.451   2.823  1.6115 -1.7705  0.4815
   97MOL   H24534997   7.700   1.457   2.927  0.4831  0.0847 -0.4614
   97MOL   H24634998   7.761   1.197   2.785  2.8662  1.2727  1.4252
   97MOL   H24734999   7.333   1.126   2.911  0.7467  0.3065  0.7887
   97MOL   H24835000   7.370   1.003   2.803  0.1190  1.0044 -1.0289
   97MOL   H24935001   7.521   0.890   2.998  1.1612 -0.1094  0.9502
   97MOL   H25035002   7.504   1.035   3.086  1.5619  1.7775 -1.7518
   97MOL   H25135003   7.357   0.859   3.165  0.1473 -2.5558 -1.1794
   97MOL   H25235004   7.261   0.872   3.026 -0.7330 -1.7145  2.1252
   97MOL   H25335005   7.278   1.017   3.130 -0.2674 -0.4498 -0.6400
   97MOL   C25435006   7.666   1.344   2.664 -0.0950  0.1534  0.0533
   97MOL   C25535007   7.598   1.245   2.567  0.4732  0.4714  0.7833
   97MOL   C25635008   7.531   1.329   2.460  0.1634  0.2287  0.3492
   97MOL   O25735009   7.416   1.307   2.426 -0.5576 -0.2252  0.3320
   97MOL   O25835010   7.609   1.428   2.409  0.5562  0.9727 -0.1284
   97MOL   C25935011   7.548   1.532   2.332 -0.4913  0.0112 -0.5285
   97MOL   C26035012   7.653   1.583   2.222 -0.7733 -0.5264  0.3856
   97MOL   C26135013   7.686   1.479   2.116 -0.0022  0.2253  0.2646
   97MOL   H26235014   7.759   1.387   2.626 -1.0284  1.9307 -0.2446
   97MOL   H26335015   7.604   1.431   2.686 -1.5007 -0.7068 -0.4191
   97MOL   H26435016   7.517   1.197   2.621 -0.2248  0.8527  0.1029
   97MOL   H26535017   7.450   1.501   2.294 -0.0063 -0.9400 -1.0087
   97MOL   H26635018   7.536   1.618   2.397  2.4526 -0.0578  0.1664
   97MOL   H26735019   7.624   1.678   2.178  0.5335  0.3327  1.3320
   97MOL   H26835020   7.746   1.607   2.273  0.8044  1.2919 -3.1856
   97MOL   H26935021   7.747   1.522   2.037 -0.7281 -0.1157 -0.4913
   97MOL   H27035022   7.594   1.450   2.066 -0.1983 -0.3899  0.9761
   97MOL   H27135023   7.729   1.392   2.166  2.1144 -1.0354 -3.5776
   97MOL   C27235024   7.705   1.143   2.509 -0.5340 -0.3442 -0.1925
   97MOL   C27335025   7.649   1.029   2.416  0.6692 -0.4101 -0.0038
   97MOL   C27435026   7.530   0.959   2.479  0.0368  0.0753  0.0750
   97MOL   O27535027   7.548   0.870   2.565  0.7134  0.1433  0.0953
   97MOL   O27635028   7.408   1.006   2.444  0.4937  1.0838 -0.2720
   97MOL   C27735029   7.283   0.988   2.522  0.0568 -0.4369  0.2635
   97MOL   C27835030   7.157   1.031   2.443  0.1601 -0.3827 -0.1867
   97MOL   C27935031   7.142   0.976   2.303 -0.2769  0.1818 -0.5284
   97MOL   H28035032   7.739   1.086   2.596  1.9266  1.2247 -0.0529
   97MOL   H28135033   7.791   1.190   2.462 -0.0813 -0.6625  0.3020
   97MOL   H28235034   7.724   0.951   2.406  0.4365 -0.5360 -0.7593
   97MOL   H28335035   7.267   0.884   2.547 -1.2566 -0.7328 -1.6964
   97MOL   H28435036   7.284   1.033   2.621  0.6196  0.7267 -0.2507
   97MOL   H28535037   7.066   1.009   2.499 -2.2690  2.1743 -2.9330
   97MOL   H28635038   7.170   1.140   2.445 -0.8879 -0.2322 -1.1505
   97MOL   H28735039   7.037   0.978   2.271 -0.8086 -4.5335  0.6533
   97MOL   H28835040   7.161   0.869   2.301 -0.0302  0.1257  2.4264
   97MOL   H28935041   7.201   1.033   2.231  0.4896  0.7818  0.5523
   97MOL   C29035042   7.624   1.092   2.277  0.1398  0.0160 -0.3677
   97MOL   C29135043   7.641   0.992   2.166  0.0124  0.6256  0.3984
   97MOL   C29235044   7.569   1.042   2.038  0.0835  0.6916 -0.1318
   97MOL   O29335045   7.472   0.982   1.989 -0.2384 -0.4884  0.3062
   97MOL   O29435046   7.636   1.141   1.994 -0.5068  0.1280  0.1999
   97MOL   C29535047   7.615   1.178   1.857 -0.7820  0.2475 -0.4070
   97MOL   C29635048   7.749   1.144   1.782  0.4215  0.2882  0.8117
   97MOL   C29735049   7.859   1.247   1.787  0.3500  0.1935  0.1002
   97MOL   H29835050   7.702   1.164   2.250 -1.4522  2.1236  0.5765
   97MOL   H29935051   7.529   1.145   2.270 -1.2391 -2.0264  2.0454
   97MOL   H30035052   7.589   0.901   2.195  1.0502  0.1034  0.6148
   97MOL   H30135053   7.530   1.126   1.812 -0.4018  1.2215 -2.3079
   97MOL   H30235054   7.577   1.280   1.851  0.5384  0.8309  0.8185
   97MOL   H30335055   7.787   1.043   1.796  0.8749  0.5533  1.5126
   97MOL   H30435056   7.728   1.140   1.675 -0.5525 -2.7598  1.0642
   97MOL   H30535057   0.041   1.224   1.701 -1.3413  2.3344 -1.7604
   97MOL   H30635058   0.045   1.247   1.873  1.4276 -1.4103 -0.7032
   97MOL   H30735059   7.815   1.344   1.764 -1.4392 -0.3660  1.0124
   97MOL   C30835060   7.791   0.949   2.129  0.0819  0.2854 -0.5694
   97MOL   C30935061   7.818   0.816   2.051  0.2448 -0.0262  0.3869
   97MOL   C31035062   7.699   0.739   1.995 -0.3629 -0.1920 -0.7369
   97MOL   O31135063   7.702   0.702   1.874  0.9091 -0.1154 -0.3522
   97MOL   O31235064   7.603   0.717   2.085  0.2830 -0.0233  0.2324
   97MOL   C31335065   7.482   0.652   2.048  0.1666  0.0466 -0.8866
   97MOL   C31435066   7.372   0.669   2.157 -0.6460 -0.0498 -0.3783
   97MOL   C31535067   7.424   0.601   2.289  0.8365 -0.2090 -0.3121
   97MOL   H31635068   7.853   0.935   2.218 -0.7853 -2.0591 -0.2824
   97MOL   H31735069   7.837   1.031   2.073 -0.7217  0.8056 -0.4748
   97MOL   H31835070   7.844   0.740   2.125 -1.2113 -2.4611 -1.4902
   97MOL   H31935071   7.454   0.685   1.948  1.5891  0.0950 -1.2846
   97MOL   H32035072   7.516   0.551   2.028 -1.3756 -0.1469 -2.5652
   97MOL   H32135073   7.353   0.776   2.167 -2.4866 -0.2475 -1.5800
   97MOL   H32235074   7.283   0.611   2.133 -0.0589 -1.4615  0.7808
   97MOL   H32335075   7.518   0.643   2.326  0.1633  1.1038 -0.0652
   97MOL   H32435076   7.352   0.627   2.366  0.1057 -1.0533 -0.7025
   97MOL   H32535077   7.417   0.492   2.285  1.4565 -0.2013 -2.9133
   97MOL   C32635078   0.054   0.818   1.947  0.6888 -1.0459 -0.0196
   97MOL   C32735079   0.161   0.705   1.954 -0.5675 -0.2353 -0.2838
   97MOL   C32835080   0.218   0.685   2.093  0.0210  0.2740 -0.0176
   97MOL   O32935081   0.182   0.590   2.164 -0.1540 -0.2260 -0.1221
   97MOL   O33035082   0.304   0.787   2.126 -0.4932 -0.4866 -0.1986
   97MOL   C33135083   0.382   0.778   2.245 -0.4944  0.3890 -0.7228
   97MOL   C33235084   0.411   0.913   2.313 -0.2139  0.2938  0.3213
   97MOL   C33335085   0.281   0.976   2.370  0.5894 -0.0318  0.0727
   97MOL   H33435086   0.098   0.918   1.957 -1.6128  0.2478 -2.2188
   97MOL   H33535087   0.021   0.828   1.843  0.6586  0.9087  0.1502
   97MOL   H33635088   0.238   0.735   1.883  0.4252  1.2613  1.3732
   97MOL   H33735089   0.337   0.707   2.315 -1.4889  0.3915 -1.3460
   97MOL   H33835090   0.476   0.733   2.216 -0.6793 -1.1091  0.9274
   97MOL   H33935091   0.475   0.886   2.397  0.2992 -0.3330 -0.2585
   97MOL   H34035092   0.458   0.972   2.235  0.8380 -1.6796 -0.5994
   97MOL   H34135093   0.241   0.913   2.450  0.8796  0.7487  0.8415
   97MOL   H34235094   0.288   1.075   2.415  1.2233 -0.3933  0.7826
   97MOL   H34335095   0.211   0.991   2.289  0.0805  0.5109  0.6073
   97MOL   C34435096   0.097   0.572   1.907 -0.3896  0.2118 -0.2566
   97MOL   C34535097   0.197   0.461   1.867  0.2048 -0.4730  0.0918
   97MOL   C34635098   0.260   0.476   1.732 -0.6414  0.3186 -0.2885
   97MOL   O34735099   0.267   0.580   1.675 -0.6311 -0.1696  0.3992
   97MOL   O34835100   0.283   0.356   1.674  0.3519 -0.2096  0.1860
   97MOL   C34935101   0.285   0.342   1.527 -0.5892 -0.8701  0.2246
   97MOL   C35035102   0.430   0.326   1.479  0.5538 -0.7061 -0.8877
   97MOL   C35135103   0.454   0.337   1.324 -0.0215  0.4327 -0.3968
   97MOL   H35235104   0.042   0.592   1.816 -1.4132  0.9623  0.5107
   97MOL   H35335105   0.021   0.533   1.975  0.1829 -0.2509  0.1277
   97MOL   H35435106   0.147   0.365   1.859 -0.1108 -0.1310 -2.6438
   97MOL   H35535107   0.224   0.255   1.502 -1.2197 -0.5063  0.4992
   97MOL   H35635108   0.240   0.430   1.481 -1.7885 -1.6324 -0.0839
   97MOL   H35735109   0.484   0.411   1.519 -0.7587 -0.8134  1.2145
   97MOL   H35835110   0.456   0.225   1.511  0.7617 -0.5641 -0.6151
   97MOL   H35935111   0.403   0.422   1.279  0.6169  0.2446 -1.5015
   97MOL   H36035112   0.560   0.353   1.306  0.4953 -2.3276 -0.1052
   97MOL   H36135113   0.424   0.243   1.277 -1.5218  0.7339 -0.0782
   97MOL   H36235114   0.270   0.452   1.947  1.2440  1.3140 -0.6152
   98MOL     C135115   4.413   7.119   2.812 -0.1890 -0.3264  0.1557
   98MOL     C235116   4.508   7.194   2.915 -0.5118 -0.8194 -0.1929
   98MOL     C335117   4.467   7.162   3.061  0.0529  0.3007  0.5400
   98MOL     O435118   4.488   7.047   3.101  0.6631 -0.4084  0.2501
   98MOL     O535119   4.413   7.265   3.131  0.0523 -0.2550  0.0033
   98MOL     C635120   4.339   7.243   3.249  0.2153  0.3073  0.1408
   98MOL     C735121   4.218   7.344   3.230 -0.2374  0.0495 -0.4800
   98MOL     C835122   4.257   7.491   3.204 -0.0929  0.3076  0.2178
   98MOL     H935123   4.464   7.031   2.773 -1.1599 -0.5549 -0.6508
   98MOL    H1035124   4.316   7.082   2.848 -0.0444 -1.0564 -0.1888
   98MOL    H1135125   4.504   7.301   2.894 -2.0953 -1.1447 -1.6385
   98MOL    H1235126   4.298   7.144   3.271 -3.3291  2.0177  1.6538
   98MOL    H1335127   4.405   7.264   3.334 -1.8823  2.3252  1.3423
   98MOL    H1435128   4.163   7.304   3.145  0.2725 -0.4881 -0.5587
   98MOL    H1535129   4.172   7.340   3.329  2.7738 -0.4954  0.9381
   98MOL    H1635130   4.175   7.562   3.205 -1.0181 -0.7398  2.3169
   98MOL    H1735131   4.336   7.512   3.277  0.2038 -0.7442  0.2084
   98MOL    H1835132   4.309   7.488   3.108  0.0074  0.9166  0.2491
   98MOL    H1935133   4.395   7.182   2.725 -0.6791 -1.7241 -0.7713
   98MOL    C2035134   4.653   7.160   2.880 -0.0617 -0.3566 -0.6639
   98MOL    C2135135   4.716   7.227   2.757  0.0491  0.0521  0.4036
   98MOL    C2235136   4.705   7.382   2.757 -0.2977 -0.1779  0.0801
   98MOL    O2335137   4.749   7.447   2.854  0.3809  0.2307 -0.0128
   98MOL    O2435138   4.627   7.431   2.659  0.6146 -0.4321  0.3471
   98MOL    C2535139   4.581   7.561   2.660  0.3751  0.4628  0.0508
   98MOL    C2635140   4.672   7.650   2.574  0.0711  0.0613  0.0743
   98MOL    C2735141   4.605   7.786   2.563 -0.5288 -0.2236  0.1787
   98MOL    H2835142   4.663   7.052   2.866  2.5087 -0.7633  3.6670
   98MOL    H2935143   4.720   7.190   2.960 -0.3756 -0.1192 -0.4888
   98MOL    H3035144   4.654   7.194   2.674 -0.1743  1.6771 -0.0855
   98MOL    H3135145   4.487   7.556   2.604  0.8176 -0.1094 -0.6377
   98MOL    H3235146   4.564   7.600   2.760 -0.3297  1.0636 -0.2911
   98MOL    H3335147   4.772   7.656   2.619  0.3043  0.5091 -0.5029
   98MOL    H3435148   4.676   7.598   2.479  2.1793  2.3154 -1.1466
   98MOL    H3535149   4.532   7.784   2.482 -0.9547 -0.0418  0.5595
   98MOL    H3635150   4.682   7.860   2.541 -1.5003 -0.0422 -2.8423
   98MOL    H3735151   4.566   7.821   2.658  0.4287 -2.1417  1.3242
   98MOL    C3835152   4.862   7.183   2.744  0.3998 -0.6246 -0.0070
   98MOL    C3935153   4.938   7.212   2.610 -0.7303  0.3355  0.3179
   98MOL    C4035154   4.997   7.359   2.617 -0.2389  1.1118 -1.1785
   98MOL    O4135155   4.955   7.440   2.536  0.8914  0.0277 -0.4387
   98MOL    O4235156   5.086   7.389   2.716 -0.4439  0.1046  0.0246
   98MOL    C4335157   5.135   7.523   2.749  0.1399 -0.0087  0.4665
   98MOL    C4435158   5.066   7.588   2.873  0.0972 -0.2238  0.3357
   98MOL    C4535159   5.082   7.508   3.002 -0.4939  0.4513  0.7851
   98MOL    H4635160   4.864   7.075   2.751 -2.0938 -0.7843 -1.2092
   98MOL    H4735161   4.921   7.212   2.831  0.3108  0.6735 -0.3694
   98MOL    H4835162   4.865   7.209   2.528 -1.5175 -2.3409  1.0607
   98MOL    H4935163   5.240   7.509   2.776  1.4037  2.4549 -2.9169
   98MOL    H5035164   5.118   7.583   2.660 -2.0983 -1.2405  0.0196
   98MOL    H5135165   5.108   7.688   2.879 -2.0649  0.6206  1.7465
   98MOL    H5235166   4.959   7.600   2.859 -0.0753 -1.1170  0.8348
   98MOL    H5335167   5.039   7.560   3.088 -1.0524  2.8085 -0.8865
   98MOL    H5435168   5.187   7.498   3.030  0.1781 -0.0560 -1.8376
   98MOL    H5535169   5.033   7.410   2.999  1.4877 -0.5049 -3.2907
   98MOL    C5635170   5.046   7.098   2.563  0.0270  0.0551 -0.6906
   98MOL    C5735171   5.105   7.122   2.417  0.2843 -0.2503  0.1847
   98MOL    C5835172   5.232   7.038   2.407  0.0819 -0.3369  0.4396
   98MOL    O5935173   5.325   7.078   2.337  0.3239 -0.6117  0.0502
   98MOL    O6035174   5.219   6.913   2.461 -0.0980 -0.1305 -0.1587
   98MOL    C6135175   5.321   6.817   2.435 -0.0606 -0.1069  0.2879
   98MOL    C6235176   5.283   6.680   2.491  1.0211  0.1613 -0.5172
   98MOL    C6335177   5.341   6.551   2.421 -0.6012 -0.0774  0.1070
   98MOL    H6435178   5.013   6.995   2.574  2.6932 -0.5897  1.9863
   98MOL    H6535179   5.122   7.110   2.640  0.1223  0.9563 -0.9165
   98MOL    H6635180   5.136   7.226   2.423  1.6334 -0.6567  0.3452
   98MOL    H6735181   5.324   6.815   2.326 -1.3480 -3.5807  0.2739
   98MOL    H6835182   5.416   6.849   2.477 -0.3806 -0.6556  1.4467
   98MOL    H6935183   5.312   6.690   2.595 -0.7822 -2.4207  0.2960
   98MOL    H7035184   5.174   6.673   2.496  1.1849 -1.8862  0.5805
   98MOL    H7135185   5.449   6.559   2.405 -0.6014 -0.2305  0.0265
   98MOL    H7235186   5.298   6.541   2.322 -0.3140  2.2767 -0.2826
   98MOL    H7335187   5.318   6.468   2.488  0.4359 -1.2192 -0.9275
   98MOL    C7435188   5.008   7.103   2.301  0.6545  0.3181  0.1092
   98MOL    C7535189   4.992   6.959   2.243  0.8422  0.3607 -0.0987
   98MOL    C7635190   4.900   6.873   2.332 -0.5072 -0.0150 -0.7485
   98MOL    O7735191   4.831   6.915   2.427 -0.3480 -0.4804  0.1773
   98MOL    O7835192   4.901   6.744   2.296 -0.2180  0.0296 -0.5104
   98MOL    C7935193   4.827   6.660   2.377 -0.4841  0.0102  0.0744
   98MOL    C8035194   4.897   6.519   2.369 -0.3104  0.2646 -0.3695
   98MOL    C8135195   4.913   6.469   2.224 -0.4294 -1.6936 -0.5355
   98MOL    H8235196   5.053   7.172   2.229 -0.7761 -0.9681 -2.0496
   98MOL    H8335197   4.909   7.148   2.310  0.3917 -0.4319  0.9150
   98MOL    H8435198   5.085   6.902   2.245 -0.3633 -1.6131  0.7174
   98MOL    H8535199   4.827   6.671   2.486 -2.4134  1.6403 -0.0543
   98MOL    H8635200   4.723   6.659   2.344 -1.0548  1.1888  1.7697
   98MOL    H8735201   4.995   6.530   2.416 -0.1830  0.0607 -0.5870
   98MOL    H8835202   4.852   6.441   2.430  1.8756 -1.4193 -0.8403
   98MOL    H8935203   4.982   6.385   2.213 -0.1734 -1.6731  0.8968
   98MOL    H9035204   4.958   6.550   2.166 -2.7341 -1.1658 -1.6193
   98MOL    H9135205   4.817   6.437   2.184 -1.1379  0.2129 -0.3765
   98MOL    C9235206   4.922   6.963   2.098  0.0951 -0.7204  0.3223
   98MOL    C9335207   5.026   7.006   1.993 -0.4067 -0.3849  0.1966
   98MOL    C9435208   5.127   6.892   1.961  0.0305  0.4336 -0.3485
   98MOL    O9535209   5.102   6.771   1.953 -0.3599 -0.3895  0.3605
   98MOL    O9635210   5.251   6.942   1.942 -0.2291  0.6379  0.1393
   98MOL    C9735211   5.362   6.857   1.919  0.2182 -0.4287  0.2135
   98MOL    C9835212   5.422   6.820   2.057 -0.1108  0.0196  0.4293
   98MOL    C9935213   5.562   6.747   2.045  0.2091  0.6767 -0.6995
   98MOL   H10035214   4.839   7.034   2.097 -0.0433 -0.8815  0.4875
   98MOL   H10135215   4.889   6.865   2.065  2.0808 -0.8947 -1.2513
   98MOL   H10235216   5.083   7.093   2.025 -1.5097  1.1447 -1.8944
   98MOL   H10335217   5.337   6.772   1.856  2.9974  1.3944 -3.5657
   98MOL   H10435218   5.440   6.912   1.866 -0.3679 -0.9018 -1.1587
   98MOL   H10535219   5.451   6.911   2.109  1.2282 -0.5389  0.6999
   98MOL   H10635220   5.346   6.769   2.116 -1.4573  0.8839 -0.5403
   98MOL   H10735221   5.603   6.722   2.142  0.9929  0.8755 -0.9745
   98MOL   H10835222   5.628   6.819   1.996  1.9020 -1.0584 -1.0162
   98MOL   H10935223   5.549   6.654   1.990 -0.4466 -0.6603  1.6550
   98MOL   C11035224   4.959   7.041   1.855 -0.8031  0.3534 -0.4162
   98MOL   C11135225   4.886   7.178   1.840 -0.4210  0.5474 -0.0409
   98MOL   C11235226   4.985   7.295   1.852 -0.6284 -0.2355  0.3789
   98MOL   O11335227   5.105   7.275   1.822 -0.2910  0.3528  0.1592
   98MOL   O11435228   4.931   7.414   1.896 -0.0913 -0.0411 -0.0349
   98MOL   C11535229   5.008   7.540   1.892  0.8820 -0.3832 -0.1644
   98MOL   C11635230   4.948   7.627   1.777 -0.2329  0.2407  0.1522
   98MOL   C11735231   4.798   7.666   1.798  0.4008  0.0035 -0.1449
   98MOL   H11835232   4.887   6.960   1.838 -0.2609 -0.1600 -0.2599
   98MOL   H11935233   5.034   7.037   1.776 -1.9511 -1.3039 -1.4637
   98MOL   H12035234   4.810   7.186   1.918 -1.2810 -1.1543 -0.6643
   98MOL   H12135235   4.981   7.594   1.982  1.9459 -0.8727  0.4533
   98MOL   H12235236   5.116   7.531   1.886  0.9125 -0.1526  0.0550
   98MOL   H12335237   5.009   7.717   1.783  0.7938 -0.5128  1.3354
   98MOL   H12435238   4.966   7.583   1.679  2.7693  0.4379  0.5615
   98MOL   H12535239   4.801   7.747   1.872 -1.0867 -1.2970  1.3634
   98MOL   H12635240   4.732   7.582   1.818  1.4375 -0.8854 -0.4297
   98MOL   H12735241   4.764   7.711   1.704 -0.8067  0.2136  0.3868
   98MOL   C12835242   4.809   7.182   1.703  0.2613  0.4479  0.3554
   98MOL   C12935243   4.692   7.289   1.713 -0.2433  0.4220  0.0862
   98MOL   C13035244   4.681   7.363   1.574  0.2179  0.1243  0.7820
   98MOL   O13135245   4.649   7.300   1.474 -0.3121  0.6089  0.5287
   98MOL   O13235246   4.708   7.493   1.575  0.2643  0.1440  0.3772
   98MOL   C13335247   4.682   7.570   1.451 -0.2241  0.5778  0.4777
   98MOL   C13435248   4.812   7.595   1.368 -0.2323 -0.5154  0.1201
   98MOL   C13535249   4.797   7.708   1.266  0.3640 -0.6252  0.5298
   98MOL   H13635250   4.761   7.088   1.673 -0.9050  0.7985  1.0959
   98MOL   H13735251   4.884   7.207   1.628  0.9568 -0.1772  0.8313
   98MOL   H13835252   4.719   7.365   1.785  0.6619 -0.6284  0.8844
   98MOL   H13935253   4.596   7.528   1.398 -1.8141  1.6389  2.1534
   98MOL   H14035254   4.645   7.669   1.478  2.2842  1.1607  1.9385
   98MOL   H14135255   4.895   7.603   1.438 -0.2881 -2.5367  0.4510
   98MOL   H14235256   4.853   7.503   1.326  0.1080  0.4950 -1.7980
   98MOL   H14335257   4.713   7.696   1.198  2.3061  1.2985 -2.2991
   98MOL   H14435258   4.885   7.723   1.205  0.4189  1.1339  1.0243
   98MOL   H14535259   4.773   7.803   1.314  0.6595 -0.8889  1.2167
   98MOL   C14635260   4.555   7.234   1.753  0.6579  0.3680  0.1143
   98MOL   C14735261   4.546   7.158   1.893  0.4014 -1.1280 -0.0012
   98MOL   C14835262   4.527   7.261   2.014  0.7827  0.2099 -0.6496
   98MOL   O14935263   4.410   7.280   2.055 -0.6131 -0.5327  0.1407
   98MOL   O15035264   4.637   7.313   2.073  0.3552  0.1011 -0.2514
   98MOL   C15135265   4.615   7.422   2.161 -0.6654  0.2278 -0.1912
   98MOL   C15235266   4.739   7.508   2.181 -0.5759 -0.2799  0.7952
   98MOL   C15335267   4.848   7.436   2.245  0.9499 -0.3035  0.0264
   98MOL   H15435268   4.530   7.163   1.674  0.9993  0.3770  0.0018
   98MOL   H15535269   4.474   7.307   1.743 -1.9915 -2.6204 -1.2716
   98MOL   H15635270   4.633   7.099   1.921 -0.5698 -2.0336  1.1711
   98MOL   H15735271   4.528   7.485   2.141 -1.8449 -1.0780  0.6883
   98MOL   H15835272   4.583   7.393   2.261  0.4396 -0.1287  0.0661
   98MOL   H15935273   4.773   7.556   2.089  0.2439 -2.1146  0.1248
   98MOL   H16035274   4.709   7.593   2.243  1.4413 -0.1618  1.6557
   98MOL   H16135275   4.900   7.362   2.183 -0.6467 -1.8348  0.4682
   98MOL   H16235276   4.809   7.398   2.339 -3.5159 -1.8405 -2.2872
   98MOL   H16335277   4.917   7.513   2.279 -0.0364  0.8806 -0.6138
   98MOL   C16435278   4.435   7.057   1.896 -0.4553 -0.3164  0.6794
   98MOL   C16535279   4.473   6.928   1.817 -0.3156  0.0754  0.6445
   98MOL   C16635280   4.572   6.832   1.889  0.0643  0.3482 -0.3115
   98MOL   O16735281   4.601   6.857   2.003 -0.0193  0.1455  0.0411
   98MOL   O16835282   4.624   6.738   1.812 -0.7815  0.3670  0.5767
   98MOL   C16935283   4.729   6.661   1.856 -0.2643 -0.5100 -0.3621
   98MOL   C17035284   4.695   6.514   1.850 -0.0488 -0.1675 -0.5055
   98MOL   C17135285   4.698   6.462   1.709 -0.6622 -0.3091 -0.0613
   98MOL   H17235286   4.347   7.109   1.858 -0.3275  0.8609  1.9312
   98MOL   H17335287   4.409   7.021   1.996  0.1678 -2.9882 -0.0818
   98MOL   H17435288   4.534   6.961   1.733  0.0957 -2.0788  0.0825
   98MOL   H17535289   4.802   6.678   1.777 -0.5129 -2.5506 -1.0612
   98MOL   H17635290   4.772   6.685   1.954 -2.7835 -0.2395  0.7116
   98MOL   H17735291   4.766   6.463   1.915 -1.1851 -0.9618  0.1228
   98MOL   H17835292   4.591   6.502   1.878  0.2842  0.0452  0.8902
   98MOL   H17935293   4.798   6.485   1.673  0.0054 -1.2690  1.1341
   98MOL   H18035294   4.620   6.501   1.643  0.5763  1.7595 -0.3276
   98MOL   H18135295   4.700   6.353   1.707  0.9107 -0.3151  0.6732
   98MOL   C18235296   4.343   6.859   1.774  0.6928 -0.5169  0.0001
   98MOL   C18335297   4.319   6.835   1.620 -0.0105  0.2126  0.5995
   98MOL   C18435298   4.340   6.963   1.547  0.2626 -0.6162 -0.0002
   98MOL   O18535299   4.440   6.979   1.473  0.5906 -0.4147  0.1370
   98MOL   O18635300   4.246   7.059   1.572 -0.4596  0.1578 -0.3021
   98MOL   C18735301   4.248   7.194   1.524  0.8632 -0.3483  0.3577
   98MOL   C18835302   4.117   7.265   1.576  0.4428 -0.3455  0.0361
   98MOL   C18935303   4.129   7.270   1.730  0.5538 -0.2259 -0.5772
   98MOL   H19035304   4.250   6.911   1.800  2.2969  1.3257  2.1684
   98MOL   H19135305   4.331   6.771   1.836  1.2047  0.9422  2.2133
   98MOL   H19235306   4.213   6.817   1.605 -0.3559  2.0486  0.7367
   98MOL   H19335307   4.330   7.251   1.569 -0.9771  1.1330  1.9516
   98MOL   H19435308   4.261   7.202   1.416 -1.0634  2.2427  0.2775
   98MOL   H19535309   4.108   7.362   1.528  2.3598 -1.1612 -2.0384
   98MOL   H19635310   4.028   7.212   1.541  0.1850 -0.0608  0.2530
   98MOL   H19735311   4.117   7.173   1.778  1.7842 -0.2261 -0.2475
   98MOL   H19835312   4.055   7.333   1.778 -1.7809 -1.4240 -2.5259
   98MOL   H19935313   4.224   7.317   1.758 -0.5927  2.2025 -0.6073
   98MOL   C20035314   4.388   6.708   1.558  0.6717  0.8190 -0.0860
   98MOL   C20135315   4.342   6.664   1.418 -0.8290  0.1760  0.0259
   98MOL   C20235316   4.442   6.565   1.356  0.0095 -0.4542 -0.2466
   98MOL   O20335317   4.452   6.447   1.390  0.2597 -0.1032 -0.0163
   98MOL   O20435318   4.515   6.627   1.253  0.0147 -0.0776  0.0710
   98MOL   C20535319   4.609   6.546   1.175  0.1239 -0.5624  0.5080
   98MOL   C20635320   4.543   6.434   1.090 -0.1122  0.4458 -0.6176
   98MOL   C20735321   4.636   6.372   0.982 -0.0461 -0.2961 -0.5723
   98MOL   H20835322   4.361   6.642   1.640 -0.5181 -0.6672 -1.6457
   98MOL   H20935323   4.497   6.714   1.552  0.7218 -1.1729 -1.4448
   98MOL   H21035324   4.340   6.746   1.347  0.4614  0.5884  0.4419
   98MOL   H21135325   4.673   6.604   1.108 -0.1175  0.8288  1.4479
   98MOL   H21235326   4.677   6.498   1.244  0.3222  0.7199  1.2258
   98MOL   H21335327   4.506   6.350   1.149  0.2155  0.0957 -0.9089
   98MOL   H21435328   4.452   6.473   1.045 -0.4287 -0.2800 -0.6144
   98MOL   H21535329   4.581   6.299   0.923 -0.8527  0.3820 -0.6650
   98MOL   H21635330   4.717   6.320   1.034  1.1357  1.2054 -0.8546
   98MOL   H21735331   4.674   6.445   0.911  1.5130  0.5591  1.0963
   98MOL   C21835332   4.201   6.608   1.418 -0.1535 -0.1195 -0.1954
   98MOL   C21935333   4.146   6.551   1.281 -0.7103 -0.2108  0.1851
   98MOL   C22035334   4.056   6.426   1.305 -0.6168  0.8687  0.0021
   98MOL   O22135335   4.005   6.416   1.415  0.0180 -0.0639  0.9199
   98MOL   O22235336   4.045   6.332   1.199  0.1602 -0.5230  0.4304
   98MOL   C22335337   3.983   6.209   1.224 -0.3975  0.5094 -0.9920
   98MOL   C22435338   3.830   6.226   1.210  0.0715  0.3133  0.0142
   98MOL   C22535339   3.784   6.230   1.066 -0.1645 -0.6329 -0.5610
   98MOL   H22635340   4.131   6.687   1.445 -1.6709 -1.9429  1.3155
   98MOL   H22735341   4.209   6.533   1.497  0.8646  0.7608  0.5472
   98MOL   H22835342   4.230   6.513   1.222 -0.3428 -0.0944  0.6349
   98MOL   H22935343   4.021   6.134   1.154 -0.6896 -0.2486 -0.3433
   98MOL   H23035344   4.007   6.170   1.322 -0.2411 -1.3829 -1.7585
   98MOL   H23135345   3.791   6.140   1.265 -1.9266 -1.1581 -3.5468
   98MOL   H23235346   3.794   6.313   1.266 -0.1184 -0.2537  0.7812
   98MOL   H23335347   3.838   6.298   1.000 -0.9275  0.1430 -0.4038
   98MOL   H23435348   3.684   6.274   1.067  0.1902  0.2002 -0.1492
   98MOL   H23535349   3.793   6.127   1.032 -0.5483 -0.6368 -0.6523
   98MOL   C23635350   4.075   6.664   1.208  0.1745  0.0983  0.2673
   98MOL   C23735351   4.052   6.639   1.057 -0.1055  0.9002 -0.0174
   98MOL   C23835352   3.944   6.735   1.001  0.4779  0.4327 -0.1591
   98MOL   O23935353   3.858   6.703   0.927  0.5857 -0.3466  0.2463
   98MOL   O24035354   3.950   6.857   1.066 -0.2794  0.8130 -0.1581
   98MOL   C24135355   3.870   6.963   1.026 -0.0117  0.7557  0.3897
   98MOL   C24235356   3.913   7.067   1.132  0.4975  0.0244 -0.0443
   98MOL   C24335357   3.804   7.081   1.246  0.4268  0.7604  1.0383
   98MOL   H24435358   4.124   6.760   1.218 -0.0559  0.3952 -1.2911
   98MOL   H24535359   3.980   6.683   1.258  1.3385 -1.5570  3.2238
   98MOL   H24635360   4.008   6.540   1.055 -1.1292  1.3714 -0.8552
   98MOL   H24735361   3.895   6.999   0.926  2.4148  0.9673  1.0328
   98MOL   H24835362   3.767   6.931   1.017  0.3761 -0.0777 -1.1635
   98MOL   H24935363   4.007   7.033   1.173  0.3320 -1.2997 -0.7359
   98MOL   H25035364   3.928   7.164   1.082  2.0169 -0.2053 -0.0613
   98MOL   H25135365   3.823   7.160   1.318 -1.3137  2.6930 -0.5465
   98MOL   H25235366   3.790   6.980   1.285  0.2639  0.2841 -0.2127
   98MOL   H25335367   3.708   7.090   1.194  0.4094 -1.7610  0.5355
   98MOL   C25435368   4.188   6.635   0.975  0.0579 -0.1669  0.2647
   98MOL   C25535369   4.182   6.561   0.837  0.6322  0.1903 -0.1785
   98MOL   C25635370   4.301   6.614   0.762 -0.3408 -0.2625 -1.0264
   98MOL   O25735371   4.408   6.577   0.794  0.9358  0.3487  0.2765
   98MOL   O25835372   4.271   6.696   0.657  0.3583  0.5298 -0.0013
   98MOL   C25935373   4.371   6.744   0.578 -1.3264 -0.3324  1.0836
   98MOL   C26035374   4.312   6.823   0.458 -0.1125  0.1102  0.3035
   98MOL   C26135375   4.234   6.953   0.477  0.1598 -0.2373  0.5998
   98MOL   H26235376   4.270   6.595   1.035  0.5930  1.7397  0.8365
   98MOL   H26335377   4.212   6.741   0.969 -0.9993  0.0885  0.4769
   98MOL   H26435378   4.095   6.592   0.779  0.7406 -2.4273 -1.8351
   98MOL   H26535379   4.423   6.813   0.645  2.7223  0.7379 -2.9431
   98MOL   H26635380   4.432   6.664   0.537 -0.9034  1.3875 -1.7730
   98MOL   H26735381   4.392   6.854   0.391 -0.4140  0.5510  0.1413
   98MOL   H26835382   4.255   6.757   0.392 -0.3464 -0.4864  1.0914
   98MOL   H26935383   4.129   6.927   0.468 -0.0088 -0.4184  2.7792
   98MOL   H27035384   4.245   7.023   0.394 -0.4046 -0.5181  0.2884
   98MOL   H27135385   4.241   7.008   0.571 -1.8255  1.6862 -0.3416
   98MOL   C27235386   4.172   6.409   0.839 -0.2925  0.2321 -0.5362
   98MOL   C27335387   4.115   6.337   0.714  0.6774 -0.2621  0.4183
   98MOL   C27435388   4.231   6.324   0.609  0.3265 -0.3460  0.2323
   98MOL   O27535389   4.241   6.408   0.520  0.5815  0.2128 -0.0488
   98MOL   O27635390   4.319   6.229   0.635  0.0422 -0.7179 -0.1389
   98MOL   C27735391   4.440   6.228   0.561  0.2111 -0.3701 -0.3422
   98MOL   C27835392   4.444   6.105   0.477 -0.3751  0.6618 -0.5421
   98MOL   C27935393   4.343   6.107   0.361  0.9475  0.0246  0.0862
   98MOL   H28035394   4.130   6.364   0.929  1.2478  0.7436  0.4531
   98MOL   H28135395   4.271   6.368   0.857 -0.8329 -0.4605  0.8945
   98MOL   H28235396   4.035   6.401   0.675  0.3142 -1.4531 -0.7927
   98MOL   H28335397   4.447   6.315   0.495  1.0959 -0.3839 -0.2746
   98MOL   H28435398   4.528   6.232   0.625  1.1637 -2.0957 -1.5325
   98MOL   H28535399   4.539   6.096   0.424 -1.0908  1.4412 -1.9985
   98MOL   H28635400   4.445   6.018   0.542  1.0241  1.4270  0.4905
   98MOL   H28735401   4.359   6.012   0.309 -1.3229 -0.5307  0.3655
   98MOL   H28835402   4.363   6.197   0.303 -1.9583  0.1614 -0.7716
   98MOL   H28935403   4.246   6.111   0.411  1.1562  0.9024  0.4142
   98MOL   C29035404   4.050   6.200   0.742  0.3232 -0.7161 -0.4111
   98MOL   C29135405   3.935   6.169   0.646 -0.2365  0.1085 -0.4323
   98MOL   C29235406   3.810   6.241   0.698  0.2388  0.1657  0.4820
   98MOL   O29335407   3.722   6.190   0.766  0.0155  0.7897  0.1736
   98MOL   O29435408   3.793   6.355   0.644  0.1459 -0.6072  0.4085
   98MOL   C29535409   3.701   6.443   0.683 -0.0288  0.2169 -0.4209
   98MOL   C29635410   3.685   6.554   0.577 -0.4742  0.2963 -0.1069
   98MOL   C29735411   3.820   6.627   0.542 -0.7679  0.8274 -0.2709
   98MOL   H29835412   4.017   6.197   0.846 -1.1989 -1.1125 -0.8931
   98MOL   H29935413   4.122   6.118   0.745  1.6046  0.4001  0.0704
   98MOL   H30035414   3.906   6.064   0.657  0.0938 -0.1592 -2.0779
   98MOL   H30135415   3.605   6.393   0.691  1.3035 -2.2296  0.6754
   98MOL   H30235416   3.741   6.488   0.775  3.1456 -0.3818 -1.4403
   98MOL   H30335417   3.652   6.513   0.482 -1.4420  0.4301  0.1716
   98MOL   H30435418   3.611   6.625   0.612 -0.2578  0.6162 -0.2935
   98MOL   H30535419   3.853   6.589   0.445 -0.5012 -2.0342  0.9052
   98MOL   H30635420   3.905   6.609   0.608 -1.5139 -0.3793  0.3593
   98MOL   H30735421   3.823   6.736   0.540 -0.8537  0.8923  1.9462
   98MOL   C30835422   3.956   6.182   0.492 -0.7394  0.0680  0.2348
   98MOL   C30935423   3.830   6.134   0.413  0.8446  0.1453 -0.0421
   98MOL   C31035424   3.749   6.245   0.353 -0.1677 -0.3779  0.6946
   98MOL   O31135425   3.627   6.245   0.377  0.0927  0.0764 -0.3611
   98MOL   O31235426   3.820   6.329   0.281 -0.3037  0.7594  0.2046
   98MOL   C31335427   3.750   6.427   0.199  0.3547 -0.5395  0.0192
   98MOL   C31435428   3.833   6.505   0.103 -0.2077 -0.1122  0.0134
   98MOL   C31535429   3.928   6.413   0.023  0.5031  0.4308 -0.4247
   98MOL   H31635430   4.046   6.129   0.462  0.5588  1.1092  2.1342
   98MOL   H31735431   3.974   6.286   0.463 -0.8399  0.0348  0.0509
   98MOL   H31835432   3.756   6.085   0.476  0.8466  0.1521 -0.0346
   98MOL   H31935433   3.671   6.378   0.142 -2.0043  2.9956  0.1418
   98MOL   H32035434   3.704   6.489   0.276  0.0904  0.5119 -0.9885
   98MOL   H32135435   3.764   6.548   0.030  0.3069 -2.3730 -1.8808
   98MOL   H32235436   3.892   6.585   0.148  0.0166 -0.7082  0.7827
   98MOL   H32335437   3.965   6.463   7.814  0.8072 -1.3216 -1.3234
   98MOL   H32435438   4.003   6.381   0.096  2.1670  1.4988 -1.6175
   98MOL   H32535439   3.866   6.329   7.870 -0.0714  0.1661  1.2814
   98MOL   C32635440   3.868   6.034   0.298  0.5056  0.0764 -0.0068
   98MOL   C32735441   3.921   5.899   0.356 -0.3944  0.6781  0.3882
   98MOL   C32835442   3.814   5.826   0.436 -0.5918 -0.4366  0.2980
   98MOL   O32935443   3.833   5.797   0.550  0.1001 -0.2941 -0.2263
   98MOL   O33035444   3.696   5.802   0.373 -0.4525 -0.2079  0.2291
   98MOL   C33135445   3.590   5.737   0.448  0.7735  0.1191 -0.2691
   98MOL   C33235446   3.621   5.585   0.465 -0.4660 -0.3749  0.2565
   98MOL   C33335447   3.619   5.520   0.324 -0.6751  0.1777  0.2273
   98MOL   H33435448   3.948   6.070   0.232  0.5647 -0.3310 -0.1583
   98MOL   H33535449   3.781   6.014   0.236  1.2731 -2.6034 -0.2983
   98MOL   H33635450   4.007   5.923   0.418 -1.4993  1.5059  1.6102
   98MOL   H33735451   3.584   5.777   0.550 -1.4835 -0.7404 -0.0197
   98MOL   H33835452   3.492   5.745   0.400  0.8267 -1.0507 -0.5913
   98MOL   H33935453   3.714   5.569   0.520 -1.7804 -1.8170  2.1143
   98MOL   H34035454   3.540   5.537   0.520  1.3839 -2.7854  0.9557
   98MOL   H34135455   3.645   5.414   0.333  1.8210  0.6748 -0.7955
   98MOL   H34235456   3.525   5.528   0.270  0.0629  2.4996 -0.7921
   98MOL   H34335457   3.693   5.562   0.255 -2.0718 -1.2788 -2.2349
   98MOL   C34435458   3.969   5.806   0.240  0.2581  0.0637 -0.5759
   98MOL   C34535459   4.050   5.683   0.285  0.1658  0.3079  0.0028
   98MOL   C34635460   4.157   5.722   0.389  0.2938  0.5518 -0.6510
   98MOL   O34735461   4.244   5.804   0.357  0.0660  0.1427 -0.4182
   98MOL   O34835462   4.153   5.668   0.514 -0.2374 -0.0878  0.1942
   98MOL   C34935463   4.242   5.706   0.611  0.3158  0.7477 -0.0412
   98MOL   C35035464   4.193   5.821   0.694  0.1565  0.2416 -0.1008
   98MOL   C35135465   4.301   5.887   0.778 -0.4470  0.1084 -0.2777
   98MOL   H35235466   4.034   5.863   0.174 -0.5594 -0.1848 -1.6072
   98MOL   H35335467   3.891   5.765   0.175 -0.8606 -1.4372  1.6442
   98MOL   H35435468   4.104   5.636   0.203 -0.3655  1.1774 -0.8569
   98MOL   H35535469   4.280   5.627   0.676  0.5341 -0.0108 -1.0721
   98MOL   H35635470   4.335   5.729   0.558  1.4146 -0.0294  1.5154
   98MOL   H35735471   4.153   5.889   0.619  1.6807  1.3626  0.0856
   98MOL   H35835472   4.101   5.793   0.746 -0.5136  2.4408 -0.0564
   98MOL   H35935473   4.278   5.992   0.797 -0.3619  0.0185  0.3333
   98MOL   H36035474   4.318   5.826   0.867 -1.4916 -0.6048 -0.5627
   98MOL   H36135475   4.402   5.887   0.737 -0.7702  2.1130 -1.1269
   98MOL   H36235476   3.985   5.605   0.325 -1.1056  0.3742 -1.8846
   99MOL     C135477   6.309   0.656   0.329  0.6395 -0.1475  0.0063
   99MOL     C235478   6.169   0.655   0.272  0.2365  0.4565 -0.4249
   99MOL     C335479   6.160   0.741   0.141 -0.4732 -0.3161  0.0680
   99MOL     O435480   6.262   0.790   0.094 -0.6209  0.4942  0.0366
   99MOL     O535481   6.034   0.745   0.091  0.0827  0.2050 -0.0206
   99MOL     C635482   6.001   0.828   7.866  0.0526 -0.2779 -0.3316
   99MOL     C735483   5.975   0.980   0.021 -0.4443 -0.4083 -0.6662
   99MOL     C835484   5.862   1.002   0.122  0.1154  0.6660 -0.4230
   99MOL     H935485   6.393   0.622   0.268  2.5138  2.9209  0.7455
   99MOL    H1035486   6.345   0.753   0.362  1.3567 -1.8173  4.5135
   99MOL    H1135487   6.100   0.695   0.346 -2.0453  0.3968 -2.4511
   99MOL    H1235488   6.078   0.833   7.789  0.3912 -1.0489 -0.0417
   99MOL    H1335489   5.910   0.787   7.822  0.3317 -0.8983 -0.3279
   99MOL    H1435490   6.066   1.026   0.062 -0.5410  0.8843 -1.8572
   99MOL    H1535491   5.951   1.040   7.813 -0.8267  0.1346 -0.2020
   99MOL    H1635492   5.770   0.990   0.063 -1.2910 -0.2873  1.9098
   99MOL    H1735493   5.861   0.925   0.198  0.5276  2.0133  0.9604
   99MOL    H1835494   5.874   1.098   0.171  1.7327  0.0537  0.4258
   99MOL    H1935495   6.310   0.589   0.415 -0.3929  1.0475  0.9535
   99MOL    C2035496   6.122   0.510   0.238 -0.2344  0.0493 -0.8251
   99MOL    C2135497   6.056   0.425   0.360 -0.7565 -0.1415 -0.5541
   99MOL    C2235498   5.922   0.486   0.403  0.3424 -0.4383  0.0942
   99MOL    O2335499   5.913   0.545   0.510 -0.1447 -0.6621 -0.1395
   99MOL    O2435500   5.824   0.463   0.316 -0.1980 -0.0564  0.1358
   99MOL    C2535501   5.685   0.478   0.350 -0.2429  0.4268 -0.1069
   99MOL    C2635502   5.626   0.344   0.394  0.1764 -0.1277 -0.1558
   99MOL    C2735503   5.468   0.339   0.408  0.0577  0.5598  0.0364
   99MOL    H2835504   6.212   0.458   0.207  0.9585 -0.0804  2.6221
   99MOL    H2935505   6.055   0.506   0.152 -0.0351  1.0604 -1.0413
   99MOL    H3035506   6.130   0.422   0.440 -1.0567 -1.6472 -0.3317
   99MOL    H3135507   5.671   0.567   0.410 -1.0263  1.3762 -1.6605
   99MOL    H3235508   5.638   0.509   0.256  0.8155  1.5921 -0.2568
   99MOL    H3335509   5.650   0.264   0.325  1.6925 -0.9832  1.3162
   99MOL    H3435510   5.673   0.309   0.486 -1.7632  0.6876  1.1858
   99MOL    H3535511   5.419   0.354   0.312  2.5497  2.8316 -0.9379
   99MOL    H3635512   5.425   0.398   0.488  0.5762  1.2333 -0.1750
   99MOL    H3735513   5.436   0.241   0.445  1.2506 -0.2142 -0.9408
   99MOL    C3835514   6.043   0.275   0.333 -0.0950  0.2108 -0.2467
   99MOL    C3935515   6.001   0.199   0.462 -0.0587  0.0352  0.4657
   99MOL    C4035516   5.899   0.090   0.421 -0.1100 -0.9002  0.0154
   99MOL    O4135517   5.792   0.083   0.473  0.6328 -0.0713 -0.4027
   99MOL    O4235518   5.949   7.875   0.332 -0.9449 -0.8259 -0.4606
   99MOL    C4335519   5.879   7.760   0.308  0.2140 -0.0687  0.1079
   99MOL    C4435520   5.970   7.656   0.232  0.0532  0.4586  0.6196
   99MOL    C4535521   5.893   7.554   0.162 -0.4821  0.0983 -0.1925
   99MOL    H4635522   6.129   0.227   0.285 -0.3247 -0.1530 -0.2971
   99MOL    H4735523   5.967   0.264   0.256 -2.0856 -0.7974  1.8356
   99MOL    H4835524   5.948   0.263   0.532 -1.6691 -1.4024  0.5816
   99MOL    H4935525   5.843   7.721   0.404 -0.0531  0.0719  0.0655
   99MOL    H5035526   5.796   7.794   0.246  0.3614  0.7025  0.3359
   99MOL    H5135527   6.017   7.721   0.158  0.0752  1.4498  1.4968
   99MOL    H5235528   6.044   7.604   0.293 -1.7205 -0.1435  2.3042
   99MOL    H5335529   5.958   7.481   0.112  1.4621 -0.0705  2.5095
   99MOL    H5435530   5.832   7.602   0.086 -0.4183  1.9045  0.8765
   99MOL    H5535531   5.831   7.495   0.230 -0.3928 -0.1063 -0.2880
   99MOL    C5635532   6.127   0.135   0.532 -0.6445 -0.1336  0.2549
   99MOL    C5735533   6.096   0.076   0.673  0.0120  0.6272 -0.4758
   99MOL    C5835534   6.077   7.801   0.681  0.3466  0.5725 -0.5856
   99MOL    O5935535   6.127   7.717   0.603  0.1020  0.3608 -0.2314
   99MOL    O6035536   6.008   7.767   0.795 -0.2233 -0.1743 -0.1304
   99MOL    C6135537   5.990   7.630   0.839 -0.0273  0.6840  0.5404
   99MOL    C6235538   5.874   7.643   0.938  0.3502 -0.4206 -0.1501
   99MOL    C6335539   5.749   7.646   0.859 -0.2152  0.1212  0.2223
   99MOL    H6435540   6.199   0.216   0.543 -2.8329  1.9274 -0.1839
   99MOL    H6535541   6.184   0.061   0.477  0.2601  0.8950 -0.2045
   99MOL    H6635542   6.004   0.122   0.708 -1.0409 -0.2641 -1.9722
   99MOL    H6735543   5.975   7.566   0.752  2.5623 -0.1464  0.6520
   99MOL    H6835544   6.087   7.596   0.876 -0.0209 -1.2807 -1.1870
   99MOL    H6935545   5.853   7.559   1.005 -0.3261 -0.5266 -0.4875
   99MOL    H7035546   5.873   7.730   1.004  0.8255  0.0988 -0.8235
   99MOL    H7135547   5.744   7.562   0.790 -2.1907  0.4569 -0.0791
   99MOL    H7235548   5.741   7.734   0.796  3.8779 -1.5472 -2.8057
   99MOL    H7335549   5.670   7.652   0.935  0.8531  2.2008  1.2045
   99MOL    C7435550   6.214   0.112   0.771  0.2620 -0.1020  1.3744
   99MOL    C7535551   6.180   0.210   0.872  0.2462 -0.2826  0.0329
   99MOL    C7635552   6.278   0.225   0.984  1.0883 -0.1641 -0.0797
   99MOL    O7735553   6.384   0.169   0.984  0.6353 -0.5416 -0.6345
   99MOL    O7835554   6.237   0.304   1.089  0.4586 -0.4939 -0.4080
   99MOL    C7935555   6.312   0.298   1.212  0.2127  0.0325  0.7312
   99MOL    C8035556   6.421   0.408   1.197 -0.8242 -0.1382 -1.0470
   99MOL    C8135557   6.475   0.445   1.337 -0.2913  0.6472 -0.6814
   99MOL    H8235558   6.307   0.132   0.719 -0.5749 -1.7848 -0.8813
   99MOL    H8335559   6.241   0.017   0.818  1.1718  0.5829  2.2411
   99MOL    H8435560   6.090   0.177   0.923  0.7270 -2.0566 -0.2464
   99MOL    H8535561   6.242   0.326   1.291 -0.7517  1.8069 -0.7213
   99MOL    H8635562   6.347   0.199   1.241 -0.3704 -0.7673 -1.2572
   99MOL    H8735563   6.496   0.390   1.120 -1.7332  1.3460 -2.2870
   99MOL    H8835564   6.373   0.497   1.158 -0.0377 -1.0324 -4.1473
   99MOL    H8935565   6.403   0.495   1.402  1.5521  2.5675 -0.0576
   99MOL    H9035566   6.570   0.497   1.320  1.3422 -1.1433  2.4887
   99MOL    H9135567   6.499   0.350   1.384 -0.1824  1.2111  0.4192
   99MOL    C9235568   6.154   0.351   0.809  0.1164 -0.8257  0.0560
   99MOL    C9335569   6.256   0.460   0.779 -0.2817 -1.0120 -0.5629
   99MOL    C9435570   6.371   0.407   0.688  0.1813  0.2685 -0.0813
   99MOL    O9535571   6.358   0.412   0.566  0.5174  0.5633  0.4436
   99MOL    O9635572   6.467   0.356   0.753  0.5555 -0.4693  0.1961
   99MOL    C9735573   6.587   0.324   0.692 -0.4608  0.5327  0.1873
   99MOL    C9835574   6.683   0.275   0.800 -0.7630  0.4932  0.6428
   99MOL    C9935575   6.727   0.386   0.901  0.2222  0.2091 -0.1408
   99MOL   H10035576   6.091   0.395   0.886  1.4741  1.9152 -0.3411
   99MOL   H10135577   6.078   0.338   0.731 -2.2092 -0.5967  2.2380
   99MOL   H10235578   6.299   0.482   0.876 -3.3966  2.7236  0.0941
   99MOL   H10335579   6.569   0.241   0.624  1.2584 -0.8992  1.4574
   99MOL   H10435580   6.640   0.399   0.632  2.4041 -1.5058  0.0666
   99MOL   H10535581   6.623   0.201   0.852  2.5201 -2.4719  0.4803
   99MOL   H10635582   6.768   0.220   0.758  0.1191  1.2761  1.3928
   99MOL   H10735583   6.799   0.340   0.968  1.2929  0.9713 -0.7593
   99MOL   H10835584   6.646   0.429   0.960 -0.1138 -1.0833  0.3589
   99MOL   H10935585   6.770   0.475   0.855  1.0146  1.1725  2.3656
   99MOL   C11035586   6.200   0.597   0.728 -0.1264  0.4673 -0.5088
   99MOL   C11135587   6.283   0.718   0.782 -0.0999  0.7321  0.2268
   99MOL   C11235588   6.430   0.707   0.752 -0.1462 -0.3774 -0.4295
   99MOL   O11335589   6.510   0.676   0.836  0.1838  0.1525 -0.5709
   99MOL   O11435590   6.461   0.735   0.621 -0.0873 -0.1751  0.3025
   99MOL   C11535591   6.592   0.705   0.577  0.0467 -0.2398 -0.0647
   99MOL   C11635592   6.628   0.775   0.443 -0.0130 -0.2093  0.0293
   99MOL   C11735593   6.774   0.746   0.397 -0.4216 -0.7622 -0.0098
   99MOL   H11835594   6.100   0.617   0.768  0.9039  1.6845  1.5812
   99MOL   H11935595   6.197   0.600   0.619  0.9720 -1.1290 -0.5924
   99MOL   H12035596   6.280   0.708   0.891  1.2058 -2.0197  0.0658
   99MOL   H12135597   6.654   0.748   0.656 -0.9652 -1.8189  1.6244
   99MOL   H12235598   6.610   0.598   0.574  0.6137 -0.1147 -2.1513
   99MOL   H12335599   6.559   0.745   0.363  0.9756  0.0639 -0.9402
   99MOL   H12435600   6.618   0.882   0.462  0.0699  0.0196 -1.1368
   99MOL   H12535601   6.811   0.823   0.330 -0.8127 -0.1128  0.5198
   99MOL   H12635602   6.771   0.652   0.342 -0.5638 -2.1333  2.2628
   99MOL   H12735603   6.842   0.761   0.482 -1.5837 -0.3621  0.8643
   99MOL   C12835604   6.214   0.853   0.756 -0.3530  0.2539 -0.2039
   99MOL   C12935605   6.235   0.965   0.862  0.0105  0.2504 -0.0452
   99MOL   C13035606   6.381   1.006   0.886 -0.1867 -0.6015 -0.0186
   99MOL   O13135607   6.432   1.011   1.000 -0.0154 -0.1339  0.4667
   99MOL   O13235608   6.442   1.054   0.776 -0.8294 -0.2236 -0.1571
   99MOL   C13335609   6.586   1.076   0.771  0.6498  0.0251  0.2505
   99MOL   C13435610   6.621   1.213   0.818 -0.2787 -0.4042  0.0288
   99MOL   C13535611   6.522   1.320   0.766 -0.3513 -0.5619  0.1432
   99MOL   H13635612   6.107   0.836   0.744 -0.0266  0.2615 -3.7514
   99MOL   H13735613   6.239   0.900   0.661  0.6493  0.2205  0.0437
   99MOL   H13835614   6.219   0.906   0.952  1.0561  0.5490  0.3337
   99MOL   H13935615   6.634   1.002   0.834 -0.4700  1.0873  2.4149
   99MOL   H14035616   6.624   1.055   0.670  0.2407 -1.1595  0.3470
   99MOL   H14135617   6.616   1.215   0.927  1.6313  0.2921  0.1181
   99MOL   H14235618   6.722   1.246   0.794 -0.6522 -0.8674 -2.2178
   99MOL   H14335619   6.418   1.294   0.790 -0.3020 -1.6004 -0.7468
   99MOL   H14435620   6.541   1.341   0.661  0.1491 -1.8909 -0.0471
   99MOL   H14535621   6.548   1.404   0.830 -0.2695  0.7095 -1.5576
   99MOL   C14635622   6.135   1.087   0.831 -0.0017  0.3910  0.6126
   99MOL   C14735623   6.145   1.224   0.899 -0.4296  0.1765  0.0724
   99MOL   C14835624   6.111   1.338   0.806  0.8622  0.3573  0.6316
   99MOL   O14935625   6.179   1.436   0.799  0.0051 -0.3560 -0.4569
   99MOL   O15035626   6.007   1.305   0.722 -0.4110  0.2115  0.2656
   99MOL   C15135627   5.976   1.391   0.617 -0.9159  0.1315 -0.1443
   99MOL   C15235628   5.873   1.323   0.535 -0.3659  0.8202  0.2671
   99MOL   C15335629   5.731   1.322   0.598  0.5154 -0.0828 -0.2786
   99MOL   H15435630   6.030   1.061   0.840  0.0669  0.2436  0.9627
   99MOL   H15535631   6.147   1.095   0.723  0.8507  0.9102  0.7380
   99MOL   H15635632   6.249   1.248   0.920 -0.4229  1.5721 -1.4508
   99MOL   H15735633   5.931   1.475   0.671  0.6444  0.5378  0.5606
   99MOL   H15835634   6.065   1.412   0.557 -0.1210  0.9885  1.2996
   99MOL   H15935635   5.865   1.380   0.443  1.5452 -0.8438 -0.9846
   99MOL   H16035636   5.905   1.225   0.501 -1.2526  0.6168  0.0218
   99MOL   H16135637   5.724   1.275   0.696 -0.1749 -2.2302 -1.3182
   99MOL   H16235638   5.662   1.269   0.533  1.0360 -1.8479  0.5628
   99MOL   H16335639   5.692   1.423   0.605 -0.7640 -0.6455  0.7852
   99MOL   C16435640   6.075   1.216   1.034  0.1172 -0.8052  0.2123
   99MOL   C16535641   6.155   1.150   1.155  0.3135  0.9731  0.7486
   99MOL   C16635642   6.267   1.237   1.206  0.2865  0.0810  0.5115
   99MOL   O16735643   6.276   1.361   1.187 -0.1073  0.3616  0.2690
   99MOL   O16835644   6.355   1.165   1.273  0.2359  0.0668  0.2958
   99MOL   C16935645   6.479   1.225   1.322  0.5159  0.3932 -0.3724
   99MOL   C17035646   6.561   1.113   1.382  0.1435  0.0971  0.3546
   99MOL   C17135647   6.701   1.145   1.430  0.4302  0.1630 -0.0702
   99MOL   H17235648   5.979   1.167   1.016  0.8411 -3.0802  2.1673
   99MOL   H17335649   6.050   1.319   1.059 -0.2677 -0.9860  0.5880
   99MOL   H17435650   6.207   1.063   1.115  0.3988  0.1237  2.6367
   99MOL   H17535651   6.524   1.271   1.234  0.0935 -0.4500 -1.0257
   99MOL   H17635652   6.445   1.295   1.399  2.8541  0.2568  0.8076
   99MOL   H17735653   6.503   1.087   1.471 -3.1572 -0.2004 -1.8191
   99MOL   H17835654   6.560   1.021   1.325  2.5913  0.2425  0.0295
   99MOL   H17935655   6.759   1.174   1.342 -0.1976  2.2480  0.1632
   99MOL   H18035656   6.753   1.061   1.474  0.7476  1.1338  1.4526
   99MOL   H18135657   6.684   1.231   1.495 -0.5115  1.2917 -1.7547
   99MOL   C18235658   6.065   1.098   1.264  0.1152 -0.1320 -0.3239
   99MOL   C18335659   5.958   0.997   1.222  0.5354  0.8345 -0.0798
   99MOL   C18435660   5.999   0.871   1.148 -0.0027  0.9307  0.1346
   99MOL   O18535661   5.959   0.852   1.028  0.1658 -0.2038  0.1142
   99MOL   O18635662   6.072   0.790   1.219 -0.1381  0.3354  0.5868
   99MOL   C18735663   6.104   0.665   1.158 -0.9703 -0.4122 -0.3538
   99MOL   C18835664   6.019   0.548   1.199  1.3896 -0.0373 -0.4331
   99MOL   C18935665   6.017   0.528   1.347 -0.4386 -0.0191 -0.8747
   99MOL   H19035666   6.014   1.189   1.297  0.1303 -0.2084 -0.0942
   99MOL   H19135667   6.121   1.060   1.349 -0.1927  2.5722  1.1379
   99MOL   H19235668   5.899   1.048   1.145  1.2974 -0.7204 -1.6969
   99MOL   H19335669   6.092   0.664   1.049 -0.4055 -1.1559 -0.4086
   99MOL   H19435670   6.210   0.642   1.167 -0.5037  1.2911 -1.1134
   99MOL   H19535671   5.918   0.564   1.164  1.6695  0.9182 -0.8090
   99MOL   H19635672   6.065   0.461   1.152 -2.7347 -1.4523 -2.0028
   99MOL   H19735673   6.113   0.482   1.370 -2.0474 -3.6319 -1.0248
   99MOL   H19835674   5.937   0.458   1.373  0.1020 -0.1142  0.5620
   99MOL   H19935675   6.019   0.612   1.415 -0.6351 -0.7191 -0.0006
   99MOL   C20035676   5.874   0.950   1.345 -0.2344  0.1171  0.3440
   99MOL   C20135677   5.734   1.025   1.357 -0.1351  0.5191 -0.5515
   99MOL   C20235678   5.636   0.984   1.245 -1.0173  0.0718  0.1268
   99MOL   O20335679   5.647   0.882   1.180  0.4228 -0.3926 -0.4108
   99MOL   O20435680   5.543   1.079   1.239  0.4133  0.1486  0.4210
   99MOL   C20535681   5.445   1.092   1.128 -0.4019  0.1150 -0.0577
   99MOL   C20635682   5.348   1.207   1.160 -0.2260 -0.1015 -0.2558
   99MOL   C20735683   5.246   1.229   1.047  0.0883  0.2303 -0.0588
   99MOL   H20835684   5.932   0.981   1.432  0.2685 -0.3431  0.1766
   99MOL   H20935685   5.852   0.845   1.362 -2.0091  1.0489  4.5934
   99MOL   H21035686   5.755   1.130   1.335  1.2379 -0.0136 -1.8473
   99MOL   H21135687   5.497   1.107   1.033 -1.1776  1.1964 -0.3179
   99MOL   H21235688   5.380   1.005   1.134  2.0617 -1.6379  2.0678
   99MOL   H21335689   5.302   1.203   1.259  0.7677 -0.5597  0.1995
   99MOL   H21435690   5.425   1.285   1.163  0.7849 -1.1277  1.1595
   99MOL   H21535691   5.296   1.242   0.951 -1.0339  0.9143 -0.5599
   99MOL   H21635692   5.194   1.323   1.064 -0.6096 -0.0290 -0.7306
   99MOL   H21735693   5.167   1.154   1.036 -1.3945  1.4212  2.1166
   99MOL   C21835694   5.682   1.017   1.504  0.0433  0.1383  0.3592
   99MOL   C21935695   5.695   0.883   1.581  0.5613  0.0007  0.6930
   99MOL   C22035696   5.674   0.912   1.739 -0.2364 -0.0637  0.6869
   99MOL   O22135697   5.608   1.009   1.783  0.0187  0.0477  0.2127
   99MOL   O22235698   5.731   0.820   1.817  0.4475  0.1395 -0.1627
   99MOL   C22335699   5.699   0.812   1.953  0.0082  0.8704 -0.2379
   99MOL   C22435700   5.826   0.781   2.034  0.4085  0.4830  0.1901
   99MOL   C22535701   5.783   0.773   2.186  0.3452  0.1422  0.0868
   99MOL   H22635702   5.577   1.042   1.522  0.2948  0.1748  1.8082
   99MOL   H22735703   5.738   1.087   1.566  0.0485  1.8406 -1.5358
   99MOL   H22835704   5.802   0.866   1.569  0.3555 -1.2955  0.6964
   99MOL   H22935705   5.651   0.902   1.991 -0.8081  0.0063  0.8104
   99MOL   H23035706   5.629   0.730   1.972  0.0236  0.7198 -0.8101
   99MOL   H23135707   5.869   0.687   2.000  1.3322  0.4073  1.5478
   99MOL   H23235708   5.905   0.854   2.018  0.8441  0.1133  0.6281
   99MOL   H23335709   5.691   0.825   2.213 -0.8563 -0.7951 -2.1147
   99MOL   H23435710   5.861   0.821   2.246 -1.3060  0.4438  2.0508
   99MOL   H23535711   5.779   0.667   2.214  0.8809 -0.0440 -0.5388
   99MOL   C23635712   5.609   0.756   1.530  0.4293 -0.2030 -0.5612
   99MOL   C23735713   5.694   0.628   1.499  1.1402 -0.1067  0.0883
   99MOL   C23835714   5.736   0.548   1.622 -0.2317 -0.0613  0.7348
   99MOL   O23935715   5.846   0.496   1.624  0.0945  0.3389 -0.1239
   99MOL   O24035716   5.640   0.549   1.717 -0.0656 -0.0410 -0.3051
   99MOL   C24135717   5.654   0.474   1.838  0.0859  0.1674  0.2057
   99MOL   C24235718   5.523   0.479   1.915 -0.1843 -0.5550  0.1157
   99MOL   C24335719   5.539   0.430   2.055 -0.0146  0.1564  0.3020
   99MOL   H24435720   5.544   0.782   1.446 -0.4736 -1.0039 -0.1146
   99MOL   H24535721   5.539   0.730   1.609  0.5061 -1.1935 -0.8064
   99MOL   H24635722   5.783   0.667   1.450  0.0635  1.8291 -0.3353
   99MOL   H24735723   5.686   0.374   1.810 -2.6940 -1.5222  2.7508
   99MOL   H24835724   5.733   0.527   1.891  1.3283 -1.9789  0.5599
   99MOL   H24935725   5.487   0.581   1.907  2.7086  0.4991  0.0907
   99MOL   H25035726   5.449   0.419   1.861 -0.7510  0.5908 -0.3988
   99MOL   H25135727   5.607   0.486   2.119 -0.3995  1.4372 -0.3982
   99MOL   H25235728   5.565   0.324   2.053  1.5110  0.5493 -2.3415
   99MOL   H25335729   5.444   0.441   2.109 -0.1460 -0.0185  0.1068
   99MOL   C25435730   5.629   0.529   1.390  0.3486  0.1986 -0.8954
   99MOL   C25535731   5.503   0.442   1.438  0.8052 -0.2331  0.1474
   99MOL   C25635732   5.362   0.508   1.406  0.0271  0.4901 -0.1666
   99MOL   O25735733   5.266   0.507   1.486 -0.7879 -0.8533 -0.0204
   99MOL   O25835734   5.355   0.556   1.282  0.0566  0.0474 -0.2988
   99MOL   C25935735   5.233   0.614   1.240  0.3509  0.0650  0.2903
   99MOL   C26035736   5.248   0.763   1.271 -0.0611 -0.0372 -1.1063
   99MOL   C26135737   5.127   0.847   1.231  0.0780 -0.3715  0.1662
   99MOL   H26235738   5.705   0.459   1.357 -1.0724 -1.9316  0.2813
   99MOL   H26335739   5.604   0.590   1.302  0.2117  1.3614 -0.0577
   99MOL   H26435740   5.507   0.417   1.544 -0.0437  0.7632  0.4303
   99MOL   H26535741   5.223   0.607   1.132 -1.2988 -1.1352  0.4967
   99MOL   H26635742   5.144   0.585   1.296  1.2375  1.5156  2.4956
   99MOL   H26735743   5.264   0.777   1.378  0.2222 -2.7668 -0.7651
   99MOL   H26835744   5.338   0.799   1.221  0.3139  1.2620  0.4451
   99MOL   H26935745   5.162   0.950   1.234 -1.8068  0.3089 -0.4824
   99MOL   H27035746   5.042   0.815   1.292  2.6187 -6.2812  0.9380
   99MOL   H27135747   5.113   0.825   1.125  1.5295 -0.8410  0.0596
   99MOL   C27235748   5.513   0.305   1.359 -0.3592 -0.1852  0.1231
   99MOL   C27335749   5.582   0.194   1.438  0.4872  0.0026  0.1904
   99MOL   C27435750   5.513   0.164   1.573  0.0942 -0.7679  0.2751
   99MOL   O27535751   5.565   0.200   1.682 -0.3870 -0.2562  0.0962
   99MOL   O27635752   5.390   0.098   1.560 -0.3036  0.1420 -0.2072
   99MOL   C27735753   5.310   0.073   1.670 -0.0715 -0.6029  0.4417
   99MOL   C27835754   5.295   7.807   1.706  0.0084  0.9599 -0.7962
   99MOL   C27935755   5.407   7.731   1.782  0.3398 -0.0360  0.6928
   99MOL   H28035756   5.537   0.316   1.253 -0.8492 -0.9288 -0.0653
   99MOL   H28135757   5.412   0.268   1.343 -0.1814 -0.8789  0.6227
   99MOL   H28235758   5.683   0.231   1.453  0.6465  0.4871 -1.8394
   99MOL   H28335759   5.353   0.119   1.759 -2.1235 -0.0662  1.1815
   99MOL   H28435760   5.215   0.120   1.643  0.0913 -0.1725  0.6081
   99MOL   H28535761   5.218   7.804   1.782  2.1174  0.8809  1.4144
   99MOL   H28635762   5.254   7.758   1.618 -0.7575  0.4373 -0.1454
   99MOL   H28735763   5.507   7.740   1.739  0.5015  1.3646  1.3131
   99MOL   H28835764   5.390   7.624   1.793  2.5637 -0.4574  0.2389
   99MOL   H28935765   5.413   7.763   1.886 -0.1941 -0.7242  0.9339
   99MOL   C29035766   5.597   0.073   1.343  0.4925  0.0225 -0.3692
   99MOL   C29135767   5.746   0.045   1.298 -1.1247 -0.2131  0.5286
   99MOL   C29235768   5.810   0.156   1.215 -0.1357  0.4833  0.0792
   99MOL   O29335769   5.895   0.229   1.263 -0.0590  0.1191  0.4806
   99MOL   O29435770   5.755   0.163   1.092  0.5633 -0.3177 -0.0574
   99MOL   C29535771   5.817   0.254   1.003 -0.2637  0.1729  0.9125
   99MOL   C29635772   5.717   0.298   0.895 -0.0472 -0.4365 -0.3356
   99MOL   C29735773   5.660   0.179   0.823  0.2346  0.2012 -0.4170
   99MOL   H29835774   5.532   0.085   1.256  0.3587  2.6909  0.0853
   99MOL   H29935775   5.560   7.868   1.400  0.7936  0.9520  1.2269
   99MOL   H30035776   5.740   7.836   1.236 -0.9931 -0.3576  0.7264
   99MOL   H30135777   5.854   0.344   1.052 -0.0233 -0.3010  1.5968
   99MOL   H30235778   5.896   0.196   0.955 -2.7457 -2.8651  0.3725
   99MOL   H30335779   5.638   0.357   0.942  2.3933  2.1272  0.7174
   99MOL   H30435780   5.766   0.363   0.823  2.1748 -2.0586 -0.3390
   99MOL   H30535781   5.578   0.212   0.758  1.3553  1.5643 -1.1641
   99MOL   H30635782   5.611   0.105   0.885  1.0989 -1.5165 -1.7488
   99MOL   H30735783   5.734   0.123   0.766  0.1161  0.0611 -0.4334
   99MOL   C30835784   5.842   0.005   1.420  0.9821  0.7486 -0.3430
   99MOL   C30935785   5.796   7.757   1.494  0.2472  0.3281  0.3592
   99MOL   C31035786   5.794   7.632   1.402  0.3856  0.4590 -0.0033
   99MOL   O31135787   5.850   7.624   1.289 -0.3797  0.0931  0.2143
   99MOL   O31235788   5.728   7.527   1.463 -0.1574 -0.2329 -0.0138
   99MOL   C31335789   5.712   7.402   1.404  0.1524  0.2031  0.1790
   99MOL   C31435790   5.708   7.292   1.507  0.1127 -1.1331 -0.4866
   99MOL   C31535791   5.581   7.302   1.605 -0.3087 -0.4148 -0.5025
   99MOL   H31635792   5.836   0.083   1.497  0.8728  0.7216 -0.3238
   99MOL   H31735793   5.944   7.867   1.387  1.3900  0.4384  1.0264
   99MOL   H31835794   5.693   7.775   1.526  1.1742  2.4134  2.3321
   99MOL   H31935795   5.626   7.412   1.338  0.4250 -1.9127 -0.5459
   99MOL   H32035796   5.797   7.380   1.339 -0.9200  1.4961 -1.7332
   99MOL   H32135797   5.696   7.206   1.441 -0.0434  0.2422 -2.3096
   99MOL   H32235798   5.804   7.289   1.558  0.7116  1.4239 -1.3827
   99MOL   H32335799   5.486   7.305   1.552 -2.0592  1.0820  2.5379
   99MOL   H32435800   5.600   7.221   1.674  1.9973  2.4219  2.3495
   99MOL   H32535801   5.589   7.389   1.671 -0.8025 -1.1428  0.5275
   99MOL   C32635802   5.869   7.734   1.624 -0.0315  0.6228 -0.5838
   99MOL   C32735803   6.013   7.667   1.612 -0.1387  0.3211 -0.3894
   99MOL   C32835804   6.125   7.768   1.640 -0.3557 -0.3669 -0.1039
   99MOL   O32935805   6.191   7.765   1.743 -0.3383  0.0665  0.2474
   99MOL   O33035806   6.139   7.855   1.544 -0.4375  0.2074 -0.5793
   99MOL   C33135807   6.240   0.071   1.558 -0.3552  0.1998  0.0132
   99MOL   C33235808   6.205   0.196   1.641  0.1705 -0.6764  0.4477
   99MOL   C33335809   6.076   0.259   1.588 -0.4749  0.0819 -0.0905
   99MOL   H33435810   5.807   7.657   1.670  3.1942 -1.6751  0.1104
   99MOL   H33535811   5.864   7.815   1.697  0.7936 -1.3984  1.7893
   99MOL   H33635812   6.027   7.669   1.504  1.2391 -0.8532 -0.2475
   99MOL   H33735813   6.330   0.019   1.589  1.2559  1.0680 -3.0134
   99MOL   H33835814   6.256   0.097   1.453  0.6921 -0.8871 -0.1140
   99MOL   H33935815   6.195   0.169   1.746  1.6595 -0.5129  0.6463
   99MOL   H34035816   6.289   0.266   1.641  0.1840 -0.6918  0.3869
   99MOL   H34135817   6.080   0.255   1.480 -2.2221  0.1861 -0.1754
   99MOL   H34235818   5.992   0.208   1.636 -0.5170  0.5975  0.3936
   99MOL   H34335819   6.080   0.364   1.618  4.6748 -0.1073  0.2563
   99MOL   C34435820   6.028   7.522   1.669 -0.6674 -0.1369 -0.0521
   99MOL   C34535821   6.041   7.519   1.824 -0.1261 -0.7325  0.1524
   99MOL   C34635822   5.924   7.575   1.905  0.1659  0.0455  0.5710
   99MOL   O34735823   5.817   7.518   1.912  0.2552  0.6914  0.8005
   99MOL   O34835824   5.953   7.694   1.961 -0.6605  0.0586 -0.0388
   99MOL   C34935825   5.856   7.760   2.045  0.1288  0.0578 -0.0422
   99MOL   C35035826   5.775   7.857   1.966 -0.2738 -0.0638 -0.4724
   99MOL   C35135827   5.833   0.113   1.935 -0.2693 -0.0526  0.1783
   99MOL   H35235828   6.122   7.473   1.645  0.2972  0.5088  2.2518
   99MOL   H35335829   5.945   7.459   1.638 -0.5859  0.3367 -1.2896
   99MOL   H35435830   6.133   7.567   1.855 -0.3544 -0.8346  1.0103
   99MOL   H35535831   5.781   7.697   2.094  1.4810  0.1017  2.1564
   99MOL   H35635832   5.898   7.817   2.128 -2.3148  1.2726  0.4011
   99MOL   H35735833   5.739   7.813   1.873  0.8169 -1.9207 -0.0296
   99MOL   H35835834   5.682   7.870   2.022  0.5533  0.3280  0.8343
   99MOL   H35935835   5.929   0.087   1.889 -0.3142 -0.3399  0.2455
   99MOL   H36035836   5.782   0.164   1.853  0.5950  0.3702 -0.1037
   99MOL   H36135837   5.851   0.171   2.026  1.0125  2.7617 -1.7882
   99MOL   H36235838   6.056   7.418   1.862 -1.4038 -0.5480  1.2197
  100MOL     C135839   1.346   1.877   0.164 -0.3284  0.4373 -0.1766
  100MOL     C235840   1.285   1.996   0.104 -0.1680 -0.4452  0.0858
  100MOL     C335841   1.389   2.108   0.091  0.5851 -0.0335  0.3759
  100MOL     O435842   1.362   2.223   0.127 -0.2452 -0.5328 -0.4107
  100MOL     O535843   1.502   2.074   0.031 -0.0485 -0.8744 -0.4556
  100MOL     C635844   1.614   2.166   0.020  0.2174 -0.4138  0.6509
  100MOL     C735845   1.706   2.120   0.134  0.2552 -0.0024  0.1194
  100MOL     C835846   1.661   2.166   0.277  0.6853  0.0462  0.4657
  100MOL     H935847   1.266   1.807   0.189 -0.3936  0.6399  0.1929
  100MOL    H1035848   1.418   1.822   0.104  1.2505  1.1368  1.0673
  100MOL    H1135849   1.201   2.031   0.164 -1.9048  1.4858 -3.3224
  100MOL    H1235850   1.661   2.157   7.802  0.4433 -0.3416  0.7508
  100MOL    H1335851   1.592   2.271   0.037  2.7131  0.1803  0.4543
  100MOL    H1435852   1.708   2.011   0.133 -2.4142 -0.0817 -0.0099
  100MOL    H1535853   1.808   2.155   0.117  0.3327 -1.4801 -2.6142
  100MOL    H1635854   1.608   2.262   0.273  1.4153  0.3623 -2.7756
  100MOL    H1735855   1.589   2.098   0.323  0.7290 -0.6620 -0.4900
  100MOL    H1835856   1.739   2.192   0.347  0.6504  2.3641 -0.3045
  100MOL    H1935857   1.401   1.897   0.256 -0.9938  2.3471 -0.1820
  100MOL    C2035858   1.228   1.974   7.846 -0.0628  0.0106  0.1448
  100MOL    C2135859   1.125   2.088   7.801 -0.0232  0.5242 -0.2483
  100MOL    C2235860   1.116   2.099   7.643  0.2858 -0.4221 -0.7506
  100MOL    O2335861   1.202   2.162   7.584  0.4681 -0.0689  0.4817
  100MOL    O2435862   1.026   2.018   7.576  0.0722 -0.1377  0.1709
  100MOL    C2535863   0.994   2.044   7.440 -0.0556 -0.5977 -0.1319
  100MOL    C2635864   1.005   1.913   7.359 -0.0445  0.1544  0.3569
  100MOL    C2735865   1.148   1.857   7.348  0.9664 -0.0591  0.4061
  100MOL    H2835866   1.173   1.880   7.845 -2.0620  1.1515  0.5152
  100MOL    H2935867   1.304   1.960   7.770 -0.6139 -2.7774  0.0653
  100MOL    H3035868   1.164   2.183   7.838  0.1883  0.1150  0.5897
  100MOL    H3135869   0.892   2.081   7.439 -0.4061 -1.3766  2.8042
  100MOL    H3235870   1.060   2.120   7.397 -1.7062  0.0573 -1.5620
  100MOL    H3335871   0.934   1.839   7.396  0.7667 -0.5850  0.4266
  100MOL    H3435872   0.964   1.929   7.259 -0.8025 -1.0871  0.4615
  100MOL    H3535873   1.164   1.782   7.271  0.0659  2.6151 -2.5068
  100MOL    H3635874   1.190   1.810   7.436  0.7802  0.6706  0.8957
  100MOL    H3735875   1.204   1.946   7.317  1.4693 -0.5825 -0.1982
  100MOL    C3835876   0.990   2.060   7.872 -0.1778  0.3527  0.7821
  100MOL    C3935877   0.875   2.151   7.831  0.7331  0.1321  0.4216
  100MOL    C4035878   0.747   2.067   7.814  0.1789  0.1820  0.3582
  100MOL    O4135879   0.648   2.083   0.010  0.3014  0.5437 -0.5308
  100MOL    O4235880   0.743   1.994   7.706 -0.4153 -0.5659 -0.3136
  100MOL    C4335881   0.618   1.936   7.677  0.1171  0.4161  0.3153
  100MOL    C4435882   0.607   1.922   7.526 -0.3057  0.1507 -0.2615
  100MOL    C4535883   0.565   2.043   7.444  1.1897 -0.7231 -0.6873
  100MOL    H4635884   1.007   2.055   0.100  0.7779 -1.1711  0.5703
  100MOL    H4735885   0.970   1.956   7.846  0.5408  0.7858 -1.5941
  100MOL    H4835886   0.894   2.180   7.728 -1.2245  0.5879  0.1576
  100MOL    H4935887   0.614   1.837   7.722  2.1914 -0.3746 -1.1679
  100MOL    H5035888   0.529   1.997   7.694 -0.5830 -0.3177 -0.6158
  100MOL    H5135889   0.704   1.887   7.493  0.3931  2.6330 -0.9542
  100MOL    H5235890   0.538   1.842   7.498 -0.4581 -0.1095  0.8575
  100MOL    H5335891   0.589   2.033   7.338  2.3940 -1.0716 -0.3869
  100MOL    H5435892   0.616   2.129   7.487  1.9634 -0.4772 -2.0526
  100MOL    H5535893   0.459   2.069   7.454  1.4501  0.5670 -1.1463
  100MOL    C5635894   0.856   2.283   0.044 -0.3034  0.6602  0.1090
  100MOL    C5735895   0.856   2.414   7.851 -0.4895 -0.1883 -0.1793
  100MOL    C5835896   0.983   2.433   7.773  0.2971  0.2709 -0.5238
  100MOL    O5935897   0.998   2.403   7.652  0.9350 -0.2966  0.3868
  100MOL    O6035898   1.083   2.469   7.846 -0.4648  0.1673 -0.5447
  100MOL    C6135899   1.220   2.464   7.788  0.4293  0.3810 -0.1983
  100MOL    C6235900   1.266   2.604   7.741 -0.3257  0.7382  0.0893
  100MOL    C6335901   1.195   2.670   7.629 -0.2305  0.3246 -0.2376
  100MOL    H6435902   0.937   2.275   0.116  1.9650  0.1339 -2.3998
  100MOL    H6535903   0.769   2.283   0.110 -0.7665 -1.7428 -0.4397
  100MOL    H6635904   0.873   2.482   0.053 -1.3786 -0.4539  0.2273
  100MOL    H6735905   1.287   2.438   7.870 -2.0356 -0.9823  1.4646
  100MOL    H6835906   1.232   2.388   7.711  0.4200  3.1553 -3.0620
  100MOL    H6935907   1.254   2.663   7.832 -0.1204  0.3438  0.3749
  100MOL    H7035908   1.371   2.590   7.718 -1.0557 -2.7093 -1.5277
  100MOL    H7135909   1.087   2.661   7.643 -0.4965  0.9680 -1.8427
  100MOL    H7235910   1.227   2.628   7.534 -0.1517  1.0941 -0.5560
  100MOL    H7335911   1.216   2.777   7.624  2.4388 -0.1150  0.6826
  100MOL    C7435912   0.728   2.452   7.776  0.3964 -0.2631  0.1922
  100MOL    C7535913   0.606   2.497   7.852  0.0757  0.2045  0.0002
  100MOL    C7635914   0.631   2.632   0.050  0.0520  0.2406  0.9346
  100MOL    O7735915   0.624   2.641   0.174  0.2015  0.2963 -0.0957
  100MOL    O7835916   0.666   2.726   7.839 -0.0871  0.0546  0.3728
  100MOL    C7935917   0.687   2.853   7.879 -0.4250 -0.6187  0.0541
  100MOL    C8035918   0.729   2.927   7.749 -0.2432 -0.3273  0.0111
  100MOL    C8135919   0.868   2.895   7.688 -0.7825 -0.1213 -0.4956
  100MOL    H8235920   0.696   2.372   7.709 -3.6100  0.5746  0.9899
  100MOL    H8335921   0.746   2.536   7.709  0.4428  1.5732  2.4601
  100MOL    H8435922   0.586   2.430   0.055  1.2421  2.1403  1.9054
  100MOL    H8535923   0.597   2.886   0.051  0.0452 -0.7381  0.9326
  100MOL    H8635924   0.769   2.870   0.068  0.8445  0.2964 -1.6347
  100MOL    H8735925   0.656   2.909   7.670 -0.2004 -0.9397  0.1051
  100MOL    H8835926   0.726   3.029   7.785 -1.7838 -0.1721 -0.5215
  100MOL    H8935927   0.879   2.787   7.676  1.1063 -0.1691  1.4181
  100MOL    H9035928   0.950   2.926   7.753 -0.9302  0.3341 -0.5286
  100MOL    H9135929   0.883   2.937   7.588  0.5451 -1.1101 -0.7263
  100MOL    C9235930   0.481   2.489   7.761 -0.0114 -0.5854  0.8459
  100MOL    C9335931   0.402   2.352   7.750 -0.0442  0.3406 -0.1289
  100MOL    C9435932   0.321   2.317   7.875  0.5735 -0.1215 -0.0918
  100MOL    O9535933   0.297   2.402   0.084 -0.0358 -0.0930  0.1463
  100MOL    O9635934   0.287   2.186   7.872  0.3299 -0.3745  0.1100
  100MOL    C9735935   0.176   2.149   0.081  0.1278  0.7862 -0.0016
  100MOL    C9835936   0.168   1.997   0.093 -0.4215 -0.0434 -0.3332
  100MOL    C9935937   0.310   1.957   0.135  0.5945 -0.5240 -0.4246
  100MOL   H10035938   0.507   2.517   7.660  0.1615 -1.5474  0.6197
  100MOL   H10135939   0.419   2.571   7.797  3.6331  1.7871  2.0230
  100MOL   H10235940   0.483   2.279   7.745 -1.2866 -0.9403 -1.9537
  100MOL   H10335941   0.183   2.200   0.177 -1.5246 -0.7011  0.9417
  100MOL   H10435942   0.087   2.195   0.037 -0.3694 -0.9640 -0.9026
  100MOL   H10535943   0.084   1.966   0.154  0.5583 -1.9117  0.1018
  100MOL   H10635944   0.148   1.958   7.873  2.1218  0.0218 -0.9174
  100MOL   H10735945   0.324   1.855   0.170  0.7109 -0.3807 -0.0592
  100MOL   H10835946   0.350   2.016   0.217  2.4391  2.3908 -3.2710
  100MOL   H10935947   0.371   1.963   0.044 -0.7037 -0.1523 -1.2896
  100MOL   C11035948   0.317   2.343   7.619 -0.3771  0.0336 -0.0245
  100MOL   C11135949   0.210   2.454   7.602  0.0403  0.8361 -0.3880
  100MOL   C11235950   0.269   2.583   7.546 -0.1574  0.5429  0.2616
  100MOL   O11335951   0.323   2.584   7.436  0.5442  0.2265 -0.3682
  100MOL   O11435952   0.242   2.686   7.631 -0.2854 -0.3062 -0.3867
  100MOL   C11535953   0.269   2.820   7.590 -0.7817 -0.3060 -0.4776
  100MOL   C11635954   0.165   2.906   7.667 -0.1891  0.4149  0.3067
  100MOL   C11735955   0.212   2.911   7.814  0.5321 -0.1640 -0.1003
  100MOL   H11835956   0.270   2.246   7.606  3.5760 -1.7039 -2.3138
  100MOL   H11935957   0.391   2.337   7.539  1.8486 -1.5255  2.0803
  100MOL   H12035958   0.178   2.473   7.705  0.7374 -0.2605  0.0423
  100MOL   H12135959   0.373   2.839   7.615 -1.7503  2.8296  1.6038
  100MOL   H12235960   0.246   2.834   7.484  0.8753  2.0638 -0.5753
  100MOL   H12335961   0.152   3.005   7.624 -2.1295  0.8715  1.8770
  100MOL   H12435962   0.065   2.865   7.656  0.6535 -2.4896  2.4442
  100MOL   H12535963   0.320   2.918   7.807  0.4883  0.5769 -0.1349
  100MOL   H12635964   0.184   2.822   7.871 -0.8403 -0.3673 -1.0744
  100MOL   H12735965   0.166   2.998   7.862 -1.3475 -0.7246 -0.8190
  100MOL   C12835966   0.081   2.410   7.528  0.2332  0.3416 -0.6500
  100MOL   C12935967   7.844   2.507   7.540 -0.1608 -0.4271  0.8997
  100MOL   C13035968   7.798   2.552   7.677 -0.7166  0.3980 -0.3603
  100MOL   O13135969   7.787   2.668   7.708 -0.0503 -0.6048 -0.1467
  100MOL   O13235970   7.778   2.448   7.763  0.4240  0.0850 -0.1556
  100MOL   C13335971   7.726   2.470   0.012 -0.1374  0.1348 -0.2346
  100MOL   C13435972   7.844   2.463   0.112 -0.0195  0.0641 -0.0145
  100MOL   C13535973   0.060   2.590   0.110  0.5269 -0.0490 -0.2153
  100MOL   H13635974   0.049   2.327   7.591  0.4964  0.2816 -0.5939
  100MOL   H13735975   0.111   2.368   7.431  1.5278 -0.4176  0.0609
  100MOL   H13835976   7.759   2.443   7.514  1.0071 -1.4947 -0.3939
  100MOL   H13935977   7.668   2.562   0.016 -0.6515 -0.2429  1.3636
  100MOL   H14035978   7.662   2.386   0.041  1.3270 -1.1939 -0.7483
  100MOL   H14135979   7.800   2.453   0.212 -0.9163 -0.8868 -0.4924
  100MOL   H14235980   0.017   2.370   0.093 -0.2162  0.3647 -2.1275
  100MOL   H14335981   7.876   2.666   0.155  1.6531  1.2716 -0.7740
  100MOL   H14435982   0.089   2.610   0.006  1.6919 -0.9116 -0.0652
  100MOL   H14535983   0.151   2.570   0.167 -0.9019 -1.0215  1.7307
  100MOL   C14635984   7.841   2.626   7.438 -0.4407 -0.2405 -0.7943
  100MOL   C14735985   0.006   2.604   7.299 -0.1481 -0.4961  0.4053
  100MOL   C14835986   7.809   2.492   7.227  0.2768 -0.6532 -0.2888
  100MOL   O14935987   7.692   2.470   7.257  0.3679 -0.0516 -0.4447
  100MOL   O15035988   7.872   2.448   7.112  0.0911 -0.4328 -0.5367
  100MOL   C15135989   7.796   2.364   7.027  0.0591  0.0596 -0.5940
  100MOL   C15235990   7.851   2.379   6.884 -0.7146  0.4568  0.3575
  100MOL   C15335991   0.060   2.262   6.839 -0.2309 -0.2035 -0.2500
  100MOL   H15435992   0.029   2.701   7.479 -1.5407  1.0426 -1.2626
  100MOL   H15535993   7.743   2.674   7.445 -1.2460 -2.0439  0.6863
  100MOL   H15635994   0.106   2.560   7.297  0.5845  0.9023  3.8874
  100MOL   H15735995   7.803   2.259   7.055 -0.4109 -0.3049 -1.7856
  100MOL   H15835996   7.689   2.380   7.037  0.0555  0.3109 -0.9973
  100MOL   H15935997   7.781   2.417   6.810  0.5446  0.4955 -0.8547
  100MOL   H16035998   0.049   2.455   6.880  0.1350 -0.4228 -0.1120
  100MOL   H16135999   0.140   2.249   6.912 -2.2573  0.9731  2.2980
  100MOL   H16236000   0.114   2.286   6.748 -0.1876  1.5681  0.2109
  100MOL   H16336001   0.012   2.165   6.823 -0.5218  0.1183 -1.3223
  100MOL   C16436002   0.007   2.726   7.209  0.2777 -0.4897  0.2203
  100MOL   C16536003   0.120   2.835   7.214  0.1715 -0.1830 -0.1065
  100MOL   C16636004   0.254   2.772   7.180 -0.5746  0.1501 -0.6223
  100MOL   O16736005   0.257   2.659   7.126  0.3799 -0.4266 -0.0762
  100MOL   O16836006   0.361   2.848   7.202  0.1136 -0.8687  0.0766
  100MOL   C16936007   0.485   2.804   7.152 -0.7625  0.0063  0.3644
  100MOL   C17036008   0.570   2.735   7.257  0.1930  0.1299 -0.4033
  100MOL   C17136009   0.609   2.840   7.361 -0.3743 -0.5945 -0.4571
  100MOL   H17236010   7.800   2.783   7.239  0.8128 -0.7706  2.4641
  100MOL   H17336011   7.877   2.701   7.104 -0.8238 -0.4260  0.3120
  100MOL   H17436012   0.136   2.862   7.319  1.1917 -0.0838 -0.2764
  100MOL   H17536013   0.480   2.738   7.066 -1.2266  0.1853  0.2494
  100MOL   H17636014   0.545   2.887   7.115  1.0924 -0.7567  1.5961
  100MOL   H17736015   0.512   2.652   7.296  0.0055 -0.8221 -2.6161
  100MOL   H17836016   0.659   2.688   7.215 -1.2708 -2.4721 -0.6216
  100MOL   H17936017   0.694   2.895   7.318  0.2921 -1.4311 -0.2109
  100MOL   H18036018   0.649   2.795   7.451 -1.1732  1.7464  1.1106
  100MOL   H18136019   0.527   2.904   7.392 -1.4575 -1.5811 -1.2323
  100MOL   C18236020   0.090   2.963   7.133 -0.0927  0.0731 -0.2653
  100MOL   C18336021   0.087   3.095   7.208 -0.3727  0.5044 -0.0108
  100MOL   C18436022   7.849   3.121   7.301 -0.3679 -0.2734 -0.4319
  100MOL   O18536023   7.781   3.224   7.283  1.0442  1.0507  0.3745
  100MOL   O18636024   7.839   3.038   7.406 -0.0486  0.8889 -0.6336
  100MOL   C18736025   7.759   3.062   7.520  0.1591 -0.3311 -0.0910
  100MOL   C18836026   7.613   3.056   7.476 -0.2238  0.1751  0.1195
  100MOL   C18936027   7.574   2.922   7.410  0.3673 -0.0443 -0.4126
  100MOL   H19036028   7.867   2.956   7.099 -0.4451 -1.6595  1.0904
  100MOL   H19136029   0.150   2.980   7.044 -0.0550 -2.4550 -0.7513
  100MOL   H19236030   0.065   3.182   7.145 -1.1747  0.3862  0.1077
  100MOL   H19336031   7.790   2.997   7.602  0.6151 -0.1830 -0.1451
  100MOL   H19436032   7.786   3.161   7.556  0.6020 -1.5494  3.1401
  100MOL   H19536033   7.544   3.064   7.560 -2.6428 -0.2478 -1.7998
  100MOL   H19636034   7.586   3.137   7.408  0.6443  0.7325  0.4173
  100MOL   H19736035   7.470   2.923   7.377  0.5203  1.9840 -0.8597
  100MOL   H19836036   7.585   2.850   7.491  1.7225 -1.6944 -2.0018
  100MOL   H19936037   7.630   2.897   7.320 -1.4624  0.6106 -1.7562
  100MOL   C20036038   0.221   3.130   7.274 -0.2581 -0.2199  0.5293
  100MOL   C20136039   0.246   3.272   7.327  0.5109 -0.5868 -0.0757
  100MOL   C20236040   0.303   3.252   7.469 -0.1096 -0.2497  0.0017
  100MOL   O20336041   0.234   3.284   7.563  0.1484  0.5734  0.3002
  100MOL   O20436042   0.425   3.194   7.477  0.9906 -0.0860 -0.4361
  100MOL   C20536043   0.486   3.174   7.608 -0.3331  0.0312 -0.2605
  100MOL   C20636044   0.607   3.259   7.629  0.0150  0.0799 -0.3359
  100MOL   C20736045   0.710   3.222   7.522 -0.2331  0.3404  0.3971
  100MOL   H20836046   0.297   3.093   7.205 -0.0464  1.1499  0.0105
  100MOL   H20936047   0.242   3.051   7.347  1.7882 -0.0692  0.1456
  100MOL   H21036048   0.150   3.321   7.343  1.0107  0.4408 -0.2164
  100MOL   H21136049   0.423   3.200   7.692 -2.7007 -3.5858 -0.7943
  100MOL   H21236050   0.507   3.067   7.615 -0.7180 -0.0432 -0.2319
  100MOL   H21336051   0.582   3.365   7.623  1.5283  0.4952  0.5008
  100MOL   H21436052   0.651   3.242   7.727  1.0244  0.6185 -0.6936
  100MOL   H21536053   0.786   3.299   7.527 -1.7806  1.9585 -0.5028
  100MOL   H21636054   0.664   3.229   7.423  2.3888 -0.6145 -0.9279
  100MOL   H21736055   0.758   3.125   7.531 -1.7242 -0.4272  0.3513
  100MOL   C21836056   0.328   3.363   7.232 -0.4084  0.4708 -0.0202
  100MOL   C21936057   0.323   3.509   7.284  0.1606 -0.2793  0.2086
  100MOL   C22036058   0.441   3.589   7.216  0.0409  0.3503 -0.4245
  100MOL   O22136059   0.531   3.627   7.288 -0.0969  0.0633  0.1021
  100MOL   O22236060   0.440   3.598   7.080 -0.6420  0.1905 -0.0014
  100MOL   C22336061   0.533   3.678   7.014 -0.9501 -0.3167  0.5623
  100MOL   C22436062   0.463   3.726   6.881 -0.3178 -0.7627  0.5957
  100MOL   C22536063   0.538   3.822   6.789 -0.2042 -0.2830 -0.0855
  100MOL   H22636064   0.282   3.358   7.133 -0.1800 -2.6214 -0.0282
  100MOL   H22736065   0.431   3.329   7.232 -0.1656  1.1792  1.2219
  100MOL   H22836066   0.330   3.516   7.392  1.9961  0.8452  0.0315
  100MOL   H22936067   0.579   3.755   7.076 -0.8499  1.1865 -1.3331
  100MOL   H23036068   0.603   3.601   6.983 -1.5626 -0.3080 -0.8518
  100MOL   H23136069   0.434   3.638   6.823 -0.4040 -0.6344  0.4457
  100MOL   H23236070   0.365   3.768   6.902 -0.5025 -2.4512  3.3882
  100MOL   H23336071   0.563   3.911   6.847 -0.4712 -0.6181  0.5486
  100MOL   H23436072   0.460   3.850   6.718  1.2805 -0.3201 -1.7659
  100MOL   H23536073   0.615   3.798   6.716 -1.3219  1.3623 -1.8391
  100MOL   C23636074   0.187   3.582   7.248  0.0657  0.2475 -0.1470
  100MOL   C23736075   0.157   3.721   7.313  0.0263 -0.0721 -0.9837
  100MOL   C23836076   0.067   3.812   7.225 -0.2287  0.0616 -0.3432
  100MOL   O23936077   0.082   3.933   7.223 -0.2691 -0.5201 -0.3390
  100MOL   O24036078   7.840   3.742   7.181 -0.2863  0.1862  0.2084
  100MOL   C24136079   7.723   3.803   7.129 -0.1202  0.2840 -0.3775
  100MOL   C24236080   7.599   3.746   7.204  0.1687  0.2824  0.3070
  100MOL   C24336081   7.577   3.601   7.163  0.0802  0.9748  0.1957
  100MOL   H24436082   0.105   3.514   7.271  2.2680 -2.0125  1.4077
  100MOL   H24536083   0.189   3.599   7.141  1.6732  0.2644 -0.1282
  100MOL   H24636084   0.255   3.767   7.323  0.1795 -0.8349  1.4688
  100MOL   H24736085   7.724   3.906   7.164 -1.5397  0.0321  0.4603
  100MOL   H24836086   7.713   3.790   7.021  1.9713 -1.2901 -0.4195
  100MOL   H24936087   7.607   3.757   7.312  0.9751 -0.7039  0.3600
  100MOL   H25036088   7.510   3.797   7.168  1.4345  1.2874 -1.4666
  100MOL   H25136089   7.482   3.558   7.193  0.7086 -0.4833  0.1185
  100MOL   H25236090   7.658   3.531   7.184 -2.9367 -3.3137 -1.7938
  100MOL   H25336091   7.574   3.599   7.054  0.6645  0.5482  0.1828
  100MOL   C25436092   0.092   3.703   7.449 -0.1169 -0.5424  0.2497
  100MOL   C25536093   0.091   3.823   7.549  0.6603  0.0036 -0.0390
  100MOL   C25636094   7.855   3.817   7.648 -0.0472  0.2817 -0.2196
  100MOL   O25736095   7.871   3.762   7.756 -0.5080 -0.1367  0.3657
  100MOL   O25836096   7.746   3.875   7.601 -0.0603 -0.6327 -0.0724
  100MOL   C25936097   7.617   3.867   7.663  0.3024 -0.3778 -0.1759
  100MOL   C26036098   7.519   3.824   7.552 -0.6244 -0.5009 -0.0878
  100MOL   C26136099   7.379   3.812   7.610  0.3427  0.0468  0.5283
  100MOL   H26236100   0.139   3.621   7.504 -0.2229 -0.4846  0.4286
  100MOL   H26336101   7.871   3.662   7.443 -0.1672 -0.3694 -0.0713
  100MOL   H26436102   0.068   3.908   7.485  0.3141 -1.3363 -1.7307
  100MOL   H26536103   7.607   3.798   7.747  1.4429 -1.6094 -1.0434
  100MOL   H26636104   7.576   3.963   7.695 -0.5250 -0.7208 -0.1923
  100MOL   H26736105   7.518   3.888   7.464  1.1524 -0.1332  0.1337
  100MOL   H26836106   7.552   3.729   7.510  1.8617 -0.4900  1.7345
  100MOL   H26936107   7.375   3.729   7.681  0.4978 -0.9545 -0.6293
  100MOL   H27036108   7.307   3.809   7.528  1.3069 -0.6217 -0.3098
  100MOL   H27136109   7.345   3.901   7.663  1.0008 -0.3697  1.6824
  100MOL   C27236110   0.231   3.866   7.607 -0.4176  0.1811 -0.8692
  100MOL   C27336111   0.316   3.755   7.675  0.2842 -0.8007  0.1769
  100MOL   C27436112   0.450   3.720   7.609 -0.8171  0.4325 -0.7635
  100MOL   O27536113   0.476   3.605   7.587 -0.4323  1.0775  0.1215
  100MOL   O27636114   0.527   3.823   7.594 -0.1913 -0.6588  0.1460
  100MOL   C27736115   0.664   3.803   7.560 -0.6680  0.5261 -0.1169
  100MOL   C27836116   0.755   3.778   7.684  0.4834 -0.7680  0.4835
  100MOL   C27936117   0.764   3.909   7.772 -0.1031 -0.6479 -0.2752
  100MOL   H28036118   0.218   3.953   7.672  0.8719 -1.3020  1.4645
  100MOL   H28136119   0.292   3.912   7.529  2.2945 -1.2654  0.3281
  100MOL   H28236120   0.250   3.668   7.676 -0.9927  0.1436  1.8095
  100MOL   H28336121   0.664   3.714   7.498 -1.4220  1.2912 -1.2519
  100MOL   H28436122   0.710   3.876   7.492  0.9288 -1.1386 -0.8541
  100MOL   H28536123   0.715   3.692   7.738  0.8704 -1.0163  0.3754
  100MOL   H28636124   0.856   3.753   7.652  0.9255  0.8376  0.5990
  100MOL   H28736125   0.817   3.994   7.729 -1.7671 -0.1593 -1.4084
  100MOL   H28836126   0.796   3.901   7.876  0.2676  0.9757 -0.2424
  100MOL   H28936127   0.668   3.957   7.791  0.6143 -0.3827  3.0900
  100MOL   C29036128   0.340   3.778   7.833  0.2057  0.0445  0.3561
  100MOL   C29136129   0.415   3.669   0.035  0.0370  0.5069 -0.1764
  100MOL   C29236130   0.434   3.728   0.170 -0.4485  0.0551 -0.0338
  100MOL   O29336131   0.390   3.673   0.273  0.1666  0.1109  0.2023
  100MOL   O29436132   0.496   3.845   0.168  0.4976 -0.4388  0.0443
  100MOL   C29536133   0.524   3.921   0.292  0.9589  0.2148  0.4107
  100MOL   C29636134   0.586   4.060   0.277 -0.0941  0.5111  0.2059
  100MOL   C29736135   0.491   4.171   0.232  0.4855  0.0304  0.4373
  100MOL   H29836136   0.240   3.802   7.871  0.3260  1.4085 -0.1507
  100MOL   H29936137   0.398   3.870   7.833 -2.0166  1.4984  1.0960
  100MOL   H30036138   0.520   3.654   0.007 -0.1545 -0.5979 -0.3158
  100MOL   H30136139   0.436   3.948   0.351 -0.1852  2.3677 -2.1199
  100MOL   H30236140   0.593   3.866   0.355  0.0683  0.5341  1.6892
  100MOL   H30336141   0.628   4.089   0.373 -1.9692  0.4408  1.0472
  100MOL   H30436142   0.676   4.052   0.215  0.5149 -2.0709  1.3717
  100MOL   H30536143   0.549   4.259   0.203 -0.1706 -0.2004 -1.6491
  100MOL   H30636144   0.418   4.189   0.311 -0.2278 -2.6398  0.4311
  100MOL   H30736145   0.444   4.139   0.139  0.5835  0.8227  0.1115
  100MOL   C30836146   0.344   3.529   0.030 -0.4476  0.1428  0.5690
  100MOL   C30936147   0.396   3.410   0.116 -0.1679  0.1748  0.6351
  100MOL   C31036148   0.305   3.291   0.117 -0.3053 -0.6733  0.5146
  100MOL   O31136149   0.346   3.183   0.073  0.4262  0.0398  0.0972
  100MOL   O31236150   0.178   3.316   0.168 -0.3295 -0.2574  0.4341
  100MOL   C31336151   0.078   3.210   0.179 -0.3539  0.3006 -0.0097
  100MOL   C31436152   7.862   3.224   0.056 -0.9562 -0.9118  0.0694
  100MOL   C31536153   7.760   3.116   0.037 -0.2025  0.1225 -0.1647
  100MOL   H31636154   0.356   3.501   7.805 -0.5917 -0.8487  0.8204
  100MOL   H31736155   0.238   3.551   0.048 -0.3880  2.7360 -1.7743
  100MOL   H31836156   0.381   3.451   0.216 -1.8978  0.5902  0.2375
  100MOL   H31936157   0.135   3.119   0.162  1.7793  1.3079  1.5607
  100MOL   H32036158   0.035   3.219   0.278  1.9123  0.3247  0.9954
  100MOL   H32136159   7.820   3.324   0.065 -1.3616 -1.1749  1.2521
  100MOL   H32236160   0.050   3.216   7.852 -0.6661  0.0865  0.1958
  100MOL   H32336161   7.813   3.021   0.029  0.0023  0.1976  0.3108
  100MOL   H32436162   7.694   3.114   0.124 -0.4125  2.2512 -0.2684
  100MOL   H32536163   7.717   3.135   7.819 -1.7813 -1.4924  0.1882
  100MOL   C32636164   0.550   3.376   0.113 -0.3634  0.3038 -0.0927
  100MOL   C32736165   0.589   3.275   0.226 -0.4704 -0.1693 -0.2926
  100MOL   C32836166   0.733   3.222   0.205  0.2365 -0.2929  0.2091
  100MOL   O32936167   0.808   3.277   0.128  0.1511 -0.1743 -0.8189
  100MOL   O33036168   0.768   3.127   0.286  0.9855 -0.2630  0.2810
  100MOL   C33136169   0.896   3.060   0.280 -0.3398 -0.1132  0.8377
  100MOL   C33236170   0.914   2.951   0.392  0.0401 -0.2802  0.0431
  100MOL   C33336171   0.820   2.831   0.368 -0.4794 -0.5040 -0.3771
  100MOL   H33436172   0.604   3.471   0.118  0.5560 -0.1382 -1.2456
  100MOL   H33536173   0.582   3.336   0.016 -0.3616  1.4385 -0.5697
  100MOL   H33636174   0.525   3.186   0.222 -3.4255  1.7952  1.5350
  100MOL   H33736175   0.894   3.008   0.184  2.9665 -1.0173  1.2131
  100MOL   H33836176   0.978   3.131   0.284 -0.5659  0.1531  0.7701
  100MOL   H33936177   1.015   2.915   0.369  0.5944  0.1934  1.6912
  100MOL   H34036178   0.901   3.004   0.486 -0.1970  1.6213 -1.0155
  100MOL   H34136179   0.827   2.802   0.263 -0.3750  1.8868 -1.0671
  100MOL   H34236180   0.857   2.740   0.414  3.2881  0.2978 -1.6374
  100MOL   H34336181   0.716   2.839   0.399 -0.6145 -1.8935 -0.4168
  100MOL   C34436182   0.573   3.326   0.373  0.2735 -0.0746  0.2397
  100MOL   C34536183   0.523   3.217   0.469 -0.0478 -0.2954 -0.4382
  100MOL   C34636184   0.385   3.159   0.437  0.1328  0.6336  0.0998
  100MOL   O34736185   0.288   3.223   0.406  0.0456  0.1247 -0.2960
  100MOL   O34836186   0.396   3.029   0.444 -0.2216 -0.8232 -0.4150
  100MOL   C34936187   0.273   2.964   0.410 -0.0091  0.3834 -0.0768
  100MOL   C35036188   0.280   2.896   0.275 -0.3074 -0.5286  0.0265
  100MOL   C35136189   0.341   2.756   0.265 -0.2167  0.5518  0.0980
  100MOL   H35236190   0.499   3.406   0.376 -0.4556 -0.6198 -2.0324
  100MOL   H35336191   0.666   3.374   0.403  0.4242  0.1667 -0.5901
  100MOL   H35436192   0.528   3.255   0.570  1.0168  0.1450 -0.6533
  100MOL   H35536193   0.254   2.877   0.474 -3.3198 -0.2877 -1.8945
  100MOL   H35636194   0.184   3.026   0.417  0.1664  0.6605 -0.3014
  100MOL   H35736195   0.173   2.894   0.253 -0.1812 -0.6888 -0.5768
  100MOL   H35836196   0.327   2.954   0.196  0.2860 -2.1326 -0.8239
  100MOL   H35936197   0.446   2.757   0.296 -0.4475 -0.0003  0.9164
  100MOL   H36036198   0.285   2.693   0.333  1.2133 -0.2966  0.5156
  100MOL   H36136199   0.333   2.725   0.161  0.9740  1.8361 -0.4015
  100MOL   H36236200   0.591   3.131   0.464  0.9174  0.4400 -0.0331
  101MOL     C136201   2.505   5.390   1.399  0.2825  0.9720  0.4105
  101MOL     C236202   2.440   5.431   1.534 -0.0018  0.9105  0.0679
  101MOL     C336203   2.346   5.324   1.582  0.7774 -0.0873 -0.5271
  101MOL     O436204   2.228   5.335   1.623  0.5696  0.5995  0.6217
  101MOL     O536205   2.420   5.210   1.581  0.4206  0.2260 -0.5317
  101MOL     C636206   2.373   5.080   1.628  0.3416 -0.5599  0.0798
  101MOL     C736207   2.471   4.970   1.584  1.3760 -0.2529 -0.3602
  101MOL     C836208   2.460   4.953   1.425 -0.3631 -0.6213  0.0609
  101MOL     H936209   2.544   5.474   1.342 -3.7506  0.8590 -2.6856
  101MOL    H1036210   2.581   5.312   1.407 -0.2408  0.0474 -3.0043
  101MOL    H1136211   2.369   5.513   1.532 -0.2056  0.7288 -0.2186
  101MOL    H1236212   2.358   5.092   1.736 -3.2106  0.3964 -0.4505
  101MOL    H1336213   2.271   5.066   1.592 -0.2622  2.2798  0.5649
  101MOL    H1436214   2.565   5.005   1.628  0.7937  0.2605  0.5056
  101MOL    H1536215   2.438   4.874   1.622  1.5676 -0.4507 -0.6964
  101MOL    H1636216   2.387   4.876   1.399 -0.9933  0.5337 -1.7272
  101MOL    H1736217   2.443   5.038   1.358  1.1783 -0.6854 -0.4421
  101MOL    H1836218   2.551   4.894   1.408 -0.1283 -0.6597  1.3927
  101MOL    H1936219   2.437   5.328   1.340  2.0076  0.7867 -1.4373
  101MOL    C2036220   2.540   5.459   1.649  0.0668 -0.1827  0.2483
  101MOL    C2136221   2.576   5.614   1.664 -0.1144  0.0938  0.3306
  101MOL    C2236222   2.457   5.681   1.734  0.2519  0.1456  0.0194
  101MOL    O2336223   2.389   5.766   1.675 -0.3534  0.4538  0.3564
  101MOL    O2436224   2.440   5.649   1.863  0.3023  0.2827  0.1547
  101MOL    C2536225   2.312   5.680   1.935 -0.1726 -0.4382  1.0024
  101MOL    C2636226   2.206   5.577   1.900  0.8711  0.4251  0.4787
  101MOL    C2736227   2.239   5.434   1.939  0.0752  0.8297 -0.0318
  101MOL    H2836228   2.625   5.396   1.622 -0.4200 -1.7916  2.3579
  101MOL    H2936229   2.517   5.413   1.745  0.7626 -2.3388 -0.5700
  101MOL    H3036230   2.595   5.662   1.568  0.8022 -0.7707  0.0629
  101MOL    H3136231   2.318   5.684   2.044  1.7647  1.2879  0.8609
  101MOL    H3236232   2.288   5.782   1.907 -0.6117 -0.6361  0.6597
  101MOL    H3336233   2.105   5.615   1.917  0.4843 -0.3060 -0.1432
  101MOL    H3436234   2.201   5.565   1.791 -0.1236 -0.4940  0.6109
  101MOL    H3536235   2.265   5.417   2.043 -3.5603 -0.6787  0.7095
  101MOL    H3636236   2.317   5.385   1.881 -0.1267 -1.0132  1.2298
  101MOL    H3736237   2.155   5.365   1.931  0.4094  0.0612  2.5484
  101MOL    C3836238   2.702   5.631   1.751  0.0084 -1.0627  0.1945
  101MOL    C3936239   2.756   5.776   1.764 -0.6345  0.3794  1.0152
  101MOL    C4036240   2.879   5.772   1.856 -1.3493 -0.5216  0.2118
  101MOL    O4136241   2.888   5.858   1.943 -0.7708 -0.3369  0.0538
  101MOL    O4236242   2.963   5.673   1.837 -0.2838  0.0158 -0.3041
  101MOL    C4336243   3.094   5.683   1.889  0.5449  0.0180 -0.3715
  101MOL    C4436244   3.125   5.549   1.970  0.0608 -0.2398  0.0684
  101MOL    C4536245   3.275   5.532   2.004  0.0952  0.4578 -0.2286
  101MOL    H4636246   2.779   5.578   1.695  0.1189  0.3064 -0.9610
  101MOL    H4736247   2.686   5.590   1.850  0.7510 -0.1279  0.7042
  101MOL    H4836248   2.677   5.827   1.820 -1.4953  0.5706 -0.3678
  101MOL    H4936249   3.162   5.694   1.804 -0.2506  5.3600 -0.4854
  101MOL    H5036250   3.105   5.761   1.964 -1.1654 -1.5222  1.5439
  101MOL    H5136251   3.062   5.549   2.058 -0.6565 -2.3576 -0.4152
  101MOL    H5236252   3.096   5.460   1.913  1.0598 -1.6531  1.7015
  101MOL    H5336253   3.315   5.626   2.042  0.5317  1.0913 -2.2306
  101MOL    H5436254   3.329   5.512   1.912 -2.4197 -2.2096 -1.2008
  101MOL    H5536255   3.296   5.444   2.066 -0.6082  1.8337  2.0413
  101MOL    C5636256   2.777   5.848   1.623 -0.7860 -0.3953 -0.4563
  101MOL    C5736257   2.825   5.991   1.638  0.3764 -0.9677  0.7767
  101MOL    C5836258   2.907   6.029   1.518  0.5224 -0.0990 -0.1372
  101MOL    O5936259   3.023   6.066   1.534 -0.4093  0.0765  0.4135
  101MOL    O6036260   2.853   6.007   1.403 -0.9318 -0.3817  0.3596
  101MOL    C6136261   2.927   6.010   1.280 -0.0962  0.5165 -0.1341
  101MOL    C6236262   2.842   6.075   1.165 -0.6976  0.5807  0.0699
  101MOL    C6336263   2.790   6.215   1.190 -0.0859 -0.4165 -0.5237
  101MOL    H6436264   2.686   5.858   1.564 -0.7623  2.6983 -0.0115
  101MOL    H6536265   2.845   5.785   1.565 -1.3199 -0.8246 -0.6169
  101MOL    H6636266   2.895   6.009   1.719 -0.4796 -0.2432  1.3612
  101MOL    H6736267   3.023   6.061   1.289 -0.3499  0.7784  1.2815
  101MOL    H6836268   2.937   5.907   1.244  3.7096  1.1844 -1.2219
  101MOL    H6936269   2.907   6.075   1.077  0.6479 -3.0706  0.9889
  101MOL    H7036270   2.756   6.011   1.143  0.5782 -0.6294 -1.4898
  101MOL    H7136271   2.871   6.280   1.223 -0.6708 -0.2475  0.6105
  101MOL    H7236272   2.712   6.222   1.266  2.1154 -1.7586  1.9382
  101MOL    H7336273   2.749   6.255   1.097  0.8199 -1.5550 -1.4146
  101MOL    C7436274   2.710   6.088   1.652 -0.1100 -0.0210  0.2342
  101MOL    C7536275   2.667   6.105   1.800 -0.5440 -0.4785  0.1433
  101MOL    C7636276   2.739   6.221   1.873 -0.6380 -0.2559  0.2813
  101MOL    O7736277   2.681   6.320   1.920 -0.2550  0.5691  0.4985
  101MOL    O7836278   2.870   6.193   1.894 -0.6542 -0.6439  0.1639
  101MOL    C7936279   2.949   6.282   1.982 -0.0093 -0.3024 -0.6486
  101MOL    C8036280   2.921   6.253   2.130  0.1345  0.4364 -0.2624
  101MOL    C8136281   2.930   6.113   2.187 -0.6009  0.2197  0.4937
  101MOL    H8236282   2.629   6.067   1.583  0.3528  0.6309 -0.5147
  101MOL    H8336283   2.752   6.187   1.630  0.1001  0.2415  1.7171
  101MOL    H8436284   2.711   6.017   1.847  1.0429 -0.7763 -1.8275
  101MOL    H8536285   3.052   6.265   1.952  1.0989  1.4425  1.9897
  101MOL    H8636286   2.931   6.388   1.964 -0.0120  0.0848  1.5604
  101MOL    H8736287   2.984   6.315   2.193  0.3854  1.8933 -1.9166
  101MOL    H8836288   2.817   6.271   2.157 -0.6597  0.8875 -3.4226
  101MOL    H8936289   3.038   6.094   2.185 -0.5515  0.4750  0.7719
  101MOL    H9036290   2.877   6.050   2.115 -0.8221  2.2078 -1.1421
  101MOL    H9136291   2.901   6.095   2.290 -0.8733 -0.5189  0.2896
  101MOL    C9236292   2.513   6.102   1.825  0.1643 -0.5575 -0.0243
  101MOL    C9336293   2.454   6.117   1.970  0.3302 -0.0578  0.7029
  101MOL    C9436294   2.301   6.107   1.960 -0.4644 -0.2409  0.3444
  101MOL    O9536295   2.240   6.002   1.968  0.7126 -0.1562 -0.3358
  101MOL    O9636296   2.250   6.230   1.949 -0.0816  0.1802  0.1442
  101MOL    C9736297   2.116   6.259   1.953  1.1320  0.0912  0.3417
  101MOL    C9836298   2.098   6.392   2.031 -0.3605  0.1874 -0.5002
  101MOL    C9936299   2.132   6.365   2.174  0.8113 -0.2468  0.4690
  101MOL   H10036300   2.478   6.008   1.782  0.8280 -0.1883 -1.4187
  101MOL   H10136301   2.468   6.176   1.760  1.7950 -2.2960 -3.2841
  101MOL   H10236302   2.477   6.217   2.006  0.6533  0.3025 -0.5091
  101MOL   H10336303   2.082   6.262   1.849 -0.0916 -1.7733  0.6638
  101MOL   H10436304   2.063   6.179   2.004 -1.5571  2.0423  0.6838
  101MOL   H10536305   2.168   6.470   2.003  1.1293 -1.1974 -0.6669
  101MOL   H10636306   1.997   6.433   2.030 -0.1929  0.5869 -0.9625
  101MOL   H10736307   2.233   6.324   2.178  0.9652  0.2072  1.5646
  101MOL   H10836308   2.064   6.294   2.222 -2.1982  1.7441 -0.6429
  101MOL   H10936309   2.144   6.452   2.240  3.2448 -1.4193  1.6439
  101MOL   C11036310   2.527   6.014   2.056 -0.0440  0.3446 -0.0366
  101MOL   C11136311   2.498   6.023   2.208  0.1436 -0.0763 -0.2055
  101MOL   C11236312   2.561   5.901   2.275 -0.0371 -0.0731  0.7167
  101MOL   O11336313   2.487   5.829   2.342  0.1063  0.0964  0.2781
  101MOL   O11436314   2.692   5.892   2.262  0.4783  0.2783 -0.2492
  101MOL   C11536315   2.764   5.784   2.318  0.1999 -0.2958 -0.0213
  101MOL   C11636316   2.813   5.799   2.465 -0.7512  0.0524  0.7836
  101MOL   C11736317   2.706   5.784   2.577  0.2549  0.6211  0.8125
  101MOL   H11836318   2.633   6.020   2.032 -0.2670 -1.3666 -1.5461
  101MOL   H11936319   2.514   5.911   2.023  0.5968  0.3571 -0.3255
  101MOL   H12036320   2.391   6.015   2.223  0.3077 -0.7249  0.6779
  101MOL   H12136321   2.716   5.687   2.307 -0.1127 -0.3136  1.3809
  101MOL   H12236322   2.855   5.773   2.258 -0.5863 -1.5559 -1.0154
  101MOL   H12336323   2.894   5.727   2.474 -1.7156 -1.3781 -1.4064
  101MOL   H12436324   2.848   5.901   2.472 -0.1218 -0.1365  0.4331
  101MOL   H12536325   2.624   5.852   2.555 -1.5266 -1.5949  0.4033
  101MOL   H12636326   2.741   5.808   2.677  1.7550  1.6944  0.0528
  101MOL   H12736327   2.655   5.688   2.580  0.1518  0.6217 -0.6548
  101MOL   C12836328   2.550   6.156   2.276  0.6998  0.3607 -0.6367
  101MOL   C12936329   2.517   6.169   2.425  0.0153 -0.7437 -0.1273
  101MOL   C13036330   2.616   6.258   2.498  0.5991  0.3588  0.0509
  101MOL   O13136331   2.665   6.215   2.598 -0.2356  0.5916 -0.3122
  101MOL   O13236332   2.634   6.376   2.439  0.1172 -0.7341  0.0413
  101MOL   C13336333   2.744   6.463   2.481  0.2555 -0.2887  0.1889
  101MOL   C13436334   2.679   6.595   2.522 -0.0860  0.4836 -0.4178
  101MOL   C13536335   2.589   6.591   2.644  0.1180 -0.0722  0.1687
  101MOL   H13636336   2.539   6.249   2.220 -0.6267 -0.8043 -2.3500
  101MOL   H13736337   2.656   6.139   2.256  0.4322 -0.9654 -0.9776
  101MOL   H13836338   2.521   6.071   2.472 -2.0396 -0.5083  0.6141
  101MOL   H13936339   2.801   6.417   2.562 -0.8097 -3.0931 -0.5625
  101MOL   H14036340   2.817   6.464   2.400 -2.1615  0.8227 -2.0532
  101MOL   H14136341   2.753   6.674   2.534  0.6962 -0.3912  0.5143
  101MOL   H14236342   2.612   6.630   2.443 -1.1853  2.3321  1.2863
  101MOL   H14336343   2.645   6.534   2.718  0.4867  0.9908  0.7092
  101MOL   H14436344   2.496   6.536   2.626  0.1458 -0.2166  0.4582
  101MOL   H14536345   2.570   6.692   2.679 -0.8077 -0.3316  0.4304
  101MOL   C14636346   2.368   6.219   2.438 -0.0928  0.1799 -0.0192
  101MOL   C14736347   2.309   6.229   2.587  0.0371  0.5052 -0.3514
  101MOL   C14836348   2.185   6.323   2.602 -0.7949  1.0985  0.1776
  101MOL   O14936349   2.198   6.416   2.680  0.5432 -0.1767  0.2768
  101MOL   O15036350   2.086   6.299   2.516  0.1731 -0.2502 -0.3647
  101MOL   C15136351   1.975   6.390   2.505 -0.2018  0.0310 -0.4534
  101MOL   C15236352   1.850   6.315   2.454 -0.6874 -0.7172  0.5433
  101MOL   C15336353   1.770   6.227   2.548  0.1299  0.1244  0.3606
  101MOL   H15436354   2.305   6.152   2.379  0.7591 -0.4154 -0.2669
  101MOL   H15536355   2.359   6.320   2.399  1.3573  0.7630  1.1260
  101MOL   H15636356   2.393   6.277   2.637  1.2943 -1.7695 -0.1660
  101MOL   H15736357   1.945   6.446   2.594  1.6684  1.3991 -0.6575
  101MOL   H15836358   2.006   6.468   2.435 -0.4962  1.8370  1.3773
  101MOL   H15936359   1.780   6.389   2.415  0.8053  1.0547  1.1394
  101MOL   H16036360   1.877   6.249   2.371  1.2974  1.6690 -0.7631
  101MOL   H16136361   1.825   6.146   2.597  1.7574 -0.0854 -1.7621
  101MOL   H16236362   1.684   6.173   2.509  0.7271 -0.5916  0.0047
  101MOL   H16336363   1.737   6.284   2.635 -1.8014 -1.1450  0.4996
  101MOL   C16436364   2.276   6.093   2.642 -0.6029 -0.4774  0.0936
  101MOL   C16536365   2.288   6.076   2.797 -0.2196  0.1496 -0.8898
  101MOL   C16636366   2.149   6.055   2.868  0.0329  0.6410 -0.4190
  101MOL   O16736367   2.109   6.134   2.946  0.4601 -0.2768 -0.0316
  101MOL   O16836368   2.079   5.944   2.826  0.3693 -0.7413  0.2067
  101MOL   C16936369   1.943   5.920   2.865  0.3132  0.4138 -0.5697
  101MOL   C17036370   1.906   5.789   2.796 -0.2955  0.5673  0.5103
  101MOL   C17136371   1.791   5.723   2.869 -0.5406 -0.0070  0.3179
  101MOL   H17236372   2.342   6.023   2.591 -1.7622 -2.4924  1.3022
  101MOL   H17336373   2.173   6.074   2.612 -1.0325 -0.5898  1.6169
  101MOL   H17436374   2.329   6.168   2.840 -0.3018 -0.4853  0.5652
  101MOL   H17536375   1.930   5.916   2.973 -3.8694  0.4298 -1.0056
  101MOL   H17636376   1.880   5.999   2.826 -2.4484 -3.0156 -3.4030
  101MOL   H17736377   1.875   5.810   2.693 -0.8676 -3.3884 -0.2099
  101MOL   H17836378   1.988   5.720   2.782 -1.8461 -0.8554 -1.9667
  101MOL   H17936379   1.733   5.653   2.808  1.2396 -2.6418  1.5310
  101MOL   H18036380   1.723   5.796   2.912 -3.9356 -2.3456 -0.8568
  101MOL   H18136381   1.822   5.667   2.957 -0.9543 -1.0328 -0.1798
  101MOL   C18236382   2.388   5.955   2.823 -0.5173 -0.0414  0.5114
  101MOL   C18336383   2.392   5.897   2.961  0.1725  0.5938 -0.4028
  101MOL   C18436384   2.483   5.773   2.981  0.0156 -0.2913  0.2870
  101MOL   O18536385   2.448   5.675   3.042  0.2142  0.3744 -0.1140
  101MOL   O18636386   2.603   5.793   2.927 -0.3880 -0.0201  0.2534
  101MOL   C18736387   2.703   5.691   2.942 -0.1970  0.1411 -0.6263
  101MOL   C18836388   2.825   5.771   2.964  0.1430  0.8416  0.5071
  101MOL   C18936389   2.931   5.689   3.031 -0.2243  0.2604 -0.3522
  101MOL   H19036390   2.486   5.988   2.788  0.4348 -2.2258  1.0602
  101MOL   H19136391   2.371   5.873   2.754  0.9284  0.5667 -0.6075
  101MOL   H19236392   2.297   5.857   2.996  0.3614  1.2197  0.8444
  101MOL   H19336393   2.685   5.622   3.024 -1.0242  0.9278 -0.1355
  101MOL   H19436394   2.711   5.640   2.846  0.4389  0.4640 -0.7495
  101MOL   H19536395   2.864   5.796   2.866  0.5930 -0.4849  0.3376
  101MOL   H19636396   2.800   5.858   3.025 -1.7648 -2.0568  4.0162
  101MOL   H19736397   2.912   5.655   3.133  0.4436  0.7210 -0.0711
  101MOL   H19836398   3.026   5.743   3.039  0.3050 -0.6220 -0.5541
  101MOL   H19936399   2.955   5.599   2.973  2.4477  0.1698  0.8362
  101MOL   C20036400   2.437   6.005   3.063 -0.2806 -0.0757 -0.1649
  101MOL   C20136401   2.416   5.963   3.207 -0.0629 -0.1938  0.6429
  101MOL   C20236402   2.552   5.959   3.282 -1.0500  0.2066  1.0111
  101MOL   O20336403   2.611   6.058   3.324  0.0670 -0.1563 -0.0216
  101MOL   O20436404   2.594   5.826   3.291  0.4485  0.8067 -1.3532
  101MOL   C20536405   2.711   5.799   3.360  0.5197 -0.0970 -0.4807
  101MOL   C20636406   2.692   5.658   3.422  0.3286  0.4964 -0.5453
  101MOL   C20736407   2.692   5.531   3.329 -0.0806  0.3297 -0.2245
  101MOL   H20836408   2.381   6.096   3.047  1.9698  1.2105 -0.9410
  101MOL   H20936409   2.535   6.048   3.042 -1.1963  2.2849  0.2433
  101MOL   H21036410   2.382   5.860   3.207  1.0185 -0.5446 -0.1008
  101MOL   H21136411   2.801   5.819   3.302 -0.5910 -1.2765 -2.6920
  101MOL   H21236412   2.722   5.868   3.443 -1.3032 -0.4599  0.1003
  101MOL   H21336413   2.771   5.653   3.497 -0.6193 -1.2320  0.3408
  101MOL   H21436414   2.604   5.667   3.485 -0.2278 -0.7325 -1.1332
  101MOL   H21536415   2.778   5.537   3.261  0.4396  1.1079  0.4896
  101MOL   H21636416   2.603   5.508   3.270  0.8309 -0.1611 -1.4341
  101MOL   H21736417   2.702   5.443   3.392  0.3403  0.9448  0.5866
  101MOL   C21836418   2.311   6.046   3.291 -0.6179  0.4840  0.1320
  101MOL   C21936419   2.165   6.010   3.268 -0.9819 -0.1413 -0.1639
  101MOL   C22036420   2.150   5.873   3.341  0.8699  0.2705 -0.0770
  101MOL   O22136421   2.100   5.866   3.459 -0.4290  0.4405  1.1234
  101MOL   O22236422   2.179   5.764   3.263 -0.2961  0.1578  0.3674
  101MOL   C22336423   2.171   5.634   3.317  0.1046  0.3330  0.3427
  101MOL   C22436424   2.055   5.563   3.243 -0.0050  0.4530 -0.4108
  101MOL   C22536425   2.067   5.553   3.093 -0.3264  0.0761  0.1258
  101MOL   H22636426   2.329   6.149   3.259 -1.1933  0.6302  0.2820
  101MOL   H22736427   2.337   6.047   3.397  0.5341 -0.4773 -0.1231
  101MOL   H22836428   2.139   5.988   3.164  0.8687  1.5300 -1.0170
  101MOL   H22936429   2.268   5.586   3.300  0.6171  1.7019 -0.7055
  101MOL   H23036430   2.159   5.624   3.424  0.6095  1.6365  0.5319
  101MOL   H23136431   2.059   5.461   3.280  0.4269  0.6172  0.0073
  101MOL   H23236432   1.961   5.612   3.268  0.9511  1.1087  2.0722
  101MOL   H23336433   2.054   5.655   3.057  1.1326  0.3456  0.3399
  101MOL   H23436434   1.991   5.495   3.040  0.9495 -0.4806 -1.1126
  101MOL   H23536435   2.164   5.520   3.057 -1.1703 -1.4908 -0.7795
  101MOL   C23636436   2.080   6.123   3.341  0.1777 -0.2375 -0.1789
  101MOL   C23736437   1.924   6.115   3.334  0.8247 -0.0507 -0.3124
  101MOL   C23836438   1.851   6.230   3.405  0.7172 -0.1662  1.1467
  101MOL   O23936439   1.798   6.207   3.513  0.3761 -0.0564  0.0880
  101MOL   O24036440   1.862   6.346   3.339 -0.4042 -0.4954  0.2871
  101MOL   C24136441   1.843   6.477   3.389  0.5080  0.8650  0.3515
  101MOL   C24236442   1.972   6.534   3.453 -0.7553 -0.5940 -0.0083
  101MOL   C24336443   2.082   6.573   3.347  0.6400  0.0658  0.0958
  101MOL   H24436444   2.107   6.221   3.299  0.5248  0.8836  2.5659
  101MOL   H24536445   2.106   6.148   3.444 -0.3983 -0.8984  0.1274
  101MOL   H24636446   1.898   6.018   3.378 -1.9375 -0.2332 -2.2071
  101MOL   H24736447   1.819   6.550   3.312 -2.6344  0.5657  0.9611
  101MOL   H24836448   1.769   6.476   3.469  0.3676 -1.7598  0.2322
  101MOL   H24936449   1.934   6.624   3.502 -1.4854 -0.6447 -0.4842
  101MOL   H25036450   2.022   6.466   3.523 -0.1106 -1.5168 -1.3545
  101MOL   H25136451   2.156   6.633   3.401  0.8731 -1.5095  1.5568
  101MOL   H25236452   2.038   6.637   3.270 -0.1299 -0.2856  0.2355
  101MOL   H25336453   2.124   6.487   3.295 -2.9619 -0.4411 -2.1523
  101MOL   C25436454   1.867   6.105   3.186 -0.4621 -0.9173  0.5397
  101MOL   C25536455   1.734   6.030   3.165  0.5686 -0.1015  0.2212
  101MOL   C25636456   1.743   5.888   3.232  0.4899 -0.0841 -0.6235
  101MOL   O25736457   1.799   5.793   3.182 -0.7104  0.6281 -0.1744
  101MOL   O25836458   1.686   5.890   3.353 -0.0336  0.6713  0.0165
  101MOL   C25936459   1.710   5.770   3.434 -0.1606 -0.1060  0.2896
  101MOL   C26036460   1.770   5.798   3.578  0.1058 -0.3484 -0.4471
  101MOL   C26136461   1.815   5.665   3.634 -0.0086 -0.0451  0.3313
  101MOL   H26236462   1.925   6.030   3.132  1.5945  0.5564  0.6277
  101MOL   H26336463   1.874   6.197   3.128 -3.2988 -1.3550 -0.5671
  101MOL   H26436464   1.733   6.005   3.059  2.0563 -1.8549  0.6045
  101MOL   H26536465   1.611   5.724   3.436 -0.4668  0.4699 -1.1619
  101MOL   H26636466   1.778   5.697   3.389 -0.2932 -1.9923  3.0564
  101MOL   H26736467   1.852   5.870   3.570  0.2560 -0.2474  1.8376
  101MOL   H26836468   1.696   5.844   3.643 -1.0191 -0.9158 -1.2993
  101MOL   H26936469   1.871   5.671   3.727  0.1924 -1.5636  0.3209
  101MOL   H27036470   1.891   5.629   3.566 -0.4631  3.9192 -2.4669
  101MOL   H27136471   1.730   5.598   3.641  0.3164 -0.3935  0.9673
  101MOL   C27236472   1.602   6.100   3.211 -0.3223 -0.4322 -0.0414
  101MOL   C27336473   1.483   6.041   3.143 -0.2365 -0.7294  0.9800
  101MOL   C27436474   1.382   5.973   3.237  0.0659 -0.1476  0.0770
  101MOL   O27536475   1.341   5.862   3.202 -0.0278  0.1352  0.0122
  101MOL   O27636476   1.349   6.040   3.342 -0.1450  0.2100 -0.5770
  101MOL   C27736477   1.266   5.969   3.435 -0.1425  0.9303 -0.4896
  101MOL   C27836478   1.292   6.035   3.567 -0.0708  0.4681  0.2582
  101MOL   C27936479   1.394   5.956   3.654 -0.3133  0.1667  0.2651
  101MOL   H28036480   1.609   6.204   3.178  1.3425 -1.7477 -4.0973
  101MOL   H28136481   1.587   6.128   3.316 -0.8238 -1.6640  0.2270
  101MOL   H28236482   1.514   5.955   3.084 -0.2267 -1.4360  1.9931
  101MOL   H28336483   1.162   5.975   3.403 -0.1817  1.8355 -0.1904
  101MOL   H28436484   1.300   5.865   3.431 -2.9311  0.0021 -1.2979
  101MOL   H28536485   1.327   6.137   3.555 -1.0578  0.5940 -1.6649
  101MOL   H28636486   1.195   6.039   3.618  0.3329 -0.3165  1.1108
  101MOL   H28736487   1.373   5.969   3.760 -0.1738  2.3920  0.0468
  101MOL   H28836488   1.495   5.991   3.630 -0.5287  0.1524 -0.6794
  101MOL   H28936489   1.392   5.849   3.633  0.8133  0.3664 -0.9412
  101MOL   C29036490   1.405   6.141   3.053 -0.1742  0.0361 -0.8201
  101MOL   C29136491   1.460   6.175   2.914  0.3741  0.1651 -0.6170
  101MOL   C29236492   1.493   6.047   2.833 -0.2178  0.4519  0.1475
  101MOL   O29336493   1.603   6.039   2.773  0.3748 -0.1879  0.1977
  101MOL   O29436494   1.389   5.965   2.821 -0.2252  0.1299  0.2456
  101MOL   C29536495   1.411   5.841   2.751 -0.1794  0.6392  0.0348
  101MOL   C29636496   1.356   5.854   2.609  0.1156  0.0981  0.1723
  101MOL   C29736497   1.370   5.723   2.540  0.0871  0.1240  0.3505
  101MOL   H29836498   1.393   6.233   3.111  1.1879 -0.5946  0.4981
  101MOL   H29936499   1.301   6.110   3.045  0.1562 -1.1154 -0.7495
  101MOL   H30036500   1.557   6.225   2.927  0.0290  0.8569 -0.6832
  101MOL   H30136501   1.516   5.820   2.734 -0.0817  0.2387  1.1138
  101MOL   H30236502   1.369   5.754   2.802 -0.5291  1.2958  0.8940
  101MOL   H30336503   1.253   5.888   2.622  0.4582  0.3290  2.5333
  101MOL   H30436504   1.411   5.937   2.565  0.7840  0.5575  1.8478
  101MOL   H30536505   1.289   5.659   2.575 -1.1000  0.5078 -1.5962
  101MOL   H30636506   1.470   5.681   2.553 -0.3393 -0.5457  1.5495
  101MOL   H30736507   1.360   5.730   2.432 -0.2760  0.9660  0.4354
  101MOL   C30836508   1.382   6.279   2.837 -1.0533  0.1607 -1.0729
  101MOL   C30936509   1.459   6.366   2.730  0.1176  0.3589  0.1312
  101MOL   C31036510   1.390   6.360   2.598  0.2962 -0.6460 -0.8002
  101MOL   O31136511   1.313   6.451   2.566 -0.4697 -0.1381 -0.4916
  101MOL   O31236512   1.413   6.245   2.535  0.3598 -0.2204  0.2155
  101MOL   C31336513   1.358   6.234   2.401  0.1487  0.0316  0.2410
  101MOL   C31436514   1.446   6.281   2.279  0.1818 -0.5715  0.5006
  101MOL   C31536515   1.547   6.179   2.235 -0.2583 -0.4166 -0.5916
  101MOL   H31636516   1.350   6.351   2.912 -0.1162 -0.9325  0.4021
  101MOL   H31736517   1.281   6.249   2.808 -1.5500  1.6934 -0.9604
  101MOL   H31836518   1.560   6.327   2.722  0.4682  1.3478 -0.3547
  101MOL   H31936519   1.326   6.132   2.379 -1.4265  0.4687  0.4612
  101MOL   H32036520   1.266   6.291   2.393  0.7056  0.5975 -2.5885
  101MOL   H32136521   1.378   6.306   2.197  2.2976  0.7557 -0.9261
  101MOL   H32236522   1.493   6.377   2.303  0.7428 -0.6675 -0.2022
  101MOL   H32336523   1.486   6.104   2.185  0.1317 -1.0060 -0.1773
  101MOL   H32436524   1.618   6.227   2.168 -2.5176  3.2668 -0.5063
  101MOL   H32536525   1.607   6.139   2.317 -0.4458  0.9224  0.2121
  101MOL   C32636526   1.482   6.521   2.764 -0.1378 -0.3154  0.5809
  101MOL   C32736527   1.569   6.550   2.890 -0.2311  0.4266  0.0568
  101MOL   C32836528   1.714   6.517   2.859 -0.1942  0.4275 -0.3451
  101MOL   O32936529   1.779   6.569   2.767  0.5330  0.6120  0.1203
  101MOL   O33036530   1.768   6.425   2.946  0.0097  0.2473  0.2577
  101MOL   C33136531   1.904   6.377   2.919 -0.4272 -0.0375 -0.1714
  101MOL   C33236532   2.008   6.454   3.010  0.5050  0.2559 -0.1760
  101MOL   C33336533   2.003   6.606   3.007 -0.5119  0.2384 -1.0126
  101MOL   H33436534   1.381   6.559   2.783 -1.0824 -0.3856 -3.6957
  101MOL   H33536535   1.524   6.571   2.677 -1.2000 -0.4163 -0.0050
  101MOL   H33636536   1.539   6.479   2.967  0.3489 -0.1704 -0.2709
  101MOL   H33736537   1.909   6.268   2.923 -2.0420 -0.2227 -2.3036
  101MOL   H33836538   1.934   6.402   2.817 -0.6908 -1.2771 -0.5582
  101MOL   H33936539   2.008   6.421   3.114 -0.2595  1.3642  0.1849
  101MOL   H34036540   2.109   6.426   2.981  0.8743 -0.0233  1.3303
  101MOL   H34136541   2.096   6.648   3.047  0.2164 -1.1550 -1.2228
  101MOL   H34236542   1.998   6.645   2.906  1.4590  1.1896 -0.7795
  101MOL   H34336543   1.917   6.632   3.068 -0.2893  0.6343 -0.8667
  101MOL   C34436544   1.550   6.697   2.949  0.0946  0.2833  0.6414
  101MOL   C34536545   1.616   6.721   3.085 -0.4079  0.3100  0.6393
  101MOL   C34636546   1.538   6.638   3.190 -0.4644 -0.1813  0.6039
  101MOL   O34736547   1.585   6.545   3.253 -0.2400 -0.0248 -0.3208
  101MOL   O34836548   1.408   6.684   3.207 -0.2423 -0.4210  0.0045
  101MOL   C34936549   1.327   6.627   3.300 -0.7328  0.0131  0.1635
  101MOL   C35036550   1.235   6.738   3.367  0.4797  0.0470  0.0944
  101MOL   C35136551   1.124   6.685   3.463  0.1470  0.2155  0.1177
  101MOL   H35236552   1.444   6.720   2.963 -0.0298 -1.0298  1.9033
  101MOL   H35336553   1.588   6.777   2.886  0.8162  0.1810  0.9458
  101MOL   H35436554   1.625   6.827   3.108 -2.4590  1.0579 -1.8362
  101MOL   H35536555   1.273   6.550   3.244  0.2694 -0.3082 -0.3791
  101MOL   H35636556   1.378   6.571   3.379 -2.0977  0.2548  1.2335
  101MOL   H35736557   1.298   6.812   3.416  0.5826 -0.7549  1.1662
  101MOL   H35836558   1.188   6.775   3.276  2.1865  0.9430 -0.4342
  101MOL   H35936559   1.070   6.599   3.425  0.5404  0.2792 -0.6166
  101MOL   H36036560   1.177   6.653   3.553  1.2734  0.6986 -0.3549
  101MOL   H36136561   1.058   6.770   3.473  0.7500  0.9828 -1.9981
  101MOL   H36236562   1.714   6.673   3.081  0.1192  1.3847  0.3732
  102MOL     C136563   1.827   6.927   5.824  0.4479  0.3860  0.1522
  102MOL     C236564   1.803   6.803   5.911 -0.2747 -0.3599  0.3920
  102MOL     C336565   1.854   6.841   6.048  0.5787  0.4013  0.6878
  102MOL     O436566   1.781   6.899   6.131  0.4105  0.6508  0.0919
  102MOL     O536567   1.979   6.797   6.068  0.5994  0.2807 -0.5321
  102MOL     C636568   2.044   6.831   6.193  0.3255 -0.2581  0.1986
  102MOL     C736569   2.187   6.882   6.170  0.5417  0.1111 -0.0357
  102MOL     C836570   2.260   6.914   6.302 -0.8341 -0.1058 -0.5110
  102MOL     H936571   1.934   6.949   5.818  0.5921 -0.1934  0.5841
  102MOL    H1036572   1.772   6.925   5.729 -2.0920 -0.9577  1.6029
  102MOL    H1136573   1.863   6.720   5.874  0.2892 -0.1517  0.8318
  102MOL    H1236574   1.990   6.905   6.253  0.2695 -1.1223  1.2360
  102MOL    H1336575   2.060   6.738   6.247 -0.1168 -0.4703 -0.0261
  102MOL    H1436576   2.239   6.810   6.107 -0.7048  0.0733 -1.0574
  102MOL    H1536577   2.194   6.970   6.105 -2.8918  1.8511  1.8300
  102MOL    H1636578   2.288   6.832   6.368  3.0527  2.1659  0.7800
  102MOL    H1736579   2.354   6.958   6.271 -0.9854  0.0896 -0.6928
  102MOL    H1836580   2.210   6.990   6.363 -1.6301  0.5537 -1.9532
  102MOL    H1936581   1.781   7.015   5.869  0.4001  0.3111  0.2486
  102MOL    C2036582   1.659   6.752   5.904  0.6575  0.3351 -0.3624
  102MOL    C2136583   1.637   6.607   5.957 -0.2301 -1.1937 -0.1064
  102MOL    C2236584   1.619   6.603   6.109  0.4465 -0.2890 -0.2443
  102MOL    O2336585   1.539   6.674   6.170  0.3032  0.4777 -0.3842
  102MOL    O2436586   1.704   6.527   6.173 -0.3871 -0.1282  0.6997
  102MOL    C2536587   1.669   6.485   6.303  0.1703 -0.0393  0.0769
  102MOL    C2636588   1.753   6.547   6.412 -0.0123 -0.3333  0.2320
  102MOL    C2736589   1.685   6.664   6.484 -0.1719 -0.4444  0.3635
  102MOL    H2836590   1.622   6.749   5.801  0.4010  3.7047 -0.4372
  102MOL    H2936591   1.593   6.829   5.944  3.5401  1.8738  1.5817
  102MOL    H3036592   1.734   6.560   5.940  1.3746  1.8113  0.3519
  102MOL    H3136593   1.561   6.497   6.318  0.0482  1.0877 -1.5653
  102MOL    H3236594   1.679   6.376   6.307  1.2984 -0.0100 -1.6318
  102MOL    H3336595   1.761   6.460   6.477 -0.5944 -2.0765 -1.9292
  102MOL    H3436596   1.855   6.570   6.381 -1.4455  3.1035 -2.2865
  102MOL    H3536597   1.603   6.631   6.549 -0.5312 -1.3779 -0.5422
  102MOL    H3636598   1.652   6.752   6.429  0.4182 -1.1330 -1.1004
  102MOL    H3736599   1.767   6.695   6.549  0.4878 -0.1657 -0.5881
  102MOL    C3836600   1.520   6.529   5.887 -0.2157 -1.2733 -0.7538
  102MOL    C3936601   1.384   6.598   5.883  0.1565  0.7327 -0.3017
  102MOL    C4036602   1.350   6.645   5.747 -0.0015  0.2459 -0.6480
  102MOL    O4136603   1.325   6.763   5.730  0.5378 -0.2865 -0.2207
  102MOL    O4236604   1.361   6.547   5.659 -0.3239 -0.4409  0.3550
  102MOL    C4336605   1.334   6.562   5.524  0.1904 -0.0663  0.9373
  102MOL    C4436606   1.185   6.544   5.498  0.8647 -0.0006 -0.6166
  102MOL    C4536607   1.150   6.582   5.351  0.8093 -0.3980  0.0289
  102MOL    H4636608   1.510   6.436   5.941 -0.5095  0.1608  1.7359
  102MOL    H4736609   1.569   6.504   5.793  4.2067 -0.1884  1.1200
  102MOL    H4836610   1.384   6.689   5.943  0.3276  0.4405  0.1451
  102MOL    H4936611   1.348   6.667   5.501 -1.6005 -0.1369 -0.5770
  102MOL    H5036612   1.396   6.492   5.468 -1.0978 -0.4741  0.0055
  102MOL    H5136613   1.152   6.442   5.515  3.8253 -0.9643 -0.4351
  102MOL    H5236614   1.134   6.614   5.565  0.0315  0.5810 -1.8414
  102MOL    H5336615   1.059   6.538   5.311  1.0158  0.5381 -1.5006
  102MOL    H5436616   1.219   6.537   5.279  1.5213 -1.3924  1.3178
  102MOL    H5536617   1.143   6.687   5.324  0.3914 -0.9304 -2.0334
  102MOL    C5636618   1.272   6.505   5.937 -0.1110 -0.0765 -0.0122
  102MOL    C5736619   1.135   6.575   5.945  0.0351 -1.2927  0.2153
  102MOL    C5836620   1.026   6.461   5.941 -0.3980  0.3061 -0.0610
  102MOL    O5936621   0.967   6.420   6.039 -0.1223  0.0494 -0.7170
  102MOL    O6036622   1.009   6.417   5.816  1.3035 -0.0453 -0.2672
  102MOL    C6136623   0.903   6.322   5.781  0.0463 -0.2228  0.0869
  102MOL    C6236624   0.771   6.398   5.745 -0.1641  0.3012  0.5446
  102MOL    C6336625   0.794   6.470   5.620  0.4666 -0.0588 -0.4887
  102MOL    H6436626   1.305   6.472   6.036 -0.2268 -0.0872  0.0222
  102MOL    H6536627   1.266   6.417   5.873 -1.6676  0.1287 -0.1585
  102MOL    H6636628   1.110   6.641   5.862  0.8209  1.9986  2.4646
  102MOL    H6736629   0.933   6.259   5.697 -2.2251 -2.6454  1.0263
  102MOL    H6836630   0.871   6.253   5.859 -1.7405  1.3571  0.7784
  102MOL    H6936631   0.689   6.328   5.729  1.3278 -1.1197 -1.1072
  102MOL    H7036632   0.752   6.470   5.824  1.0485 -0.2507  1.3472
  102MOL    H7136633   0.848   6.564   5.629  0.2256 -0.2184  2.9331
  102MOL    H7236634   0.690   6.471   5.589  0.2535  1.7216  0.2061
  102MOL    H7336635   0.844   6.401   5.552 -1.4712 -0.8924 -1.0795
  102MOL    C7436636   1.116   6.658   6.076 -0.2845 -0.5087 -1.3643
  102MOL    C7536637   0.986   6.741   6.079  0.0181 -0.2666 -0.7101
  102MOL    C7636638   0.970   6.804   6.216 -0.0117  0.4934  0.1206
  102MOL    O7736639   0.870   6.778   6.286 -0.0130  0.2285 -0.2496
  102MOL    O7836640   1.077   6.879   6.256 -0.1485 -0.6793 -0.3193
  102MOL    C7936641   1.082   6.918   6.388  0.4330 -0.5953  0.0445
  102MOL    C8036642   1.130   6.807   6.484  0.2275 -0.9074 -0.6210
  102MOL    C8136643   1.270   6.761   6.446 -0.2925  0.7495  0.0772
  102MOL    H8236644   1.204   6.721   6.091 -0.0064 -1.8468  3.2734
  102MOL    H8336645   1.115   6.601   6.169  0.6626  3.0913  0.9479
  102MOL    H8436646   0.908   6.666   6.065 -0.1935 -0.1986  0.1017
  102MOL    H8536647   1.147   7.005   6.396 -0.3326 -0.1947  2.3514
  102MOL    H8636648   0.986   6.952   6.427  0.5289 -1.7036  1.2827
  102MOL    H8736649   1.132   6.832   6.590  0.1071  1.7649 -1.2170
  102MOL    H8836650   1.061   6.724   6.478  0.5482 -1.2032 -0.2130
  102MOL    H8936651   1.342   6.843   6.447 -0.0936  0.5682  0.6851
  102MOL    H9036652   1.267   6.736   6.340 -1.3895  0.3842  0.1888
  102MOL    H9136653   1.302   6.674   6.504  0.5399  1.3802  0.5833
  102MOL    C9236654   1.002   6.853   5.972  0.8209 -0.5052  0.5508
  102MOL    C9336655   0.875   6.865   5.879  0.2734 -0.4034  0.1799
  102MOL    C9436656   0.735   6.877   5.956  0.1714  0.9186 -0.5026
  102MOL    O9536657   0.631   6.824   5.905 -0.0578  0.0681  0.1465
  102MOL    O9636658   0.743   6.961   6.058  0.3534 -0.2750  0.2313
  102MOL    C9736659   0.633   6.982   6.147  0.0893  0.2763 -0.4401
  102MOL    C9836660   0.525   7.075   6.078 -0.8364 -0.3250  0.0062
  102MOL    C9936661   0.564   7.217   6.046  0.3382  0.2655  0.0651
  102MOL   H10036662   1.089   6.843   5.907  0.3138 -1.8346  0.0354
  102MOL   H10136663   1.013   6.953   6.013 -0.6640 -0.4261  0.7943
  102MOL   H10236664   0.880   6.769   5.827 -0.9499 -2.9690  4.5468
  102MOL   H10336665   0.589   6.895   6.197 -1.3528  0.1773 -1.8187
  102MOL   H10436666   0.672   7.037   6.232  2.2213 -0.0008 -1.2285
  102MOL   H10536667   0.476   7.034   5.990  2.1544 -1.0938 -1.3601
  102MOL   H10636668   0.451   7.090   6.158  0.9761  1.2267  1.4386
  102MOL   H10736669   0.593   7.267   6.139 -0.9284  0.8825  0.1458
  102MOL   H10836670   0.481   7.281   6.015  2.6504  2.3341 -2.0449
  102MOL   H10936671   0.635   7.236   5.966  0.6958 -1.0360  0.0681
  102MOL   C11036672   0.888   6.998   5.798  0.2157 -0.8331  0.4826
  102MOL   C11136673   1.009   7.006   5.698 -0.3140 -0.9296 -0.1372
  102MOL   C11236674   0.956   6.960   5.558 -0.5300  0.0183 -0.2496
  102MOL   O11336675   0.957   7.044   5.466  0.2577  0.0310  0.6912
  102MOL   O11436676   0.909   6.835   5.554 -0.7067 -0.1536 -0.2442
  102MOL   C11536677   0.840   6.779   5.446  0.6814 -0.6917  0.8517
  102MOL   C11636678   0.693   6.824   5.435 -0.6156  0.4028 -0.5504
  102MOL   C11736679   0.605   6.807   5.559  0.3016  0.1069 -0.8858
  102MOL   H11836680   0.891   7.082   5.867  0.3230  0.4902 -1.1192
  102MOL   H11936681   0.794   7.025   5.752 -0.5304  1.0518  3.0145
  102MOL   H12036682   1.077   6.925   5.724 -0.1865 -0.7598  0.0578
  102MOL   H12136683   0.886   6.815   5.355 -0.3762 -1.2520  0.0835
  102MOL   H12236684   0.851   6.670   5.455  0.1216 -0.9253 -1.1745
  102MOL   H12336685   0.697   6.932   5.418  1.3536  0.4003 -0.1899
  102MOL   H12436686   0.639   6.790   5.347  0.0551 -2.0740 -0.0475
  102MOL   H12536687   0.586   6.705   5.592 -3.1928  0.3610 -1.9340
  102MOL   H12636688   0.506   6.848   5.538  0.2579  0.8540  0.7113
  102MOL   H12736689   0.649   6.853   5.648 -1.7211  2.0228 -0.8377
  102MOL   C12836690   1.071   7.144   5.701  0.2427  0.1100 -0.1949
  102MOL   C12936691   1.142   7.179   5.831 -0.0968  0.5408 -0.1921
  102MOL   C13036692   1.278   7.114   5.859 -0.0747 -0.1568 -0.3383
  102MOL   O13136693   1.362   7.090   5.769 -0.1351 -0.3691 -0.1791
  102MOL   O13236694   1.299   7.084   5.988 -0.2737 -0.1413 -0.3782
  102MOL   C13336695   1.417   7.007   6.022  0.4931 -0.8562  0.3204
  102MOL   C13436696   1.408   6.953   6.166  0.2761  1.0435  0.0581
  102MOL   C13536697   1.392   7.067   6.265  0.4270 -0.3388  0.9679
  102MOL   H13636698   0.988   7.208   5.674 -1.4259 -0.7659  2.7160
  102MOL   H13736699   1.142   7.156   5.618 -0.7743  0.5759 -1.0075
  102MOL   H13836700   1.082   7.151   5.918 -0.3151 -0.2475 -0.5924
  102MOL   H13936701   1.420   6.922   5.954  0.6602 -0.9713  0.4738
  102MOL   H14036702   1.506   7.060   5.988 -0.1566  0.3995  0.5323
  102MOL   H14136703   1.321   6.887   6.171  0.2502  1.0926  0.2464
  102MOL   H14236704   1.501   6.904   6.195  0.1926 -0.4280 -1.9760
  102MOL   H14336705   1.418   7.039   6.367 -0.3890 -2.0547  0.7068
  102MOL   H14436706   1.291   7.109   6.259  0.2685 -0.7621  0.6922
  102MOL   H14536707   1.459   7.148   6.236  0.2931  0.4657  2.8241
  102MOL   C14636708   1.152   7.328   5.838  0.1721  0.5242 -0.5008
  102MOL   C14736709   1.021   7.409   5.854  0.4878  0.2237  0.8088
  102MOL   C14836710   0.988   7.413   6.007  0.5080  0.5929  0.3856
  102MOL   O14936711   0.884   7.358   6.053  0.3775 -0.1420 -0.1750
  102MOL   O15036712   1.080   7.474   6.076  0.2175 -0.2554 -0.3508
  102MOL   C15136713   1.096   7.464   6.221  0.5115 -0.1559 -0.4851
  102MOL   C15236714   1.244   7.430   6.264  0.9449 -0.0352  0.6370
  102MOL   C15336715   1.263   7.418   6.417  0.4481  0.1150  0.0425
  102MOL   H15436716   1.207   7.359   5.749  0.9573 -0.6253 -0.4288
  102MOL   H15536717   1.221   7.350   5.919  0.3427  1.4981 -0.9081
  102MOL   H15636718   0.943   7.345   5.812  1.1683  0.6798 -1.2374
  102MOL   H15736719   1.067   7.558   6.269  2.2037  0.7969 -1.2930
  102MOL   H15836720   1.024   7.389   6.253 -1.4858  0.6766 -2.8309
  102MOL   H15936721   1.288   7.342   6.215  1.2287  1.5566 -2.0960
  102MOL   H16036722   1.306   7.508   6.220  0.4108 -1.0597 -2.0322
  102MOL   H16136723   1.259   7.516   6.464 -1.2315 -0.0381  0.2271
  102MOL   H16236724   1.362   7.378   6.440  0.2782  0.1097  0.7598
  102MOL   H16336725   1.186   7.358   6.464  0.4684  0.8770  1.0681
  102MOL   C16436726   1.033   7.549   5.790  0.3381 -0.3021  0.3124
  102MOL   C16536727   0.917   7.646   5.810  0.3558 -0.3947 -0.4860
  102MOL   C16636728   0.957   7.783   5.758 -0.2557  0.5010  0.7809
  102MOL   O16736729   0.950   7.879   5.828  0.0364 -0.5595 -0.0863
  102MOL   O16836730   1.006   7.787   5.628  0.0549 -0.1653 -0.7575
  102MOL   C16936731   1.056   0.033   5.579  0.6301  0.4216 -0.6424
  102MOL   C17036732   1.066   0.024   5.422 -0.3696  0.6767  0.1098
  102MOL   C17136733   0.934   0.008   5.346  0.4261  0.7246 -0.1256
  102MOL   H17236734   1.079   7.554   5.692 -1.5900  2.5129 -0.5278
  102MOL   H17336735   1.114   7.598   5.844 -0.4443  0.9303  0.4002
  102MOL   H17436736   0.902   7.655   5.918  1.2022 -0.7204 -0.3402
  102MOL   H17536737   0.999   0.118   5.616 -1.7929 -0.6669 -1.8201
  102MOL   H17636738   1.156   0.051   5.619  0.2640 -0.6433  0.7854
  102MOL   H17736739   1.123   0.111   5.388 -0.0324 -0.2769 -1.8276
  102MOL   H17836740   1.122   7.813   5.404  1.9175  1.9118  0.7378
  102MOL   H17936741   0.856   0.081   5.367 -0.4381  0.4829 -2.3611
  102MOL   H18036742   0.901   7.787   5.370  1.9537  0.6227  1.6374
  102MOL   H18136743   0.939   0.012   5.237 -2.9991 -2.6200 -0.5109
  102MOL   C18236744   0.788   7.600   5.752 -0.2970 -0.4920  0.2811
  102MOL   C18336745   0.659   7.692   5.770  0.1679 -0.4382 -0.6179
  102MOL   C18436746   0.551   7.653   5.673  1.1782 -0.0628  0.8247
  102MOL   O18536747   0.504   7.726   5.589  0.5109 -0.1494 -0.0281
  102MOL   O18636748   0.531   7.517   5.666 -0.1219 -0.1882 -0.3540
  102MOL   C18736749   0.417   7.462   5.594  0.8033 -0.3997  0.7265
  102MOL   C18836750   0.397   7.321   5.654 -0.1759  0.4214 -0.1796
  102MOL   C18936751   0.495   7.216   5.604 -0.1356 -0.4701 -0.6831
  102MOL   H19036752   0.768   7.505   5.802  0.6895 -1.2439 -0.7394
  102MOL   H19136753   0.805   7.573   5.648  1.6590 -1.3253  0.8008
  102MOL   H19236754   0.700   7.791   5.756 -0.6738  0.0625  0.4045
  102MOL   H19336755   0.323   7.518   5.592  1.3000  0.4486  1.0487
  102MOL   H19436756   0.437   7.448   5.488 -0.9135 -0.4991  0.4005
  102MOL   H19536757   0.401   7.323   5.763 -1.8326 -2.0255 -0.0377
  102MOL   H19636758   0.297   7.292   5.624  0.0975  0.0626 -0.7654
  102MOL   H19736759   0.456   7.118   5.631 -1.5555  0.0176 -0.9277
  102MOL   H19836760   0.586   7.217   5.665 -0.2746  4.0930 -0.3831
  102MOL   H19936761   0.517   7.235   5.499 -0.0728 -2.2298 -1.0042
  102MOL   C20036762   0.605   7.682   5.920  0.5479 -0.4948 -0.0807
  102MOL   C20136763   0.496   7.781   5.952  0.6103 -0.1700 -0.4282
  102MOL   C20236764   0.355   7.721   5.993  0.1488  0.3686  0.2816
  102MOL   O20336765   0.330   7.692   6.110  0.0882  0.4424  0.3768
  102MOL   O20436766   0.262   7.712   5.893 -0.5319 -0.1163  0.2502
  102MOL   C20536767   0.129   7.671   5.921 -0.1121 -0.0795 -0.3937
  102MOL   C20636768   0.045   7.631   5.802  0.2096  0.2312 -0.2524
  102MOL   C20736769   0.034   7.754   5.700 -0.0135  0.2786 -0.2213
  102MOL   H20836770   0.691   7.698   5.985 -1.4605 -1.0160  2.7653
  102MOL   H20936771   0.571   7.580   5.940 -0.7287  0.1610  1.0874
  102MOL   H21036772   0.482   7.837   5.860 -2.2562  0.1458  0.1486
  102MOL   H21136773   0.149   7.588   5.988 -1.1894  0.5910  0.7693
  102MOL   H21236774   0.071   7.740   5.981  0.7198  2.4034 -2.3290
  102MOL   H21336775   0.077   7.542   5.749  0.7490  0.2143  0.1034
  102MOL   H21436776   7.825   7.608   5.838  0.3096 -0.1617 -0.2309
  102MOL   H21536777   0.120   7.760   5.633  0.7450 -1.3185  0.5813
  102MOL   H21636778   0.023   7.855   5.740  0.2758  0.9119 -1.6711
  102MOL   H21736779   7.827   7.747   5.635  0.1755 -0.4863 -0.3979
  102MOL   C21836780   0.531   7.874   6.065 -0.4328  0.8736  0.1004
  102MOL   C21936781   0.654   0.087   6.036  0.1176  0.6600 -0.0799
  102MOL   C22036782   0.629   0.175   5.919 -0.6825  0.2623  0.2782
  102MOL   O22136783   0.516   0.214   5.893  0.1521  0.2361 -0.8237
  102MOL   O22236784   0.735   0.196   5.841  0.4404  0.6568  0.6767
  102MOL   C22336785   0.725   0.278   5.724 -0.3274 -0.4218  0.0866
  102MOL   C22436786   0.670   0.202   5.603 -1.1982  0.2212  0.0471
  102MOL   C22536787   0.687   0.285   5.476 -0.7922  0.0001  0.4211
  102MOL   H22636788   0.561   7.799   6.138  0.2657  0.4745 -0.5949
  102MOL   H22736789   0.460   0.064   6.111 -2.1850 -0.4174 -0.5741
  102MOL   H22836790   0.748   0.034   6.021 -0.2259 -0.4859  1.5880
  102MOL   H22936791   0.667   0.369   5.737  1.8150  1.1417 -1.0195
  102MOL   H23036792   0.821   0.315   5.687 -0.1204  0.6574  1.6824
  102MOL   H23136793   0.726   0.111   5.582  2.4773  1.9787  1.7157
  102MOL   H23236794   0.567   0.169   5.612 -1.4119  0.3905 -1.5427
  102MOL   H23336795   0.785   0.274   5.431 -0.8749 -2.3718  0.8019
  102MOL   H23436796   0.665   0.390   5.496 -0.3908  0.3838 -1.1003
  102MOL   H23536797   0.612   0.246   5.407  0.8011  0.5727 -1.6698
  102MOL   C23636798   0.678   0.169   6.166  0.0502  0.0035  0.1707
  102MOL   C23736799   0.825   0.168   6.222  0.0322  0.0778  0.7522
  102MOL   C23836800   0.871   0.029   6.268  0.6184 -0.3948 -0.2634
  102MOL   O23936801   0.991   0.010   6.286  0.0531 -0.6113  0.2871
  102MOL   O24036802   0.770   7.830   6.304 -0.2197  0.1399 -0.2566
  102MOL   C24136803   0.804   7.713   6.381 -0.0448  0.0614 -0.6811
  102MOL   C24236804   0.672   7.672   6.447 -0.0723  0.1319  0.3925
  102MOL   C24336805   0.574   7.611   6.341 -0.1685 -0.4330 -0.3257
  102MOL   H24436806   0.612   0.135   6.245 -2.4334 -2.6535 -2.9221
  102MOL   H24536807   0.652   0.274   6.157 -1.1707 -0.3557 -0.5622
  102MOL   H24636808   0.819   0.223   6.316  0.3078  0.8233  0.3341
  102MOL   H24736809   0.855   7.642   6.317  0.5772 -0.2445  0.1438
  102MOL   H24836810   0.865   7.751   6.463 -1.9167  2.0310 -0.1494
  102MOL   H24936811   0.699   7.593   6.517  1.1043  0.0634 -0.1297
  102MOL   H25036812   0.618   7.745   6.508 -0.8244 -0.9061  1.0013
  102MOL   H25136813   0.531   7.514   6.368 -0.9891  0.0439  0.0972
  102MOL   H25236814   0.617   7.593   6.243  1.7224 -0.8414  0.5524
  102MOL   H25336815   0.500   7.690   6.328  2.6255  2.6613  1.7340
  102MOL   C25436816   0.930   0.241   6.129 -0.0872  0.2341  0.4179
  102MOL   C25536817   0.903   0.389   6.110 -0.0953  0.3349 -0.3630
  102MOL   C25636818   0.834   0.468   6.221 -0.6216  0.1936 -0.1290
  102MOL   O25736819   0.719   0.511   6.198  0.7411 -0.0844 -0.2158
  102MOL   O25836820   0.909   0.486   6.338  0.0544  0.6216 -0.2686
  102MOL   C25936821   0.864   0.582   6.432 -0.2140 -0.3345 -0.5771
  102MOL   C26036822   0.959   0.559   6.545 -0.0313  0.0345 -0.4328
  102MOL   C26136823   0.927   0.652   6.660 -0.0889 -0.1943 -0.0037
  102MOL   H26236824   0.945   0.181   6.039 -1.5562  0.2119  0.1802
  102MOL   H26336825   1.030   0.227   6.170  1.0756 -0.8607 -2.7026
  102MOL   H26436826   0.833   0.390   6.026 -0.8296  1.5693  0.2503
  102MOL   H26536827   0.863   0.681   6.386  0.9611 -1.0133 -2.1050
  102MOL   H26636828   0.759   0.568   6.460 -0.6510  1.4525 -1.2988
  102MOL   H26736829   0.947   0.458   6.585 -3.5825  1.0456  1.3030
  102MOL   H26836830   1.057   0.588   6.508 -0.2935  0.4130 -0.8419
  102MOL   H26936831   1.012   0.636   6.726 -1.0632 -1.8271  0.8946
  102MOL   H27036832   0.836   0.623   6.713 -0.4035  2.5877  1.0826
  102MOL   H27136833   0.929   0.759   6.638 -0.5704  0.3003  2.2145
  102MOL   C27236834   1.011   0.469   6.047 -0.4458 -0.2584 -0.0036
  102MOL   C27336835   1.004   0.515   5.893 -0.2084  0.2499 -0.1202
  102MOL   C27436836   0.895   0.607   5.850  0.2568  0.1235 -0.8613
  102MOL   O27536837   0.831   0.588   5.745 -0.0061 -0.0344 -0.5833
  102MOL   O27636838   0.874   0.708   5.938 -0.0540  0.5293  0.0976
  102MOL   C27736839   0.749   0.770   5.932 -0.1831 -0.4409  0.1911
  102MOL   C27836840   0.721   0.843   6.056 -0.4908  0.2254 -0.1682
  102MOL   C27936841   0.813   0.966   6.074 -0.4732 -0.2853  0.2381
  102MOL   H28036842   1.099   0.407   6.066 -1.5229 -1.4410  1.2815
  102MOL   H28136843   1.024   0.559   6.106  0.7008 -0.8406  0.6591
  102MOL   H28236844   0.988   0.423   5.836 -1.3593 -0.4701  1.3138
  102MOL   H28336845   0.756   0.839   5.847 -0.6242 -1.0857 -0.3736
  102MOL   H28436846   0.668   0.697   5.921 -0.3182 -0.7177  2.8423
  102MOL   H28536847   0.619   0.879   6.057 -0.1687  1.1637  0.1803
  102MOL   H28636848   0.727   0.785   6.148  1.8279  2.1230  0.9280
  102MOL   H28736849   0.810   1.029   5.986  0.2338  0.3525  0.6601
  102MOL   H28836850   0.915   0.932   6.094 -0.9466 -1.7231  0.2731
  102MOL   H28936851   0.778   1.030   6.155  1.6481 -0.1424  1.0776
  102MOL   C29036852   1.136   0.572   5.845 -0.0134 -0.5503  0.4923
  102MOL   C29136853   1.228   0.471   5.772  0.0437  0.0685  0.3041
  102MOL   C29236854   1.172   0.411   5.645 -0.2269  0.8402 -0.4721
  102MOL   O29336855   1.159   0.288   5.643 -0.4307  0.4842  1.3174
  102MOL   O29436856   1.134   0.498   5.558 -0.0989 -0.3374 -0.2531
  102MOL   C29536857   1.057   0.462   5.452 -1.0611 -0.9871  0.2240
  102MOL   C29636858   1.070   0.574   5.342 -0.2971  0.1857  0.6357
  102MOL   C29736859   1.044   0.535   5.199 -0.2254  0.3563 -0.5088
  102MOL   H29836860   1.185   0.605   5.937 -2.6278  0.6226  1.5475
  102MOL   H29936861   1.131   0.658   5.779 -0.8800  0.4475  1.8057
  102MOL   H30036862   1.228   0.385   5.839 -0.4846 -0.6782 -0.6462
  102MOL   H30136863   1.083   0.363   5.415 -1.1367 -1.2186  0.7835
  102MOL   H30236864   0.950   0.465   5.476 -1.2239 -0.4638 -0.5155
  102MOL   H30336865   1.007   0.662   5.357  1.4449  1.3329  1.3702
  102MOL   H30436866   1.175   0.600   5.350 -0.1615 -0.0236 -0.3497
  102MOL   H30536867   1.114   0.455   5.175 -1.1542 -1.0159  1.2326
  102MOL   H30636868   1.066   0.619   5.133  1.8977  0.2424 -0.0008
  102MOL   H30736869   0.942   0.501   5.187 -0.2653  0.8635 -1.7056
  102MOL   C30836870   1.370   0.546   5.753  0.0890 -0.3266 -1.1891
  102MOL   C30936871   1.501   0.463   5.768  0.4027  0.0307  0.3277
  102MOL   C31036872   1.529   0.434   5.916 -0.1970 -0.2077  0.3262
  102MOL   O31136873   1.452   0.363   5.980  0.2758 -0.0176 -0.4393
  102MOL   O31236874   1.644   0.490   5.958 -0.4128 -0.5086  0.3497
  102MOL   C31336875   1.692   0.454   6.084  0.6516 -1.2750 -1.0437
  102MOL   C31436876   1.807   0.550   6.110  0.1944 -0.5701  0.2308
  102MOL   C31536877   1.936   0.518   6.031 -0.1209 -0.3026  0.2713
  102MOL   H31636878   1.363   0.635   5.816 -2.6789 -0.7234 -0.8889
  102MOL   H31736879   1.363   0.586   5.652 -1.5765  0.1696 -0.8930
  102MOL   H31836880   1.585   0.528   5.748 -2.1994  3.6015  0.4752
  102MOL   H31936881   1.612   0.475   6.154 -0.0002 -3.4119 -1.1436
  102MOL   H32036882   1.716   0.348   6.086  2.1152 -0.9645 -1.3237
  102MOL   H32136883   1.784   0.654   6.087  1.0987 -0.5082 -0.3972
  102MOL   H32236884   1.837   0.545   6.215  1.2059 -3.1202 -0.1432
  102MOL   H32336885   1.917   0.539   5.926 -3.1246  0.0444  0.8424
  102MOL   H32436886   2.023   0.570   6.072 -0.5124 -0.8776  1.8770
  102MOL   H32536887   1.956   0.411   6.040 -0.4952 -0.3219  0.9157
  102MOL   C32636888   1.508   0.335   5.679  0.5605 -0.0733  0.4968
  102MOL   C32736889   1.522   0.356   5.524  0.3514  0.0708  0.3695
  102MOL   C32836890   1.662   0.394   5.487  0.3204 -0.1267 -0.3767
  102MOL   O32936891   1.757   0.325   5.519  0.1249 -0.1971  0.0988
  102MOL   O33036892   1.665   0.507   5.418  0.5940 -0.1923 -0.0045
  102MOL   C33136893   1.780   0.559   5.369  0.3546  0.3207  0.3349
  102MOL   C33236894   1.840   0.668   5.461  0.0722 -0.5233  0.0830
  102MOL   C33336895   1.938   0.609   5.566 -0.3834  0.1907 -0.2862
  102MOL   H33436896   1.421   0.273   5.701  0.5177 -0.8794 -1.7732
  102MOL   H33536897   1.586   0.262   5.701  1.3863  0.6965  0.1312
  102MOL   H33636898   1.462   0.438   5.485  1.3552  1.6245  2.0472
  102MOL   H33736899   1.852   0.478   5.354 -0.3231 -0.9677  3.4400
  102MOL   H33836900   1.762   0.593   5.267 -0.8841  0.3478  0.5547
  102MOL   H33936901   1.896   0.738   5.398 -1.3538  0.3692 -0.2377
  102MOL   H34036902   1.763   0.730   5.506  0.9166 -0.7981  1.9425
  102MOL   H34136903   2.021   0.550   5.528  0.2122 -1.0796  2.8367
  102MOL   H34236904   1.979   0.686   5.631 -0.4785 -0.1299  0.1494
  102MOL   H34336905   1.877   0.535   5.617  2.8315 -1.3152  1.4950
  102MOL   C34436906   1.457   0.236   5.453 -0.6618 -0.4251  0.4088
  102MOL   C34536907   1.455   0.232   5.296  0.0804  0.4106  0.7507
  102MOL   C34636908   1.414   0.096   5.236  0.1595 -0.5514 -0.0011
  102MOL   O34736909   1.403   7.875   5.300  0.1062  0.2557 -0.3484
  102MOL   O34836910   1.395   0.111   5.107 -0.3711  0.2050  0.3544
  102MOL   C34936911   1.355   7.875   5.032  0.3255 -0.1838  0.2491
  102MOL   C35036912   1.202   7.846   5.042 -0.7547  0.3103  0.0658
  102MOL   C35136913   1.158   7.715   4.975  0.3702  0.6513 -0.0711
  102MOL   H35236914   1.350   0.237   5.477 -0.7228 -0.7857  0.1518
  102MOL   H35336915   1.504   0.150   5.501  0.8827  0.7645  1.0551
  102MOL   H35436916   1.549   0.260   5.249 -0.6177  2.5962  0.6018
  102MOL   H35536917   1.380   0.028   4.931 -1.8403  1.1391  0.1189
  102MOL   H35636918   1.419   7.790   5.054  0.1616 -0.3713 -0.0073
  102MOL   H35736919   1.164   7.850   5.144 -1.9945 -1.3588 -0.3148
  102MOL   H35836920   1.139   0.044   5.001  0.3823  0.8843 -0.6128
  102MOL   H35936921   1.176   7.714   4.867 -0.6726  0.2606 -0.2420
  102MOL   H36036922   1.205   7.631   5.026  1.5754  0.2805 -1.7418
  102MOL   H36136923   1.051   7.702   4.967  0.6145 -0.5163 -1.5784
  102MOL   H36236924   1.381   0.305   5.262  2.6794  1.8535 -2.0518
  103MOL     C136925   5.340   3.632   6.774  0.2477  0.0762 -0.1045
  103MOL     C236926   5.359   3.513   6.873  0.0869  0.2713  0.2531
  103MOL     C336927   5.508   3.492   6.897 -0.3629  0.4830 -0.3170
  103MOL     O436928   5.568   3.395   6.856  0.4080 -0.5567  0.0002
  103MOL     O536929   5.561   3.593   6.974  0.8172 -0.7343  0.1465
  103MOL     C636930   5.694   3.612   7.001  0.3325  0.0104  0.1986
  103MOL     C736931   5.717   3.569   7.145 -0.3115 -0.1839 -0.2323
  103MOL     C836932   5.692   3.686   7.242 -0.0586 -0.1583  0.2793
  103MOL     H936933   5.416   3.638   6.696 -1.2939 -0.5004 -1.6641
  103MOL    H1036934   5.246   3.621   6.720  0.7386 -0.8634 -0.7810
  103MOL    H1136935   5.318   3.418   6.840  0.7478 -0.5018  1.6357
  103MOL    H1236936   5.757   3.561   6.929 -1.6274 -0.7848 -0.9990
  103MOL    H1336937   5.714   3.719   6.996  0.8898 -0.0149  1.5365
  103MOL    H1436938   5.645   3.488   7.159  0.6187 -0.9603  0.0842
  103MOL    H1536939   5.815   3.532   7.173 -0.1941  0.9707  0.9447
  103MOL    H1636940   5.766   3.766   7.231  0.4017 -0.3511  1.8190
  103MOL    H1736941   5.592   3.726   7.227  0.2039  0.5813  0.4788
  103MOL    H1836942   5.690   3.648   7.345  0.8547 -0.5438  0.1551
  103MOL    H1936943   5.331   3.730   6.821 -0.8615 -0.2785  0.4403
  103MOL    C2036944   5.280   3.529   7.001  0.4025 -0.5333 -0.5663
  103MOL    C2136945   5.131   3.519   6.998  0.5760  1.1290  0.5963
  103MOL    C2236946   5.075   3.379   6.950 -0.8620  0.2726  0.2143
  103MOL    O2336947   5.111   3.279   7.016  0.9788 -0.3508  0.0210
  103MOL    O2436948   5.000   3.382   6.835 -0.2758  0.2881 -0.1818
  103MOL    C2536949   4.934   3.267   6.792 -0.0990  0.2658  0.4933
  103MOL    C2636950   4.783   3.297   6.801 -0.0557  0.7427  0.8452
  103MOL    C2736951   4.729   3.301   6.943  0.6464  1.0789  0.7865
  103MOL    H2836952   5.295   3.620   7.058  0.8891 -1.3683  0.6688
  103MOL    H2936953   5.320   3.449   7.064  0.7739  1.2402  1.4878
  103MOL    H3036954   5.096   3.588   6.921 -0.9830 -0.4633 -0.1307
  103MOL    H3136955   4.959   3.237   6.691 -0.1120 -0.0915  0.5934
  103MOL    H3236956   4.955   3.183   6.859  3.5992 -0.5001 -1.5274
  103MOL    H3336957   4.764   3.385   6.740 -0.5442 -0.9241 -1.5113
  103MOL    H3436958   4.743   3.213   6.742  2.1828  0.3633 -0.1749
  103MOL    H3536959   4.764   3.213   6.998 -0.0641  0.4256  0.2174
  103MOL    H3636960   4.621   3.283   6.951  0.5376  2.1031  1.6359
  103MOL    H3736961   4.739   3.397   6.993 -3.3300  1.0270  1.8784
  103MOL    C3836962   5.047   3.561   7.129 -0.0092  0.6639 -0.7850
  103MOL    C3936963   5.020   3.709   7.141 -0.3434  0.2508 -0.0351
  103MOL    C4036964   4.929   3.775   7.035  0.4143 -0.1548  0.1298
  103MOL    O4136965   4.808   3.791   7.049 -0.0658 -0.4383 -0.6653
  103MOL    O4236966   5.011   3.818   6.934 -0.2684 -0.1549 -0.0252
  103MOL    C4336967   4.953   3.870   6.819 -0.1244 -0.4398 -0.1421
  103MOL    C4436968   5.057   3.920   6.725 -0.1486 -0.3390  0.0604
  103MOL    C4536969   5.105   4.064   6.765  0.2466  0.1568 -0.4205
  103MOL    H4636970   5.117   3.533   7.208  1.0855  1.8255 -1.3319
  103MOL    H4736971   4.953   3.506   7.138  0.3535  0.0413 -0.7122
  103MOL    H4836972   5.112   3.767   7.134 -2.1581  3.1217 -0.8446
  103MOL    H4936973   4.910   3.788   6.760 -0.1603  1.2170 -2.5039
  103MOL    H5036974   4.873   3.939   6.847 -0.7637 -1.9460  1.8729
  103MOL    H5136975   5.141   3.850   6.730  1.0845  0.9840 -1.4392
  103MOL    H5236976   5.020   3.924   6.623  2.5987 -1.0501 -1.0189
  103MOL    H5336977   5.128   4.066   6.872  1.9087 -1.6862 -0.6965
  103MOL    H5436978   5.034   4.143   6.742 -1.0579 -0.6439  0.8018
  103MOL    H5536979   5.201   4.094   6.722  0.3827  0.2528 -0.0586
  103MOL    C5636980   4.955   3.741   7.277 -0.4449  0.2344  0.1114
  103MOL    C5736981   5.050   3.771   7.398 -0.2024  0.7963  0.0027
  103MOL    C5836982   5.152   3.877   7.368  0.1465 -0.1517  0.4024
  103MOL    O5936983   5.271   3.850   7.352 -0.1506 -0.2229  0.0197
  103MOL    O6036984   5.095   3.992   7.334 -0.3130  0.0687  0.3577
  103MOL    C6136985   5.170   4.099   7.282  0.3391 -0.2736  0.1806
  103MOL    C6236986   5.136   4.110   7.133 -0.4708  0.6503  0.3815
  103MOL    C6336987   4.986   4.157   7.120 -0.0589 -0.0740  0.3726
  103MOL    H6436988   4.889   3.659   7.307  0.6712 -1.8834 -3.0124
  103MOL    H6536989   4.890   3.828   7.278 -2.1572 -0.9969 -0.8777
  103MOL    H6636990   5.110   3.682   7.416  0.0807  0.7560 -1.0759
  103MOL    H6736991   5.143   4.192   7.333  1.7496  0.8785 -1.1468
  103MOL    H6836992   5.278   4.093   7.294  0.2985 -0.2512  0.5993
  103MOL    H6936993   5.195   4.186   7.082  0.8563 -0.2044  0.6206
  103MOL    H7036994   5.160   4.020   7.075 -0.6720  1.3535 -0.8131
  103MOL    H7136995   4.932   4.070   7.157 -2.7501  1.1373 -0.5158
  103MOL    H7236996   4.956   4.172   7.016 -0.1571  0.6569  0.4993
  103MOL    H7336997   4.965   4.238   7.190 -0.5991 -0.9081  1.1800
  103MOL    C7436998   4.994   3.798   7.539  0.6875 -0.1245 -0.3072
  103MOL    C7536999   4.891   3.919   7.561 -0.0991 -0.1549 -0.2410
  103MOL    C7637000   4.754   3.882   7.515  0.9433 -0.3403 -0.7631
  103MOL    O7737001   4.711   3.771   7.535  0.7538  0.6812 -0.4494
  103MOL    O7837002   4.677   3.983   7.468 -0.1698 -0.2659 -0.2520
  103MOL    C7937003   4.548   3.961   7.420 -0.0994  0.7107  0.4378
  103MOL    C8037004   4.462   4.072   7.476 -0.8110 -0.1790  0.3331
  103MOL    C8137005   4.499   4.213   7.421 -0.8080  1.0202  0.5452
  103MOL    H8237006   5.078   3.806   7.607 -0.6387 -1.9890  1.6486
  103MOL    H8337007   4.937   3.713   7.577  1.2777 -0.2505  0.3005
  103MOL    H8437008   4.926   4.004   7.502 -1.2190 -0.1016 -0.8450
  103MOL    H8537009   4.560   3.964   7.312  1.8655  4.4653  0.6777
  103MOL    H8637010   4.509   3.864   7.452 -1.2233  1.3056  0.8875
  103MOL    H8737011   4.359   4.041   7.458 -0.2848 -0.5998 -2.0348
  103MOL    H8837012   4.476   4.061   7.584 -2.3810 -0.4869  0.5289
  103MOL    H8937013   4.439   4.294   7.463 -1.3688 -0.4213  2.5572
  103MOL    H9037014   4.511   4.228   7.313 -1.6628 -2.6895 -0.1150
  103MOL    H9137015   4.604   4.233   7.441 -0.6884 -0.0953  1.0182
  103MOL    C9237016   4.874   3.959   7.711 -0.7939  0.2353  0.8509
  103MOL    C9337017   5.004   4.013   7.780  0.7067  0.1204  0.4292
  103MOL    C9437018   5.075   4.125   7.690  0.2212 -0.5902 -0.1603
  103MOL    O9537019   5.174   4.106   7.616  0.6148 -0.2798 -0.2248
  103MOL    O9637020   5.009   4.246   7.699 -0.6010 -0.5165  0.2373
  103MOL    C9737021   5.076   4.358   7.631  0.5214 -0.1723  0.0809
  103MOL    C9837022   5.001   4.388   7.496  0.0796 -0.5217 -0.3282
  103MOL    C9937023   4.849   4.415   7.506  0.4507  0.0329  0.1242
  103MOL   H10037024   4.829   3.873   7.759 -1.1581  0.3226  0.6719
  103MOL   H10137025   4.801   4.039   7.728 -0.4322  0.5288  1.0240
  103MOL   H10237026   5.079   3.934   7.783 -0.5572 -1.1314 -0.5392
  103MOL   H10337027   5.088   4.445   7.696 -0.7758 -1.1795  1.7139
  103MOL   H10437028   5.179   4.335   7.606 -0.3287 -3.5301 -0.5049
  103MOL   H10537029   5.046   4.472   7.442 -2.9940 -0.8223 -3.5680
  103MOL   H10637030   5.012   4.304   7.426  0.1885 -0.9201  0.1687
  103MOL   H10737031   4.844   4.500   7.575 -0.5156 -0.4885  0.6935
  103MOL   H10837032   4.795   4.324   7.531  1.8797 -1.0611 -0.7315
  103MOL   H10937033   4.805   4.455   7.415 -2.4594  0.6226  1.6991
  103MOL   C11037034   4.976   4.068   0.040 -0.1848  0.2482  0.0940
  103MOL   C11137035   4.962   3.959   0.151  0.1398  0.4898  0.2255
  103MOL   C11237036   5.101   3.903   0.186 -0.0399  0.2360 -0.1760
  103MOL   O11337037   5.128   3.786   0.154  0.4814 -0.0339  0.3930
  103MOL   O11437038   5.179   4.000   0.242  0.2357 -0.1940  0.4550
  103MOL   C11537039   5.309   3.978   0.293  0.7229  0.4826  1.3930
  103MOL   C11637040   5.378   4.107   0.347  0.1546 -0.7421 -0.2782
  103MOL   C11737041   5.316   4.150   0.477 -0.0976 -0.2428 -0.1872
  103MOL   H11837042   4.884   4.127   0.041  0.7799  1.7469  0.5388
  103MOL   H11937043   5.061   4.129   0.070  2.3729 -2.5587 -1.2240
  103MOL   H12037044   4.903   3.875   0.112  1.2535 -0.3015  0.2123
  103MOL   H12137045   5.300   3.903   0.372 -0.2339 -2.2769 -1.2100
  103MOL   H12237046   5.365   3.938   0.209 -2.0105  1.5642 -1.0566
  103MOL   H12337047   5.486   4.093   0.355  0.4415  0.2699 -2.1675
  103MOL   H12437048   5.370   4.185   0.271  2.5504 -0.2243 -0.0465
  103MOL   H12537049   5.364   4.236   0.523  1.1579 -0.1021 -1.7315
  103MOL   H12637050   5.311   4.072   0.553 -0.8480  1.0046  1.0770
  103MOL   H12737051   5.211   4.175   0.461  0.0468  0.1740 -0.5054
  103MOL   C12837052   4.890   4.028   0.275 -0.3223 -0.2605 -0.1558
  103MOL   C12937053   4.860   3.947   0.403 -0.2469  0.4445  0.1094
  103MOL   C13037054   4.960   3.976   0.514  0.2658 -0.2170 -0.0660
  103MOL   O13137055   5.039   3.892   0.563 -0.2762 -0.0269  0.6268
  103MOL   O13237056   4.951   4.103   0.569  0.8263  0.1520 -0.4253
  103MOL   C13337057   5.030   4.143   0.673  0.3731 -0.1748  0.3258
  103MOL   C13437058   4.976   4.080   0.804  0.2032 -0.1646 -0.2253
  103MOL   C13537059   4.839   4.141   0.843  0.0415  0.0630 -0.2742
  103MOL   H13637060   4.793   4.070   0.248  0.3589  1.1832 -0.4159
  103MOL   H13737061   4.944   4.119   0.305  0.5490 -0.4221 -1.2240
  103MOL   H13837062   4.873   3.841   0.382  0.8644  0.4794  0.5584
  103MOL   H13937063   5.133   4.111   0.659 -0.6027 -3.5252  0.3286
  103MOL   H14037064   5.036   4.252   0.681  2.6051 -0.3324  1.3298
  103MOL   H14137065   4.962   3.972   0.811 -1.0790  0.0971  1.4401
  103MOL   H14237066   5.041   4.101   0.888  1.1187  3.5689 -1.7985
  103MOL   H14337067   4.803   4.102   0.938  1.7345 -0.9418 -0.0263
  103MOL   H14437068   4.762   4.119   0.768 -0.5011  0.2265  0.2304
  103MOL   H14537069   4.853   4.247   0.863  0.1970  0.0991 -0.5776
  103MOL   C14637070   4.713   3.958   0.450  0.2879  0.0742 -0.0627
  103MOL   C14737071   4.611   3.865   0.377  0.0766  0.3838 -0.2220
  103MOL   C14837072   4.593   3.726   0.445  0.0276 -0.0630 -0.5896
  103MOL   O14937073   4.495   3.697   0.513  0.4396  0.0659 -0.5284
  103MOL   O15037074   4.700   3.655   0.434 -0.3279 -0.5554  0.0772
  103MOL   C15137075   4.708   3.523   0.492 -0.0021 -0.1855 -0.0378
  103MOL   C15237076   4.856   3.473   0.490 -0.6154  0.1511 -1.0061
  103MOL   C15337077   4.907   3.458   0.352 -0.5601  0.0303  0.0570
  103MOL   H15437078   4.675   4.060   0.444  0.1299 -0.0183 -0.7125
  103MOL   H15537079   4.717   3.933   0.556  2.6429  1.1594  0.1347
  103MOL   H15637080   4.660   3.837   0.284 -2.1786  1.0246 -1.6443
  103MOL   H15737081   4.675   3.516   0.596  0.1206  0.1517  0.0247
  103MOL   H15837082   4.651   3.464   0.420 -2.3300 -1.5867  2.8574
  103MOL   H15937083   4.921   3.532   0.554 -1.4347 -1.6547  1.5549
  103MOL   H16037084   4.855   3.375   0.538 -0.7727  0.9112  0.5451
  103MOL   H16137085   5.011   3.427   0.348 -0.9126 -0.9680 -1.6019
  103MOL   H16237086   4.892   3.553   0.301  0.5148  0.8835  1.2894
  103MOL   H16337087   4.852   3.377   0.303 -1.0060 -1.0765  2.3027
  103MOL   C16437088   4.474   3.933   0.346 -0.2774  0.1060  0.5657
  103MOL   C16537089   4.475   4.018   0.215 -0.4387  0.8026  0.6085
  103MOL   C16637090   4.450   3.937   0.088 -0.2174  0.3486 -0.5078
  103MOL   O16737091   4.344   3.956   0.019 -0.2985  0.0408 -0.2355
  103MOL   O16837092   4.550   3.846   0.059  0.0830  0.0013  0.3381
  103MOL   C16937093   4.524   3.759   7.827  0.2778 -0.5351  0.7331
  103MOL   C17037094   4.625   3.635   7.815 -0.0734 -0.4326 -0.4440
  103MOL   C17137095   4.623   3.554   0.059 -0.8461 -0.2207  0.2975
  103MOL   H17237096   4.453   3.998   0.431  1.9173  2.8794 -0.9254
  103MOL   H17337097   4.392   3.862   0.358  1.2296 -2.0011 -1.2440
  103MOL   H17437098   4.578   4.039   0.188 -0.3754 -2.2806 -1.9091
  103MOL   H17537099   4.420   3.727   7.826  0.3479 -0.7485 -2.1495
  103MOL   H17637100   4.535   3.817   7.736 -0.2660 -0.0153  0.9970
  103MOL   H17737101   4.601   3.568   7.732  0.7499  0.0127 -1.0579
  103MOL   H17837102   4.726   3.667   7.787  0.7828 -2.4900  0.2087
  103MOL   H17937103   4.703   3.480   0.060 -0.3370  0.3386  1.0177
  103MOL   H18037104   4.532   3.494   0.066 -2.8788  2.6273 -0.5156
  103MOL   H18137105   4.617   3.611   0.152 -2.1108 -0.6613  0.4926
  103MOL   C18237106   4.394   4.146   0.214 -0.3558  0.2476  0.4248
  103MOL   C18337107   4.464   4.260   0.299  0.3802  0.6765  0.0514
  103MOL   C18437108   4.607   4.300   0.258  0.2601 -0.1188  0.8298
  103MOL   O18537109   4.694   4.297   0.336  0.1400 -0.0022  0.2237
  103MOL   O18637110   4.620   4.338   0.127 -0.4008  0.1659 -0.4963
  103MOL   C18737111   4.751   4.362   0.072 -0.7990 -0.2970 -0.7340
  103MOL   C18837112   4.790   4.510   0.064 -0.2020  0.1830  0.5237
  103MOL   C18937113   4.815   4.581   0.191 -0.1446 -0.1331  0.0665
  103MOL   H19037114   4.286   4.136   0.229 -0.5387  2.6552  0.9749
  103MOL   H19137115   4.385   4.191   0.115 -0.5273  1.6912  1.0927
  103MOL   H19237116   4.466   4.218   0.399 -0.1977  0.3376 -0.0771
  103MOL   H19337117   4.820   4.313   0.141 -1.3496  0.4316  0.3453
  103MOL   H19437118   4.764   4.308   7.859  1.0447  0.2827 -0.8281
  103MOL   H19537119   4.879   4.516   0.001  0.0321 -0.1858  0.8159
  103MOL   H19637120   4.715   4.567   0.008  0.3641  0.2177 -0.2082
  103MOL   H19737121   4.851   4.683   0.172 -1.4773  0.3704  0.2066
  103MOL   H19837122   4.898   4.532   0.241  0.1851 -0.4296 -0.7660
  103MOL   H19937123   4.738   4.583   0.267  0.8328  2.1010  1.0558
  103MOL   C20037124   4.376   4.385   0.305  0.2373  0.1403  0.1091
  103MOL   C20137125   4.233   4.372   0.374 -1.2417 -0.0868  0.6287
  103MOL   C20237126   4.220   4.254   0.476 -0.7490 -0.6069  0.8187
  103MOL   O20337127   4.124   4.180   0.472  0.1477 -0.1183 -0.1515
  103MOL   O20437128   4.316   4.263   0.574  0.2747  0.2654 -0.1386
  103MOL   C20537129   4.321   4.156   0.675  0.8733  0.0599  0.1222
  103MOL   C20637130   4.451   4.169   0.755  0.4537 -0.1597  0.1122
  103MOL   C20737131   4.467   4.039   0.838  0.1443  0.2429  0.8429
  103MOL   H20837132   4.362   4.421   0.203 -0.0737 -1.0795 -0.2942
  103MOL   H20937133   4.433   4.462   0.357 -1.1475  0.3960  1.2565
  103MOL   H21037134   4.150   4.351   0.307 -0.1027 -1.4711 -0.3504
  103MOL   H21137135   4.240   4.155   0.747 -1.1862 -1.4308 -2.1503
  103MOL   H21237136   4.312   4.062   0.621 -0.8319  0.3658 -0.1641
  103MOL   H21337137   4.531   4.168   0.680 -0.6271 -2.1697 -1.0560
  103MOL   H21437138   4.462   4.265   0.805 -0.8590 -0.9860  2.0140
  103MOL   H21537139   4.563   4.030   0.890 -1.1256 -2.6095  2.7939
  103MOL   H21637140   4.462   3.958   0.766  0.0628 -0.7218  1.9263
  103MOL   H21737141   4.383   4.035   0.907 -0.2140  0.3272  0.4145
  103MOL   C21837142   4.195   4.499   0.446  0.9602 -0.2275 -0.1651
  103MOL   C21937143   4.156   4.620   0.358  0.2745 -0.2967 -0.1641
  103MOL   C22037144   4.015   4.621   0.293  0.0598  0.1279  0.1694
  103MOL   O22137145   3.923   4.687   0.340 -0.0993  0.7471 -0.4275
  103MOL   O22237146   4.004   4.538   0.183  0.0653  0.2844  0.5290
  103MOL   C22337147   3.878   4.517   0.123  0.7358 -0.0986 -0.5231
  103MOL   C22437148   3.872   4.382   0.054  0.3589  0.5436 -0.0874
  103MOL   C22537149   3.877   4.271   0.156  0.0513 -0.1853 -0.1602
  103MOL   H22637150   4.276   4.532   0.510  0.5694 -0.3481  0.3944
  103MOL   H22737151   4.107   4.471   0.505  0.3433  1.3095 -0.3462
  103MOL   H22837152   4.233   4.622   0.281  1.2367 -0.4547  0.7827
  103MOL   H22937153   3.795   4.522   0.193 -1.4346 -0.2356 -2.9954
  103MOL   H23037154   3.856   4.591   0.046 -0.7058  2.2709  2.0854
  103MOL   H23137155   3.784   4.372   7.871  1.0335 -1.6687 -0.6956
  103MOL   H23237156   3.955   4.371   7.865  1.6655  0.0855  1.5346
  103MOL   H23337157   3.978   4.249   0.189  0.2915 -1.3656 -1.6083
  103MOL   H23437158   3.850   4.173   0.115  0.6186 -0.2048 -0.4890
  103MOL   H23537159   3.817   4.299   0.243  0.7991  0.7598  0.0573
  103MOL   C23637160   4.170   4.757   0.427  0.5460 -0.0607 -0.2056
  103MOL   C23737161   4.315   4.808   0.443  0.1861 -0.1102 -0.4121
  103MOL   C23837162   4.406   4.800   0.325 -0.6288  0.4323  0.3486
  103MOL   O23937163   4.486   4.707   0.311  0.1941 -0.1553 -0.1582
  103MOL   O24037164   4.374   4.893   0.246  0.0031 -0.4842  0.3956
  103MOL   C24137165   4.447   4.912   0.126 -0.1998 -0.4910 -0.7456
  103MOL   C24237166   4.559   5.020   0.138 -0.0534  0.1939  0.3061
  103MOL   C24337167   4.658   5.012   0.022  0.0125  0.9785 -0.5421
  103MOL   H24437168   4.117   4.761   0.522  2.6552  0.6788  1.0032
  103MOL   H24537169   4.122   4.831   0.363  3.2638 -0.3812 -2.7226
  103MOL   H24637170   4.370   4.757   0.522 -0.0700  0.3822  0.0869
  103MOL   H24737171   4.500   4.822   0.096  1.1708 -0.1563  0.6172
  103MOL   H24837172   4.378   4.948   0.049 -1.2099 -0.8099 -0.0065
  103MOL   H24937173   4.515   5.119   0.130  0.4807  0.6308  2.3153
  103MOL   H25037174   4.611   5.003   0.232 -2.1175 -2.2197  1.0539
  103MOL   H25137175   4.735   5.089   0.024  1.0080 -0.0136 -0.6152
  103MOL   H25237176   4.624   5.015   7.798 -1.1470  1.3907 -0.1629
  103MOL   H25337177   4.711   4.918   0.030  2.2194  2.3533  1.4782
  103MOL   C25437178   4.315   4.954   0.504  0.1693  0.0230 -0.0714
  103MOL   C25537179   4.444   5.036   0.514 -0.7702  0.1443  0.2311
  103MOL   C25637180   4.401   5.184   0.562  0.2788  0.3899 -0.8566
  103MOL   O25737181   4.434   5.282   0.498 -0.0212  0.8172 -0.3369
  103MOL   O25837182   4.349   5.193   0.693 -0.3218  0.1549 -0.2097
  103MOL   C25937183   4.317   5.314   0.753 -0.7114 -0.1388  0.1292
  103MOL   C26037184   4.421   5.345   0.861  0.3178  0.5348  0.1620
  103MOL   C26137185   4.417   5.475   0.939 -0.8798 -0.8422 -0.4469
  103MOL   H26237186   4.270   4.954   0.603 -0.8182 -0.0259 -0.5133
  103MOL   H26337187   4.248   5.008   0.437  1.1244  1.3994  0.0855
  103MOL   H26437188   4.479   5.047   0.411  0.0363  1.9617  0.6847
  103MOL   H26537189   4.321   5.394   0.679 -1.3350 -1.2456 -1.1215
  103MOL   H26637190   4.216   5.299   0.793  0.1229 -2.6154  1.3857
  103MOL   H26737191   4.397   5.268   0.935 -0.0395  0.6446  0.1611
  103MOL   H26837192   4.524   5.335   0.829  0.5367  2.8102  0.0972
  103MOL   H26937193   4.435   5.562   0.876 -0.0883  0.1346  1.0933
  103MOL   H27037194   4.497   5.479   1.013 -0.3684 -1.3274 -0.9605
  103MOL   H27137195   4.323   5.498   0.990 -0.3425  0.4492 -0.0237
  103MOL   C27237196   4.553   4.972   0.601 -0.2828  0.1913  0.1174
  103MOL   C27337197   4.668   5.061   0.657 -0.3444 -0.1157  0.9212
  103MOL   C27437198   4.685   5.042   0.805 -0.6601  0.1413  0.2261
  103MOL   O27537199   4.647   4.946   0.867 -0.3096  0.2879 -0.2300
  103MOL   O27637200   4.750   5.155   0.855 -0.0198 -0.4006 -0.4830
  103MOL   C27737201   4.764   5.171   0.995 -0.1207  0.2090 -0.1358
  103MOL   C27837202   4.813   5.321   1.010  0.6328  0.4791 -0.5806
  103MOL   C27937203   4.848   5.347   1.154 -0.2032  0.7812 -0.5530
  103MOL   H28037204   4.595   4.886   0.550  1.0378 -0.6397  2.5415
  103MOL   H28137205   4.496   4.925   0.681 -1.2800  0.4109 -0.4543
  103MOL   H28237206   4.636   5.165   0.661  0.7278  0.1356  3.6735
  103MOL   H28337207   4.670   5.165   1.050  0.8181  1.6793  1.6810
  103MOL   H28437208   4.835   5.096   1.029 -0.3381 -0.5874 -1.3983
  103MOL   H28537209   4.895   5.336   0.940  0.4115  1.2136 -0.6837
  103MOL   H28637210   4.741   5.395   0.976 -0.0255  0.9235  1.6598
  103MOL   H28737211   4.755   5.352   1.210 -0.2311 -2.8409 -0.1457
  103MOL   H28837212   4.896   5.445   1.160 -0.6078  0.9570 -0.1169
  103MOL   H28937213   4.917   5.274   1.197 -1.0355 -0.5761 -1.4886
  103MOL   C29037214   4.806   5.055   0.576 -0.2403 -0.4131 -0.0483
  103MOL   C29137215   4.893   4.934   0.606 -0.3807 -0.0773 -0.0332
  103MOL   C29237216   4.844   4.809   0.531  0.1980  0.3874  0.0160
  103MOL   O29337217   4.847   4.809   0.409  0.1865  0.0408 -0.1504
  103MOL   O29437218   4.799   4.715   0.605  0.5116  0.1255  0.4875
  103MOL   C29537219   4.766   4.584   0.549  0.3541 -0.4115  0.4057
  103MOL   C29637220   4.686   4.507   0.659 -0.0191  0.0219  0.4256
  103MOL   C29737221   4.581   4.586   0.732 -0.5448  0.9404  0.3839
  103MOL   H29837222   4.857   5.148   0.603 -0.8906 -0.0691  0.0082
  103MOL   H29937223   4.794   5.067   0.469  2.6188  0.0505 -0.3627
  103MOL   H30037224   4.890   4.918   0.714 -0.4828  1.7007  0.2383
  103MOL   H30137225   4.697   4.618   0.472  2.5289  2.2539 -0.4290
  103MOL   H30237226   4.840   4.522   0.497 -0.5850 -1.0341 -0.1954
  103MOL   H30337227   4.630   4.428   0.611  1.2468 -0.9764  0.5654
  103MOL   H30437228   4.760   4.455   0.720 -0.0150 -2.0896 -1.3211
  103MOL   H30537229   4.500   4.617   0.667 -0.6557  1.1507  0.6207
  103MOL   H30637230   4.622   4.678   0.774 -0.4943  1.3713 -0.6045
  103MOL   H30737231   4.534   4.535   0.816 -0.3034  1.7565  1.0181
  103MOL   C30837232   5.046   4.943   0.590 -0.0700 -0.0161 -0.2554
  103MOL   C30937233   5.098   4.992   0.451 -0.4292  0.9383  0.2555
  103MOL   C31037234   5.122   5.139   0.447 -1.1450 -0.1142  0.0506
  103MOL   O31137235   5.197   5.193   0.531 -0.6291  0.3246 -0.5154
  103MOL   O31237236   5.043   5.201   0.358  0.6351 -0.8647  0.3292
  103MOL   C31337237   5.065   5.337   0.337 -0.2797 -0.3806 -0.0359
  103MOL   C31437238   4.934   5.400   0.286  0.4828 -0.0511  0.3570
  103MOL   C31537239   4.892   5.354   0.149 -1.8661 -0.0198  0.3074
  103MOL   H31637240   5.077   4.842   0.619  1.6253  0.0870 -1.5971
  103MOL   H31737241   5.085   5.014   0.663 -3.5828  0.7956  0.9128
  103MOL   H31837242   5.019   4.965   0.381  0.3684 -3.1121  0.7592
  103MOL   H31937243   5.093   5.385   0.431  2.0467  1.4045 -1.5920
  103MOL   H32037244   5.148   5.354   0.269  1.3410 -2.3976  1.3658
  103MOL   H32137245   4.850   5.386   0.353  1.0103  2.2558  1.5536
  103MOL   H32237246   4.944   5.508   0.277  0.8743 -0.0034  1.2327
  103MOL   H32337247   4.902   5.246   0.139 -0.0909  0.4115 -3.7208
  103MOL   H32437248   4.791   5.387   0.126 -1.1851  1.4841 -0.6536
  103MOL   H32537249   4.963   5.386   0.072  1.2432 -0.6835  2.7734
  103MOL   C32637250   5.223   4.910   0.398  0.1509 -0.0948  0.9940
  103MOL   C32737251   5.279   4.954   0.257  0.3018  0.1919  0.1059
  103MOL   C32837252   5.399   4.857   0.226 -0.3006 -0.2258  0.5496
  103MOL   O32937253   5.399   4.763   0.144  1.0389  0.8182 -0.1724
  103MOL   O33037254   5.505   4.880   0.316  0.5660 -0.0642  0.4237
  103MOL   C33137255   5.623   4.803   0.318  0.1826 -0.3991 -0.1761
  103MOL   C33237256   5.738   4.886   0.262 -0.2495 -0.1641 -0.5835
  103MOL   C33337257   5.721   4.925   0.112  0.4332  0.1274  0.1386
  103MOL   H33437258   5.184   4.808   0.397 -2.9660  1.0242 -0.5985
  103MOL   H33537259   5.302   4.920   0.472  1.8919  0.6365 -0.9144
  103MOL   H33637260   5.308   5.059   0.260 -0.8386  0.5408 -0.6331
  103MOL   H33737261   5.647   4.768   0.418  0.9751 -0.6427 -0.4446
  103MOL   H33837262   5.601   4.717   0.255 -0.5815  0.0844 -0.5699
  103MOL   H33937263   5.758   4.975   0.322  1.3470  1.3294 -3.1945
  103MOL   H34037264   5.828   4.826   0.261  0.0185  0.2139  0.6138
  103MOL   H34137265   5.646   5.002   0.097  1.3553  0.8008 -1.0071
  103MOL   H34237266   5.814   4.971   0.079  0.7083 -0.0305  0.6854
  103MOL   H34337267   5.692   4.840   0.050 -3.4723  0.2610  1.6193
  103MOL   C34437268   5.174   4.953   0.147  0.7341 -0.1159  0.5248
  103MOL   C34537269   5.222   5.042   0.034  0.2898  0.1176 -0.4195
  103MOL   C34637270   5.116   5.093   7.821 -0.3473  0.0939 -0.1433
  103MOL   O34737271   5.019   5.032   7.797 -0.3356  0.0287  0.1179
  103MOL   O34837272   5.157   5.212   7.774 -0.0000 -0.1392 -0.1689
  103MOL   C34937273   5.081   5.278   7.676  0.4623 -0.1127  0.2937
  103MOL   C35037274   5.172   5.326   7.566 -0.3757 -0.3244 -0.3208
  103MOL   C35137275   5.249   5.209   7.504  0.7335 -0.8394  0.4907
  103MOL   H35237276   5.076   4.990   0.179  1.5526  1.0631  1.7030
  103MOL   H35337277   5.168   4.855   0.099 -0.2099 -0.5150  1.4276
  103MOL   H35437278   5.302   5.011   7.847 -1.1963  0.9213 -2.6340
  103MOL   H35537279   4.992   5.225   7.642  0.3512 -0.5323  1.2205
  103MOL   H35637280   5.049   5.378   7.709  0.6132  0.5585 -1.5640
  103MOL   H35737281   5.119   5.382   7.489  0.5633 -0.0884 -0.8093
  103MOL   H35837282   5.236   5.407   7.601 -1.8981  0.0551  1.6272
  103MOL   H35937283   5.307   5.156   7.580  3.5786 -0.9248 -1.6664
  103MOL   H36037284   5.181   5.136   7.463 -0.3810  0.4297  0.0421
  103MOL   H36137285   5.324   5.250   7.437  0.8678  0.4652  1.4116
  103MOL   H36237286   5.261   5.127   0.090  0.3292 -1.4326  1.9882
  104MOL     C137287   0.593   6.322   1.011  0.3307  0.3299 -0.5356
  104MOL     C237288   0.575   6.361   0.868  0.0574  0.0887  0.1060
  104MOL     C337289   0.687   6.301   0.784 -0.2227  0.5736 -0.9003
  104MOL     O437290   0.755   6.375   0.719  0.0420  0.0138  0.4095
  104MOL     O537291   0.710   6.171   0.811  0.3197 -0.3445  0.7086
  104MOL     C637292   0.834   6.106   0.752  0.0963  1.1936 -0.3340
  104MOL     C737293   0.855   5.982   0.849 -0.1025  0.5492  0.2834
  104MOL     C837294   0.762   5.869   0.818 -0.0644  0.0641  1.1908
  104MOL     H937295   0.526   6.378   1.077  0.9874 -1.7150  1.9260
  104MOL    H1037296   0.556   6.220   1.025 -1.8339  1.1270 -0.1743
  104MOL    H1137297   0.594   6.468   0.859  1.5490  0.0331  2.3141
  104MOL    H1237298   0.817   6.075   0.649 -0.2193  1.4736 -0.3694
  104MOL    H1337299   0.923   6.168   0.757  0.8968  0.3435 -3.2123
  104MOL    H1437300   0.956   5.941   0.841  0.0577  0.9352  0.3256
  104MOL    H1537301   0.838   6.017   0.951 -2.5379  0.5926 -0.0982
  104MOL    H1637302   0.755   5.804   0.906 -0.9482 -2.8092 -0.9546
  104MOL    H1737303   0.659   5.904   0.811 -0.2762 -0.5832  1.0971
  104MOL    H1837304   0.796   5.818   0.728  0.4660 -2.0477  2.5599
  104MOL    H1937305   0.693   6.304   1.050 -0.5405  1.0321  2.1133
  104MOL    C2037306   0.427   6.324   0.826 -0.2084 -0.2512 -0.1120
  104MOL    C2137307   0.376   6.421   0.714 -0.6329 -0.3376 -0.1608
  104MOL    C2237308   0.234   6.381   0.666 -0.2994  0.4180 -0.2977
  104MOL    O2337309   0.139   6.352   0.736  1.2402  0.0279 -0.3788
  104MOL    O2437310   0.228   6.407   0.538 -0.8397 -0.1840 -0.5098
  104MOL    C2537311   0.106   6.391   0.467  1.2014  0.5492  0.5492
  104MOL    C2637312   0.124   6.437   0.319 -0.6279  0.2650 -0.3948
  104MOL    C2737313   0.214   6.339   0.249  0.2665  0.3384 -0.3217
  104MOL    H2837314   0.367   6.328   0.917  1.6207  0.4823  1.0991
  104MOL    H2937315   0.414   6.221   0.793 -2.2926  0.4660 -1.6192
  104MOL    H3037316   0.438   6.421   0.625 -0.2075 -2.0392  0.1165
  104MOL    H3137317   0.089   6.283   0.464  1.3768  0.2881  5.1312
  104MOL    H3237318   0.022   6.445   0.511  1.8120  1.4261  0.6384
  104MOL    H3337319   0.032   6.444   0.261 -0.4762  0.0982 -0.6609
  104MOL    H3437320   0.166   6.535   0.297  0.8416 -0.6783 -1.9773
  104MOL    H3537321   0.194   6.341   0.142  1.4585  0.2230 -0.5485
  104MOL    H3637322   0.189   6.237   0.278 -2.6329  2.0359  3.6979
  104MOL    H3737323   0.318   6.356   0.275 -0.5850  3.2452  1.4081
  104MOL    C3837324   0.375   6.572   0.755 -0.9974 -0.1313 -0.7561
  104MOL    C3937325   0.419   6.678   0.652 -0.4650 -0.1779  0.9191
  104MOL    C4037326   0.562   6.657   0.608  0.2778  0.6630  0.2774
  104MOL    O4137327   0.595   6.606   0.500  0.5004  0.2094  0.6235
  104MOL    O4237328   0.644   6.698   0.707  0.0851  0.4549  0.4327
  104MOL    C4337329   0.790   6.693   0.688 -0.1392 -1.1741 -0.0483
  104MOL    C4437330   0.849   6.826   0.640  0.1193  0.8379  0.4590
  104MOL    C4537331   0.847   6.847   0.487  0.2669 -0.1964 -0.1062
  104MOL    H4637332   0.428   6.590   0.848 -0.9098 -0.4631 -0.7421
  104MOL    H4737333   0.278   6.607   0.791 -0.1643  0.6344  0.7619
  104MOL    H4837334   0.409   6.772   0.705 -2.2011 -0.5398  1.2569
  104MOL    H4937335   0.840   6.670   0.783 -0.9392 -3.1277 -0.0941
  104MOL    H5037336   0.811   6.611   0.621  3.7816  0.0535 -0.4707
  104MOL    H5137337   0.808   6.916   0.687 -0.8362  1.3658 -1.3266
  104MOL    H5237338   0.954   6.820   0.669  0.3927 -0.4350 -0.7572
  104MOL    H5337339   0.898   6.941   0.464  0.5934 -0.4108 -0.2609
  104MOL    H5437340   0.751   6.869   0.440  1.3381  0.8018 -1.8642
  104MOL    H5537341   0.893   6.762   0.438 -1.6408 -1.7078  0.6709
  104MOL    C5637342   0.321   6.699   0.527  0.0860 -0.0476 -0.6186
  104MOL    C5737343   0.356   6.808   0.422 -0.0799  0.2770 -0.0460
  104MOL    C5837344   0.243   6.806   0.322  0.1352 -0.6696 -0.9553
  104MOL    O5937345   0.258   6.773   0.203 -0.6438  0.8122 -0.1097
  104MOL    O6037346   0.125   6.863   0.380  0.0265 -0.0908  0.1266
  104MOL    C6137347   0.012   6.879   0.294 -0.3501  0.9361  0.0744
  104MOL    C6237348   7.762   6.867   0.380  0.0111  0.1134  0.3070
  104MOL    C6337349   7.729   6.714   0.402  0.2380  0.2470 -0.0763
  104MOL    H6437350   0.222   6.718   0.569  0.5874  0.1853  0.4482
  104MOL    H6537351   0.308   6.605   0.472 -0.0636 -0.5442  0.2561
  104MOL    H6637352   0.436   6.763   0.364 -1.6852 -3.4721  0.4715
  104MOL    H6737353   0.014   6.978   0.247 -2.1696  0.2649 -1.4707
  104MOL    H6837354   0.025   6.809   0.213 -1.3234  0.0841  0.6394
  104MOL    H6937355   7.771   6.919   0.475 -2.4956  1.0952  0.0423
  104MOL    H7037356   7.674   6.915   0.337 -0.2184  0.5172  1.2186
  104MOL    H7137357   7.805   6.647   0.442 -2.9002 -3.1083  0.5370
  104MOL    H7237358   7.706   6.666   0.306 -0.2606  0.7981 -0.2376
  104MOL    H7337359   7.637   6.703   0.460 -1.3961  0.0100 -2.6202
  104MOL    C7437360   0.399   6.939   0.490 -0.9486 -0.9090  0.4171
  104MOL    C7537361   0.441   7.051   0.385  0.4617 -0.1619  0.3703
  104MOL    C7637362   0.325   7.142   0.332  0.5604  0.3270 -1.3172
  104MOL    O7737363   0.311   7.157   0.215  0.8678  0.3987 -0.3119
  104MOL    O7837364   0.255   7.202   0.435 -0.7003 -1.2848  0.0292
  104MOL    C7937365   0.161   7.304   0.400 -0.1410  0.0856  0.4543
  104MOL    C8037366   0.017   7.260   0.439  0.1452 -0.4488 -0.2319
  104MOL    C8137367   7.863   7.211   0.582 -0.1640  0.2973 -0.4762
  104MOL    H8237368   0.487   6.917   0.551 -0.3031  1.7498  0.4983
  104MOL    H8337369   0.322   6.983   0.553 -0.8415  0.1893 -0.1999
  104MOL    H8437370   0.493   7.003   0.302  0.0237 -0.7853  0.4536
  104MOL    H8537371   0.198   7.396   0.444  1.4041  0.0534 -0.7619
  104MOL    H8637372   0.151   7.323   0.294 -0.5428 -1.5924  0.1765
  104MOL    H8737373   7.835   7.349   0.431 -1.3345 -1.4581 -0.3202
  104MOL    H8837374   7.851   7.190   0.370  0.0653 -0.8781  0.2521
  104MOL    H8937375   7.755   7.218   0.594 -0.2917  2.5038 -2.4530
  104MOL    H9037376   0.034   7.276   0.652 -0.3223 -0.0892  0.0011
  104MOL    H9137377   0.003   7.106   0.601  3.1093  0.9080 -0.4383
  104MOL    C9237378   0.550   7.142   0.459 -0.9292 -0.2031 -0.0880
  104MOL    C9337379   0.617   7.266   0.391  0.2089  0.9905  0.2909
  104MOL    C9437380   0.714   7.339   0.485  0.3124 -0.2488 -0.0713
  104MOL    O9537381   0.697   7.456   0.515 -0.3332 -0.2941 -0.0069
  104MOL    O9637382   0.817   7.262   0.519 -0.7205 -0.1491 -0.1664
  104MOL    C9737383   0.922   7.315   0.597  0.3236  0.1402 -0.3763
  104MOL    C9837384   1.057   7.296   0.531 -0.4128  0.2427  0.0008
  104MOL    C9937385   1.115   7.153   0.536  0.6215  0.8106 -0.4248
  104MOL   H10037386   0.637   7.089   0.499 -0.2633  0.7498 -0.2658
  104MOL   H10137387   0.513   7.194   0.547  1.2781  0.0425  0.7454
  104MOL   H10237388   0.529   7.326   0.367 -2.1081 -2.1222  0.8042
  104MOL   H10337389   0.901   7.420   0.616 -2.2354 -0.7645  2.1095
  104MOL   H10437390   0.935   7.264   0.693  3.6378  2.5071  0.5498
  104MOL   H10537391   1.063   7.336   0.430  1.3519 -0.1951 -0.0823
  104MOL   H10637392   1.127   7.358   0.587 -2.3141  1.5459  0.9829
  104MOL   H10737393   1.065   7.091   0.462 -0.3286  1.4558 -0.3374
  104MOL   H10837394   1.124   7.112   0.637  2.6844 -2.0943 -1.7306
  104MOL   H10937395   1.220   7.163   0.509 -0.1240  3.3225 -2.6786
  104MOL   C11037396   0.691   7.238   0.259 -0.4079 -0.0478 -0.3606
  104MOL   C11137397   0.606   7.261   0.130  0.1204  0.4026  0.4910
  104MOL   C11237398   0.545   7.395   0.124 -0.1306 -0.2441  0.7604
  104MOL   O11337399   0.421   7.413   0.119 -0.2744  0.0370 -0.2013
  104MOL   O11437400   0.637   7.488   0.124  0.4689  0.0707  0.2586
  104MOL   C11537401   0.606   7.622   0.141 -0.5043 -0.1008  0.0990
  104MOL   C11637402   0.732   7.707   0.175  0.9508  0.3472 -0.0493
  104MOL   C11737403   0.791   7.668   0.308  0.5919  0.4143  0.4930
  104MOL   H11837404   0.707   7.130   0.258  1.7177  0.2500 -0.2376
  104MOL   H11937405   0.788   7.282   0.239 -0.5009 -0.1150 -0.9823
  104MOL   H12037406   0.527   7.187   0.119  0.0399  0.2886  1.7166
  104MOL   H12137407   0.577   7.655   0.041  2.1678  0.6343 -0.4896
  104MOL   H12237408   0.519   7.644   0.203 -0.4459 -1.3968  0.6440
  104MOL   H12337409   0.809   7.699   0.098  0.3505 -0.8884 -0.5189
  104MOL   H12437410   0.705   7.813   0.180  0.7699  0.2744  0.5709
  104MOL   H12537411   0.725   7.643   0.391 -0.6499  0.1147 -0.5802
  104MOL   H12637412   0.858   7.746   0.345  1.9294 -0.5230  0.0653
  104MOL   H12737413   0.854   7.580   0.297 -0.7612 -0.7079  1.5023
  104MOL   C12837414   0.698   7.238   0.005 -0.6040 -0.5784  0.4783
  104MOL   C12937415   0.791   7.111   0.002 -0.1877 -0.5379  0.0928
  104MOL   C13037416   0.713   6.978   0.009 -0.2165 -0.2054  0.2913
  104MOL   O13137417   0.592   6.968   7.870 -0.1333 -0.3311 -0.7770
  104MOL   O13237418   0.792   6.878   0.028  0.1110  0.3741 -0.2753
  104MOL   C13337419   0.735   6.751   0.043  0.7894 -0.3460 -0.8693
  104MOL   C13437420   0.747   6.702   0.185 -0.1233 -1.0662 -0.7997
  104MOL   C13537421   0.691   6.561   0.196  0.1404 -0.0308 -0.4920
  104MOL   H13637422   0.771   7.318   7.879 -0.4978 -0.7608 -0.9353
  104MOL   H13737423   0.639   7.245   7.794  1.7902  3.5124 -0.8637
  104MOL   H13837424   0.853   7.110   0.092 -0.3217 -2.4033  0.1822
  104MOL   H13937425   0.630   6.739   0.017  0.9710 -0.3031 -1.6072
  104MOL   H14037426   0.791   6.685   7.857  0.4067 -1.2027 -0.3569
  104MOL   H14137427   0.851   6.707   0.215  0.5550 -1.8985 -2.8675
  104MOL   H14237428   0.687   6.767   0.248  0.7760 -0.2197 -0.8089
  104MOL   H14337429   0.756   6.497   0.136  0.5767  0.6086 -0.7104
  104MOL   H14437430   0.587   6.565   0.163 -0.2098  2.2446  0.7733
  104MOL   H14537431   0.695   6.517   0.296  1.6446 -3.7948 -2.1201
  104MOL   C14637432   0.884   7.113   7.757  0.2347 -0.3216  0.1404
  104MOL   C14737433   0.995   7.231   7.749 -0.9322 -0.5267  0.3812
  104MOL   C14837434   1.085   7.231   7.877  0.3656 -0.0929  1.2287
  104MOL   O14937435   1.102   7.334   0.061 -0.3944 -0.1878  0.1757
  104MOL   O15037436   1.123   7.110   0.033  0.1676  0.5695 -0.2146
  104MOL   C15137437   1.174   7.092   0.163 -0.2633 -0.3761  0.6173
  104MOL   C15237438   1.229   6.950   0.183  0.4993  0.4748  0.7515
  104MOL   C15337439   1.119   6.843   0.191  0.1567  0.7084 -0.4872
  104MOL   H15437440   0.827   7.109   7.664  0.7373 -0.4357 -0.1654
  104MOL   H15537441   0.943   7.022   7.752  0.4317 -0.1367 -1.4163
  104MOL   H15637442   0.933   7.320   7.748  2.9116  2.2885 -0.5706
  104MOL   H15737443   1.252   7.164   0.188 -2.2364  1.4805  1.5975
  104MOL   H15837444   1.104   7.100   0.245  0.8936  2.2466  1.4117
  104MOL   H15937445   1.299   6.946   0.099  0.6297 -0.4255  0.9002
  104MOL   H16037446   1.282   6.950   0.278 -1.0773  0.2240  1.6275
  104MOL   H16137447   1.161   6.743   0.201  0.8637  0.9111 -1.2743
  104MOL   H16237448   1.062   6.841   0.098  2.0245  0.5417 -1.6624
  104MOL   H16337449   1.055   6.863   0.277  0.5738  0.4881 -0.1203
  104MOL   C16437450   1.088   7.228   7.615  0.3308  0.0020  0.3853
  104MOL   C16537451   1.007   7.238   7.481 -0.6260 -0.2091 -0.0949
  104MOL   C16637452   0.915   7.358   7.492  0.4233  0.5610  0.2557
  104MOL   O16737453   0.964   7.467   7.483  0.4734  0.1729  0.1523
  104MOL   O16837454   0.791   7.326   7.513  0.0396 -0.0327  0.0764
  104MOL   C16937455   0.700   7.434   7.523  0.7387 -0.5028 -0.7158
  104MOL   C17037456   0.557   7.388   7.540 -0.4264 -0.0323  0.3332
  104MOL   C17137457   0.465   7.505   7.585 -0.4226 -0.4516 -0.5297
  104MOL   H17237458   1.150   7.139   7.621 -0.2198 -0.4636 -0.6811
  104MOL   H17337459   1.167   7.302   7.613 -0.8705  1.2773 -2.2431
  104MOL   H17437460   0.946   7.148   7.473  0.0335 -0.6085 -0.6350
  104MOL   H17537461   0.725   7.487   7.615 -0.4945 -2.1536  0.6036
  104MOL   H17637462   0.694   7.502   7.438  0.4096 -1.5818 -1.5666
  104MOL   H17737463   0.524   7.363   7.439 -2.5860  0.7366  0.8126
  104MOL   H17837464   0.556   7.304   7.608  2.1749  0.9120  1.6076
  104MOL   H17937465   0.469   7.585   7.511 -1.4851 -0.2224 -0.3482
  104MOL   H18037466   0.505   7.545   7.678 -1.1395 -0.3933 -0.2415
  104MOL   H18137467   0.359   7.481   7.597 -0.5047 -0.9146 -2.0793
  104MOL   C18237468   1.094   7.253   7.358  0.3242 -0.7348 -0.4205
  104MOL   C18337469   1.016   7.265   7.225 -0.3588  0.2549  0.0121
  104MOL   C18437470   1.105   7.298   7.101 -0.2656  0.2517  0.1690
  104MOL   O18537471   1.078   7.253   6.991 -0.2973 -0.2048 -0.2049
  104MOL   O18637472   1.201   7.391   7.134 -0.1938  0.3641  1.0626
  104MOL   C18737473   1.291   7.441   7.033 -0.3297  0.4610  0.0692
  104MOL   C18837474   1.412   7.355   7.036 -0.2889 -0.0246 -0.0732
  104MOL   C18937475   1.514   7.393   6.933 -0.3282 -0.1229  0.8140
  104MOL   H19037476   1.152   7.161   7.348  1.3398 -0.0906 -0.5456
  104MOL   H19137477   1.163   7.337   7.374  0.3493 -0.3387 -2.3795
  104MOL   H19237478   0.960   7.358   7.228 -1.3399 -0.1805 -3.1535
  104MOL   H19337479   1.251   7.436   6.931  3.0215 -2.3895 -1.2208
  104MOL   H19437480   1.309   7.548   7.036  1.7163  0.2377 -2.4865
  104MOL   H19537481   1.454   7.357   7.137 -0.7703 -0.8880  0.1444
  104MOL   H19637482   1.378   7.252   7.025 -0.9533  0.2675 -0.8272
  104MOL   H19737483   1.545   7.497   6.948 -1.5193  0.1407  1.5622
  104MOL   H19837484   1.473   7.383   6.833 -1.0406  2.8957  0.7590
  104MOL   H19937485   1.606   7.337   6.944  2.5331  4.3397  0.9153
  104MOL   C20037486   0.910   7.148   7.215  0.1357 -0.5864  0.7271
  104MOL   C20137487   0.981   7.019   7.163  0.4485  0.0353 -0.5826
  104MOL   C20237488   1.014   6.922   7.282 -0.2512 -0.0479  0.5137
  104MOL   O20337489   1.130   6.883   7.296  0.3982 -0.0261 -0.3544
  104MOL   O20437490   0.919   6.897   7.366 -0.0668  0.3117 -0.2321
  104MOL   C20537491   0.951   6.805   7.473  0.8101 -0.2028 -0.4555
  104MOL   C20637492   0.826   6.747   7.541  0.3289  0.9240  0.3313
  104MOL   C20737493   0.763   6.645   7.442  0.3925  0.1554 -0.1549
  104MOL   H20837494   0.828   7.173   7.148  0.9670  1.1987  0.3432
  104MOL   H20937495   0.854   7.132   7.307 -1.1911  4.5275  0.9727
  104MOL   H21037496   1.078   7.037   7.115  0.7866  4.2860  1.4751
  104MOL   H21137497   1.010   6.724   7.431 -0.8711 -0.4115 -2.4592
  104MOL   H21237498   1.004   6.856   7.554  1.7438 -0.9891 -0.5694
  104MOL   H21337499   0.856   6.686   7.627  0.6219 -0.8395 -1.0056
  104MOL   H21437500   0.759   6.826   7.578  1.1290  2.7005 -1.9022
  104MOL   H21537501   0.832   6.564   7.421 -0.5552 -0.4680 -0.9190
  104MOL   H21637502   0.721   6.688   7.352 -2.7991 -2.0135  0.1906
  104MOL   H21737503   0.671   6.605   7.486  0.9233  0.5495  1.3588
  104MOL   C21837504   0.898   6.957   7.043 -0.3279  0.4990 -0.2270
  104MOL   C21937505   0.921   6.813   6.988 -0.1891 -0.3354 -0.4682
  104MOL   C22037506   0.830   6.761   6.874 -0.4287  0.8408  0.2850
  104MOL   O22137507   0.769   6.656   6.888  0.8503 -0.2876 -0.1546
  104MOL   O22237508   0.838   6.843   6.768 -0.2407  0.1370  0.3139
  104MOL   C22337509   0.754   6.829   6.654  0.3316 -0.3633 -0.5396
  104MOL   C22437510   0.698   6.966   6.633 -0.2079  0.1050  0.5752
  104MOL   C22537511   0.570   6.969   6.543 -0.7294  0.0243 -0.3741
  104MOL   H22637512   0.897   7.027   6.959 -2.0672  1.0212  0.2136
  104MOL   H22737513   0.794   6.967   7.074 -0.0846  3.9174 -0.2637
  104MOL   H22837514   0.916   6.733   7.062 -0.4387 -1.5216 -1.7487
  104MOL   H22937515   0.816   6.791   6.572  2.4410  0.7514  0.4748
  104MOL   H23037516   0.676   6.754   6.663 -1.6274  1.8631  1.8529
  104MOL   H23137517   0.667   7.000   6.732  0.5048  1.5631  0.3073
  104MOL   H23237518   0.767   7.039   6.590 -0.8148 -0.2022 -0.9852
  104MOL   H23337519   0.583   6.909   6.453 -1.1446  0.4245 -0.6999
  104MOL   H23437520   0.548   7.071   6.512 -1.7741 -0.4514 -1.2208
  104MOL   H23537521   0.479   6.947   6.599 -0.4106  1.2028  0.6144
  104MOL   C23637522   1.065   6.808   6.935  0.2946 -0.1020  0.0797
  104MOL   C23737523   1.119   6.667   6.890  0.1205  0.2319  0.0601
  104MOL   C23837524   1.252   6.661   6.819  0.5393 -0.0799 -0.0810
  104MOL   O23937525   1.269   6.585   6.727  0.0277 -0.1609  0.0532
  104MOL   O24037526   1.346   6.747   6.869 -0.1044  0.3460 -0.2710
  104MOL   C24137527   1.465   6.766   6.795  0.0263  0.2452  0.1744
  104MOL   C24237528   1.487   6.917   6.774  0.0947 -0.0116  0.0873
  104MOL   C24337529   1.585   6.962   6.881 -0.7899  0.6131 -0.0028
  104MOL   H24437530   1.135   6.846   7.008 -1.3443 -1.1568  2.2572
  104MOL   H24537531   1.076   6.882   6.856 -0.3360  1.2562  1.2493
  104MOL   H24637532   1.051   6.626   6.815  1.4380  0.4376 -1.2705
  104MOL   H24737533   1.551   6.718   6.842 -0.3601 -2.5471 -1.8100
  104MOL   H24837534   1.460   6.712   6.700 -0.8459  1.6391 -0.5934
  104MOL   H24937535   1.542   6.929   6.681 -1.4986 -0.6140 -0.9259
  104MOL   H25037536   1.398   6.980   6.776 -0.1520 -0.3671  2.2588
  104MOL   H25137537   1.567   6.930   6.983  1.5814  0.0765  0.2603
  104MOL   H25237538   1.571   7.070   6.868  1.4240  0.9136  0.0197
  104MOL   H25337539   1.690   6.947   6.857 -0.9333  1.2317 -1.0644
  104MOL   C25437540   1.123   6.581   7.018  0.1881 -0.5204 -0.1879
  104MOL   C25537541   1.025   6.462   7.015 -0.2870 -0.2102  0.3404
  104MOL   C25637542   1.075   6.364   6.903 -0.3160 -0.8258  0.4646
  104MOL   O25737543   1.013   6.344   6.799 -0.0141  0.1055  0.5265
  104MOL   O25837544   1.195   6.303   6.933  0.4326 -0.3125  0.0219
  104MOL   C25937545   1.256   6.213   6.846  0.1023  0.7033  0.0418
  104MOL   C26037546   1.188   6.078   6.844 -0.0431  0.7026 -0.2520
  104MOL   C26137547   1.187   6.008   6.983 -0.1397  0.5852 -1.0572
  104MOL   H26237548   1.111   6.637   7.110  1.6209  1.5029 -1.2011
  104MOL   H26337549   1.223   6.539   7.022  0.2701 -0.3471 -0.3931
  104MOL   H26437550   0.930   6.491   6.971 -0.5341 -0.0895  0.9449
  104MOL   H26537551   1.264   6.259   6.747  2.2408  0.8196  0.2580
  104MOL   H26637552   1.358   6.199   6.879 -0.2175  0.0809  0.7877
  104MOL   H26737553   1.087   6.099   6.809 -0.9821  0.2589  2.0852
  104MOL   H26837554   1.226   6.016   6.763  0.9996  1.7678 -0.5797
  104MOL   H26937555   1.164   6.062   7.075 -0.0705 -2.7590  0.9870
  104MOL   H27037556   1.289   5.969   6.989  0.6060  2.4254 -1.4271
  104MOL   H27137557   1.120   5.924   6.996  1.5127 -0.1301  4.2142
  104MOL   C27237558   0.971   6.401   7.149 -0.6349  0.0906 -0.0991
  104MOL   C27337559   1.079   6.329   7.244  0.3429 -0.2501  0.3738
  104MOL   C27437560   1.157   6.443   7.316 -0.0146 -0.5960  0.3578
  104MOL   O27537561   1.104   6.501   7.414 -0.3149 -0.3856  0.3480
  104MOL   O27637562   1.281   6.471   7.271  0.2624  0.1668  0.5245
  104MOL   C27737563   1.362   6.580   7.325  0.5405 -0.2658 -0.2595
  104MOL   C27837564   1.473   6.628   7.226 -0.1537 -0.2445  0.1507
  104MOL   C27937565   1.571   6.522   7.176 -0.0369  1.0485 -0.2126
  104MOL   H28037566   0.907   6.321   7.110 -0.4781 -0.5312  0.9092
  104MOL   H28137567   0.905   6.467   7.205 -2.0432 -0.8607 -0.5853
  104MOL   H28237568   1.152   6.273   7.186  1.0820  1.0199  0.0780
  104MOL   H28337569   1.305   6.667   7.356  0.6083  0.4740 -2.1560
  104MOL   H28437570   1.418   6.547   7.413 -0.6122 -1.4919  0.0294
  104MOL   H28537571   1.415   6.665   7.142 -1.9760 -1.9315  0.6098
  104MOL   H28637572   1.542   6.702   7.267 -1.2754 -0.5120  2.6550
  104MOL   H28737573   1.650   6.558   7.110  0.8925  0.7238  0.7065
  104MOL   H28837574   1.513   6.446   7.125  0.4535 -0.6729  1.6986
  104MOL   H28937575   1.622   6.460   7.251 -1.4124 -0.6377 -0.6278
  104MOL   C29037576   1.022   6.221   7.344 -0.0261 -0.0419 -0.1097
  104MOL   C29137577   0.899   6.271   7.421  0.5234 -0.2187  0.5541
  104MOL   C29237578   0.767   6.233   7.348  0.7167 -0.0846 -0.2880
  104MOL   O29337579   0.753   6.141   7.273  0.0038  0.0167  0.4770
  104MOL   O29437580   0.664   6.315   7.378 -0.7423 -0.5996 -0.0586
  104MOL   C29537581   0.538   6.310   7.303  0.6714  0.3735 -0.4066
  104MOL   C29637582   0.440   6.217   7.367  0.1108 -0.5798  1.3946
  104MOL   C29737583   0.459   6.066   7.354 -0.3281 -0.1282  0.5948
  104MOL   H29837584   1.085   6.182   7.424 -0.4964 -1.3568 -0.3561
  104MOL   H29937585   1.007   6.132   7.283 -1.1325  0.3243 -0.3868
  104MOL   H30037586   0.899   6.380   7.427 -0.4109 -0.2305  0.9457
  104MOL   H30137587   0.505   6.414   7.305 -0.1203  0.0978  0.6939
  104MOL   H30237588   0.541   6.288   7.196 -0.5749 -1.0170 -0.1646
  104MOL   H30337589   0.418   6.243   7.471  0.1786  1.1318  1.0011
  104MOL   H30437590   0.344   6.247   7.324  0.1742 -0.9089  1.0231
  104MOL   H30537591   0.371   6.004   7.371  1.4940 -2.5563  1.4953
  104MOL   H30637592   0.545   6.037   7.414  0.9530  0.4182 -0.9443
  104MOL   H30737593   0.493   6.044   7.253  0.7084 -1.6392  1.2684
  104MOL   C30837594   0.877   6.216   7.567 -1.1247 -0.4150  0.3474
  104MOL   C30937595   0.996   6.248   7.659 -0.6508  0.1122  0.2675
  104MOL   C31037596   0.989   6.392   7.706 -0.0664  0.3169  0.0318
  104MOL   O31137597   0.886   6.460   7.696 -0.4921  0.4534  0.3859
  104MOL   O31237598   1.104   6.446   7.745 -0.4669 -0.8227 -0.6852
  104MOL   C31337599   1.107   6.572   7.805 -0.7397 -0.4120 -0.1487
  104MOL   C31437600   1.178   6.675   7.705 -0.4215  0.2674 -0.5377
  104MOL   C31537601   1.338   6.665   7.714  0.5614 -0.5726 -0.0906
  104MOL   H31637602   0.867   6.108   7.551 -2.1845 -0.0098 -1.8438
  104MOL   H31737603   0.784   6.253   7.612  0.4184  0.4247  2.9865
  104MOL   H31837604   1.094   6.243   7.611 -0.4610  1.6297  0.4571
  104MOL   H31937605   1.008   6.613   7.826 -1.1229 -1.8995  1.0083
  104MOL   H32037606   1.162   6.569   0.019  0.3322  1.5629 -0.6849
  104MOL   H32137607   1.134   6.655   7.607  0.0708  1.0118 -0.9182
  104MOL   H32237608   1.156   6.780   7.727 -0.2228  0.4199 -1.0362
  104MOL   H32337609   1.369   6.714   7.807 -0.4524 -0.1596  0.0422
  104MOL   H32437610   1.377   6.564   7.704  1.5008 -0.2183 -0.0288
  104MOL   H32537611   1.381   6.733   7.641 -0.3968  1.6707  1.3822
  104MOL   C32637612   0.991   6.160   7.788  0.1376 -0.1097 -0.1044
  104MOL   C32737613   1.054   6.025   7.764  0.2600 -0.1281 -0.4209
  104MOL   C32837614   1.201   6.037   7.723 -0.5120 -0.7419  0.6256
  104MOL   O32937615   1.284   6.041   7.813  0.4201 -0.2188  0.2379
  104MOL   O33037616   1.230   6.043   7.588  0.1414  0.5317  0.1439
  104MOL   C33137617   1.360   6.058   7.542 -0.2260 -0.0358  0.3119
  104MOL   C33237618   1.413   6.201   7.534  0.3549  0.2904  0.0225
  104MOL   C33337619   1.564   6.202   7.504  0.5626  0.5716 -0.4454
  104MOL   H33437620   0.884   6.146   7.804  0.4458 -1.9144  0.5907
  104MOL   H33537621   1.034   6.219   7.870  0.5251  0.5335 -0.7641
  104MOL   H33637622   0.997   5.982   7.682 -7.0275  2.7228  2.7855
  104MOL   H33737623   1.420   5.998   7.611  0.4402 -0.6442 -0.7818
  104MOL   H33837624   1.372   6.026   7.439 -0.8901  0.5419  0.0535
  104MOL   H33937625   1.351   6.255   7.462 -0.5433 -0.9161 -0.1228
  104MOL   H34037626   1.394   6.262   7.622 -1.0622  0.0908 -0.1242
  104MOL   H34137627   1.582   6.125   7.430 -0.8798  0.2967 -0.5359
  104MOL   H34237628   1.600   6.286   7.444  0.0877 -0.3821 -2.0822
  104MOL   H34337629   1.637   6.188   7.584  1.3138  2.1341 -0.8366
  104MOL   C34437630   1.040   5.925   0.004 -0.1879 -0.3777 -0.8241
  104MOL   C34537631   0.905   5.879   0.039  0.3128 -0.1013  0.3741
  104MOL   C34637632   0.839   5.802   7.807 -0.2829 -0.1498  0.4481
  104MOL   O34737633   0.789   5.853   7.708  0.0689  0.1075  0.5489
  104MOL   O34837634   0.855   5.667   7.829 -0.3157  0.3209  0.2775
  104MOL   C34937635   0.842   5.578   7.715  0.6417  0.6299  0.3219
  104MOL   C35037636   0.985   5.549   7.663 -0.2470 -1.2574 -0.1274
  104MOL   C35137637   1.052   5.675   7.592  0.0100 -1.0009 -0.0025
  104MOL   H35237638   1.080   5.972   0.094 -1.8366  0.9395 -0.7626
  104MOL   H35337639   1.100   5.836   7.868  2.7814  1.9065 -2.9661
  104MOL   H35437640   0.844   5.963   0.071 -0.4604 -1.5614  2.8461
  104MOL   H35537641   0.770   5.498   7.733  0.1649  1.1253  0.6561
  104MOL   H35637642   0.788   5.627   7.634 -1.3943 -0.7100  0.8245
  104MOL   H35737643   1.047   5.514   7.744  0.2903  0.4882  0.2459
  104MOL   H35837644   0.984   5.466   7.593 -1.0818 -0.7624 -0.7247
  104MOL   H35937645   1.070   5.748   7.671  1.4076 -2.3943  1.0133
  104MOL   H36037646   1.147   5.644   7.548  0.0159  0.6974 -1.1911
  104MOL   H36137647   0.983   5.714   7.518  0.7910  1.7379  0.6756
  104MOL   H36237648   0.920   5.809   0.121  0.1503 -0.3525  0.1902
  105MOL     C137649   3.135   5.733   1.486 -0.6450 -0.7013 -0.0087
  105MOL     C237650   3.270   5.672   1.433  0.2058 -0.3692  0.0622
  105MOL     C337651   3.381   5.730   1.518 -0.5094  0.0906  0.0554
  105MOL     O437652   3.379   5.741   1.639 -0.1069 -0.1485 -0.1774
  105MOL     O537653   3.485   5.771   1.441  0.0296 -0.4179  0.8173
  105MOL     C637654   3.596   5.839   1.511 -0.2006 -0.3334 -0.8870
  105MOL     C737655   3.721   5.860   1.424 -0.1103 -0.4448 -0.4562
  105MOL     C837656   3.693   5.894   1.277  0.5357 -0.6655  0.2740
  105MOL     H937657   3.061   5.695   1.416 -2.0024 -0.2807  1.1629
  105MOL    H1037658   3.102   5.688   1.580  0.5406 -2.1214 -0.2588
  105MOL    H1137659   3.292   5.711   1.334 -1.2645  0.7488  0.1478
  105MOL    H1237660   3.560   5.935   1.549 -0.1915 -0.9190  0.6150
  105MOL    H1337661   3.612   5.783   1.603  1.1751  0.3615 -0.6915
  105MOL    H1437662   3.780   5.942   1.466 -0.2149 -0.9511  0.6983
  105MOL    H1537663   3.786   5.773   1.434 -1.1897 -0.9708  2.4905
  105MOL    H1637664   3.632   5.982   1.257  2.2376  0.1093 -1.6989
  105MOL    H1737665   3.790   5.904   1.227 -0.2023  0.8100 -0.9041
  105MOL    H1837666   3.643   5.817   1.218  1.6900  0.5201 -2.3820
  105MOL    H1937667   3.128   5.841   1.486 -0.6067 -0.6741 -2.3961
  105MOL    C2037668   3.270   5.518   1.441  0.2395  0.0040  0.2725
  105MOL    C2137669   3.405   5.467   1.392 -0.5939  0.3460  0.0843
  105MOL    C2237670   3.420   5.320   1.439  0.0077 -0.0868  0.0755
  105MOL    O2337671   3.415   5.225   1.360 -0.0889  0.5444  0.4248
  105MOL    O2437672   3.430   5.311   1.573  0.1218 -0.4282  0.4946
  105MOL    C2537673   3.452   5.177   1.632  0.2266 -0.3830 -0.3962
  105MOL    C2637674   3.461   5.167   1.783 -0.7150 -0.4457 -0.7065
  105MOL    C2737675   3.453   5.025   1.829 -0.0059  0.7138  0.2856
  105MOL    H2837676   3.190   5.494   1.370 -0.5602 -0.1551  1.2182
  105MOL    H2937677   3.251   5.490   1.544 -1.3844  1.9382  0.5337
  105MOL    H3037678   3.479   5.522   1.450  2.4971  0.0255 -3.3734
  105MOL    H3137679   3.366   5.117   1.601 -0.1892 -0.2898  0.5708
  105MOL    H3237680   3.534   5.130   1.578 -0.0036  0.4165 -1.4741
  105MOL    H3337681   3.553   5.209   1.823 -0.7651  1.0607 -2.1054
  105MOL    H3437682   3.380   5.227   1.826  1.8877  1.2182  2.0443
  105MOL    H3537683   3.473   5.013   1.935 -1.8259 -1.8420  0.3980
  105MOL    H3637684   3.530   4.968   1.779 -0.2105  0.8887 -0.2340
  105MOL    H3737685   3.359   4.973   1.809  0.6232  0.0091 -0.8762
  105MOL    C3837686   3.446   5.486   1.240  0.2995 -0.7061  0.4011
  105MOL    C3937687   3.577   5.420   1.180  0.4916  0.7781  0.0248
  105MOL    C4037688   3.584   5.452   1.033  0.1672 -0.1089  0.3268
  105MOL    O4137689   3.557   5.367   0.944 -0.1303  0.3561  0.4954
  105MOL    O4237690   3.600   5.584   1.008 -0.0236 -0.2739 -0.3243
  105MOL    C4337691   3.623   5.630   0.876  0.1387  0.2647  0.0177
  105MOL    C4437692   3.660   5.781   0.887  0.0139  0.0700  0.3230
  105MOL    C4537693   3.533   5.861   0.907 -0.3313  0.2750 -0.2654
  105MOL    H4637694   3.452   5.593   1.218 -0.0141 -1.0600 -1.5595
  105MOL    H4737695   3.368   5.449   1.174  1.4607  2.4695 -2.9275
  105MOL    H4837696   3.569   5.311   1.182  0.5004  0.7969  2.3688
  105MOL    H4937697   3.716   5.580   0.852 -0.0344 -0.0905  0.0836
  105MOL    H5037698   3.548   5.611   0.799 -0.8054 -0.1415  1.0280
  105MOL    H5137699   3.729   5.806   0.968  2.2033  1.4681 -1.8963
  105MOL    H5237700   3.715   5.806   0.796 -1.7178 -0.1095 -0.7984
  105MOL    H5337701   3.479   5.857   0.813  1.1270  1.1936 -1.1700
  105MOL    H5437702   3.571   5.962   0.924 -1.4577  0.6517  0.0089
  105MOL    H5537703   3.477   5.827   0.994  0.2823 -1.5268 -0.5447
  105MOL    C5637704   3.696   5.473   1.261  1.0624 -0.0594 -0.3358
  105MOL    C5737705   3.835   5.430   1.211 -0.5936  0.4507 -0.1962
  105MOL    C5837706   3.942   5.528   1.255  0.2996  0.0555 -0.1815
  105MOL    O5937707   3.930   5.606   1.357  0.4086 -0.0833  0.2744
  105MOL    O6037708   4.047   5.518   1.179 -0.2895  0.4846  0.4944
  105MOL    C6137709   4.148   5.618   1.178 -0.3646  0.0652  0.5295
  105MOL    C6237710   4.136   5.708   1.055 -0.3675 -0.0171  0.3383
  105MOL    C6337711   4.010   5.794   1.045 -0.7096  0.0091 -0.8771
  105MOL    H6437712   3.680   5.481   1.368  1.5812  1.0150 -0.3300
  105MOL    H6537713   3.697   5.582   1.247 -0.5575  0.0284  0.1749
  105MOL    H6637714   3.835   5.443   1.103  1.9104 -1.6316 -0.4820
  105MOL    H6737715   4.146   5.677   1.269  1.3838  0.9530  0.0122
  105MOL    H6837716   4.245   5.567   1.179  0.1883  1.1014  0.7237
  105MOL    H6937717   4.218   5.778   1.067  1.7254 -2.1322 -1.1445
  105MOL    H7037718   4.159   5.648   0.967  2.8021  0.1453  0.9822
  105MOL    H7137719   4.015   5.872   1.121  1.9132 -0.3326 -0.6307
  105MOL    H7237720   3.924   5.730   1.062  0.1513 -1.2118 -1.0654
  105MOL    H7337721   4.003   5.855   0.955  1.9777  0.3987 -0.8834
  105MOL    C7437722   3.878   5.287   1.231  0.4470 -0.6064 -0.1624
  105MOL    C7537723   3.945   5.239   1.362 -0.1663 -0.3988  0.5838
  105MOL    C7637724   3.842   5.251   1.482  0.3582  0.5823 -0.3531
  105MOL    O7737725   3.779   5.157   1.536  0.0219  0.2114  0.2677
  105MOL    O7837726   3.833   5.375   1.528 -0.6312 -0.3436 -0.6220
  105MOL    C7937727   3.780   5.408   1.655 -0.4144  0.1200 -0.2263
  105MOL    C8037728   3.709   5.536   1.665  0.1185  0.3306 -0.6267
  105MOL    C8137729   3.645   5.538   1.803  0.2464  0.3847  0.6764
  105MOL    H8237730   3.943   5.260   1.147  0.3858  2.2755 -1.1997
  105MOL    H8337731   3.787   5.229   1.216  0.3981 -1.7133  3.8086
  105MOL    H8437732   4.029   5.306   1.380  0.8654 -1.6769  0.5980
  105MOL    H8537733   3.713   5.330   1.690  0.7719 -0.6502  0.3666
  105MOL    H8637734   3.867   5.405   1.721  0.4522 -0.0435 -1.3645
  105MOL    H8737735   3.774   5.623   1.653  0.2949  0.4163  0.8452
  105MOL    H8837736   3.635   5.550   1.586 -0.3325  0.3158 -0.2062
  105MOL    H8937737   3.576   5.455   1.811  0.1569  0.2057 -1.5338
  105MOL    H9037738   3.589   5.627   1.830 -1.0543 -0.7733  1.8216
  105MOL    H9137739   3.714   5.528   1.887  1.0281 -0.5854 -0.0712
  105MOL    C9237740   3.990   5.093   1.357  0.8461 -0.0352 -0.5281
  105MOL    C9337741   4.090   5.050   1.242  0.4398  0.6768 -0.1584
  105MOL    C9437742   4.182   5.164   1.201 -0.5858 -0.6576  0.1735
  105MOL    O9537743   4.184   5.199   1.085 -0.3589 -0.1968 -0.0640
  105MOL    O9637744   4.261   5.209   1.303  0.7182 -0.7537  0.0682
  105MOL    C9737745   4.350   5.307   1.279 -0.1720  0.5787  0.0882
  105MOL    C9837746   4.469   5.301   1.374 -0.3266 -0.5511 -1.1346
  105MOL    C9937747   4.538   5.164   1.389 -0.3510 -0.2188 -0.6006
  105MOL   H10037748   3.907   5.024   1.341  2.4149 -2.1571  0.2306
  105MOL   H10137749   4.028   5.062   1.455  1.5814 -0.8775 -1.0677
  105MOL   H10237750   4.034   5.038   1.149  0.2292  1.4085 -0.1291
  105MOL   H10337751   4.387   5.303   1.176 -1.6593  0.6985 -0.4686
  105MOL   H10437752   4.298   5.402   1.290  1.8247  1.6895  0.1913
  105MOL   H10537753   4.543   5.375   1.344  0.3899 -1.5549 -1.8948
  105MOL   H10637754   4.432   5.323   1.474  0.2059  1.5068 -1.3723
  105MOL   H10737755   4.580   5.131   1.293  1.4839 -1.7918  0.6893
  105MOL   H10837756   4.469   5.085   1.420 -0.1534  0.2638  1.0570
  105MOL   H10937757   4.616   5.164   1.465  0.0870  1.7478 -1.0251
  105MOL   C11037758   4.173   4.916   1.264  0.4120 -0.1899 -0.1547
  105MOL   C11137759   4.091   4.784   1.286 -0.1775  0.5403  0.3867
  105MOL   C11237760   4.042   4.729   1.151 -0.2728  0.4745  0.5141
  105MOL   O11337761   3.923   4.734   1.129  0.7665 -0.3454  0.4979
  105MOL   O11437762   4.134   4.681   1.068  0.7877 -0.6883 -0.5234
  105MOL   C11537763   4.091   4.623   0.945  0.0211  0.1021 -0.2358
  105MOL   C11637764   4.203   4.613   0.842 -0.9082 -0.8367 -0.1586
  105MOL   C11737765   4.252   4.759   0.807  0.0880  0.1053 -0.4728
  105MOL   H11837766   4.230   4.944   1.353  0.6850 -0.4873 -0.2370
  105MOL   H11937767   4.245   4.896   1.185  0.0899 -0.8442 -0.2924
  105MOL   H12037768   4.000   4.816   1.336  0.8249  2.8836  0.7887
  105MOL   H12137769   4.052   4.522   0.957 -1.7723  0.6047 -1.6026
  105MOL   H12237770   4.011   4.683   0.900  1.0896  1.8239  0.1117
  105MOL   H12337771   4.283   4.558   0.891 -0.8311  0.9245  1.7684
  105MOL   H12437772   4.173   4.561   0.751  0.1207 -0.4221 -0.7400
  105MOL   H12537773   4.175   4.810   0.750  0.1970  0.8933  0.0820
  105MOL   H12637774   4.334   4.760   0.735  1.9420 -0.0441  1.5616
  105MOL   H12737775   4.286   4.824   0.888  1.3057 -0.6162 -0.3824
  105MOL   C12837776   4.165   4.679   1.375  1.2050 -0.6735 -0.1068
  105MOL   C12937777   4.175   4.717   1.526 -0.8713  0.4361 -0.2242
  105MOL   C13037778   4.039   4.741   1.588  0.6526  0.0156  0.1223
  105MOL   O13137779   4.025   4.833   1.666  0.6217 -0.7321  0.0062
  105MOL   O13237780   3.942   4.657   1.546  0.1134  0.0143 -0.4773
  105MOL   C13337781   3.811   4.676   1.586  0.1385 -1.1240  0.4231
  105MOL   C13437782   3.743   4.795   1.522 -0.3288  0.1504  0.0569
  105MOL   C13537783   3.594   4.807   1.556  0.5686 -0.1950  0.1768
  105MOL   H13637784   4.263   4.673   1.326  1.1807  0.9577 -0.4081
  105MOL   H13737785   4.114   4.583   1.366 -0.2195 -0.0022  0.5905
  105MOL   H13837786   4.236   4.806   1.538  2.1681 -1.7270  1.0397
  105MOL   H13937787   3.758   4.585   1.557  2.7314 -1.9968 -1.7389
  105MOL   H14037788   3.818   4.672   1.695  1.5898 -0.4187  0.3688
  105MOL   H14137789   3.787   4.885   1.565 -1.4780  0.1764  1.2283
  105MOL   H14237790   3.760   4.814   1.416  1.2340 -2.1665 -0.1180
  105MOL   H14337791   3.549   4.897   1.515 -0.1922 -0.7966 -0.3268
  105MOL   H14437792   3.575   4.790   1.662  0.6654  2.1396  0.5841
  105MOL   H14537793   3.532   4.730   1.510  1.4815  0.8984 -3.0121
  105MOL   C14637794   4.244   4.598   1.610  0.4730 -0.5357  0.3082
  105MOL   C14737795   4.393   4.560   1.566  0.4735  0.2055 -0.5242
  105MOL   C14837796   4.473   4.682   1.521  0.7033 -0.6530 -0.5611
  105MOL   O14937797   4.470   4.793   1.576 -0.0415 -0.0209 -0.8540
  105MOL   O15037798   4.545   4.657   1.412  0.3702  0.4958 -0.5025
  105MOL   C15137799   4.621   4.754   1.354  0.5765  0.1024  0.3051
  105MOL   C15237800   4.535   4.838   1.260 -0.5979 -0.5274  0.3329
  105MOL   C15337801   4.490   4.757   1.139  0.0253 -0.3707 -0.4433
  105MOL   H15437802   4.178   4.511   1.605 -0.8693  0.5361 -1.1431
  105MOL   H15537803   4.248   4.632   1.713  2.1399 -0.7311  0.3227
  105MOL   H15637804   4.384   4.493   1.481 -0.9234  0.0285 -0.2612
  105MOL   H15737805   4.651   4.824   1.431 -0.0566  0.3508  0.3355
  105MOL   H15837806   4.713   4.702   1.329  0.1982 -0.6969  0.5401
  105MOL   H15937807   4.453   4.885   1.316 -0.1878 -0.6400  1.0410
  105MOL   H16037808   4.600   4.907   1.207  2.6868 -2.5251  1.6237
  105MOL   H16137809   4.562   4.680   1.110 -0.2752 -1.0486  0.5592
  105MOL   H16237810   4.480   4.836   1.065 -0.8819  1.5924  1.6930
  105MOL   H16337811   4.389   4.715   1.147  0.1928 -0.6501  0.2995
  105MOL   C16437812   4.464   4.481   1.686  0.0342 -0.0438  0.3439
  105MOL   C16537813   4.436   4.336   1.682 -1.0762 -0.2401 -0.2879
  105MOL   C16637814   4.541   4.260   1.602 -0.0522 -0.6124  0.0942
  105MOL   O16737815   4.649   4.315   1.572 -0.0580 -0.1784  0.8095
  105MOL   O16837816   4.504   4.135   1.571  0.3377 -0.4867 -0.2154
  105MOL   C16937817   4.595   4.067   1.491 -0.5921  0.4073 -0.0319
  105MOL   C17037818   4.554   3.919   1.491  0.4600 -0.1144  0.4554
  105MOL   C17137819   4.591   3.866   1.629  0.1964  0.3184  0.2577
  105MOL   H17237820   4.433   4.527   1.779  0.0195  1.6130 -0.4602
  105MOL   H17337821   4.571   4.503   1.689 -0.0027  0.2832 -0.6044
  105MOL   H17437822   4.340   4.326   1.631 -1.0173  1.0701 -0.6643
  105MOL   H17537823   4.586   4.110   1.391 -0.7098 -1.3441 -0.8010
  105MOL   H17637824   4.696   4.084   1.528 -0.7883  1.0253  0.2221
  105MOL   H17737825   4.447   3.899   1.488  0.4680 -0.2680  1.0737
  105MOL   H17837826   4.582   3.860   1.404 -1.0960  2.0279 -1.5233
  105MOL   H17937827   4.698   3.883   1.640  0.2630 -0.4310  0.8185
  105MOL   H18037828   4.567   3.760   1.636  1.0834  0.1675  1.2152
  105MOL   H18137829   4.538   3.915   1.711  0.8022  0.6457  0.4547
  105MOL   C18237830   4.420   4.276   1.829 -0.0876  0.0035  0.2975
  105MOL   C18337831   4.275   4.246   1.856  1.0048 -0.4827  0.0367
  105MOL   C18437832   4.231   4.116   1.788 -0.0433  0.0628  0.3603
  105MOL   O18537833   4.145   4.114   1.706  0.0075  0.5356  0.5028
  105MOL   O18637834   4.306   4.008   1.827  0.3178  0.1542  0.3451
  105MOL   C18737835   4.275   3.882   1.764 -0.3322  0.1876  0.2384
  105MOL   C18837836   4.336   3.768   1.846  0.0725 -0.2386 -0.0321
  105MOL   C18937837   4.263   3.637   1.820 -0.3971 -0.0098 -0.6143
  105MOL   H19037838   4.472   4.340   1.901 -0.1140  0.9039 -0.4776
  105MOL   H19137839   4.475   4.182   1.837 -1.3644 -0.9553 -1.8191
  105MOL   H19237840   4.215   4.323   1.808  2.3375  1.0243  0.7860
  105MOL   H19337841   4.167   3.884   1.745 -0.4368  1.9645  0.9107
  105MOL   H19437842   4.327   3.880   1.669 -0.4620 -0.4421  0.1740
  105MOL   H19537843   4.442   3.759   1.824 -0.1250  0.0118 -1.1239
  105MOL   H19637844   4.336   3.791   1.953  0.2918  0.4422 -0.1797
  105MOL   H19737845   4.202   3.610   1.907  0.6619 -0.8841 -0.1286
  105MOL   H19837846   4.344   3.565   1.824 -0.6648 -0.3479 -1.1255
  105MOL   H19937847   4.210   3.628   1.725 -0.5637  0.7491 -0.5954
  105MOL   C20037848   4.239   4.257   2.010 -0.7999 -0.1632 -0.7147
  105MOL   C20137849   4.088   4.281   2.045  0.0310  0.4679  0.8931
  105MOL   C20237850   4.032   4.415   1.985 -0.3292 -0.2843  0.3281
  105MOL   O20337851   3.934   4.414   1.914  0.1067 -0.4707 -0.2203
  105MOL   O20437852   4.095   4.526   2.027  0.0161  0.1081 -0.3057
  105MOL   C20537853   4.075   4.647   1.960 -0.4441  0.2500  0.2910
  105MOL   C20637854   4.039   4.760   2.056  0.3288  0.5001 -0.0121
  105MOL   C20737855   3.897   4.742   2.106 -0.1786  0.1026 -0.3328
  105MOL   H20837856   4.291   4.340   2.057  0.1131 -1.3673  0.4508
  105MOL   H20937857   4.270   4.163   2.057 -1.2571  0.5095  0.9412
  105MOL   H21037858   4.079   4.303   2.152 -0.5748 -0.0471  0.9566
  105MOL   H21137859   4.169   4.674   1.911 -0.9022  0.1620 -0.6538
  105MOL   H21237860   4.004   4.647   1.877 -0.6915  0.4197  0.4992
  105MOL   H21337861   4.111   4.764   2.138  1.7871 -1.9305 -1.1232
  105MOL   H21437862   4.048   4.853   1.999  2.1810 -0.6730 -1.6700
  105MOL   H21537863   3.824   4.734   2.025  1.2201 -0.4157 -1.5532
  105MOL   H21637864   3.863   4.826   2.167  0.0107  0.9157 -1.3374
  105MOL   H21737865   3.889   4.654   2.169  3.5597  0.3856  0.6045
  105MOL   C21837866   3.995   4.158   2.034 -0.0991 -0.1653  0.1189
  105MOL   C21937867   3.858   4.163   2.119 -0.7148 -0.2881  0.5879
  105MOL   C22037868   3.749   4.087   2.037  0.5038  0.2150 -0.8625
  105MOL   O22137869   3.653   4.144   1.980 -0.3722 -0.6374 -0.5758
  105MOL   O22237870   3.763   3.957   2.042  0.2724  0.1857 -0.5340
  105MOL   C22337871   3.679   3.873   1.963  0.4657  0.3405 -0.2188
  105MOL   C22437872   3.757   3.748   1.921  0.5038 -0.1741 -0.0790
  105MOL   C22537873   3.881   3.788   1.836  0.0991 -0.8339  0.3961
  105MOL   H22637874   4.059   4.083   2.080 -1.6629 -0.4056  1.9627
  105MOL   H22737875   3.972   4.140   1.929  0.8834  1.1224 -0.3272
  105MOL   H22837876   3.828   4.267   2.101 -1.9322 -0.7280  0.0136
  105MOL   H22937877   3.590   3.848   2.021  0.9514  0.3644  0.5463
  105MOL   H23037878   3.643   3.928   1.876  0.8854  0.7705 -0.1224
  105MOL   H23137879   3.790   3.682   2.002  3.8629  0.5923 -0.7395
  105MOL   H23237880   3.698   3.676   1.864 -1.9809  1.9373 -0.2514
  105MOL   H23337881   3.959   3.712   1.834 -0.6663 -1.6459  1.0149
  105MOL   H23437882   3.927   3.879   1.875 -0.2157 -0.5123  0.0204
  105MOL   H23537883   3.843   3.798   1.734 -2.2766 -0.9940  1.2242
  105MOL   C23637884   3.858   4.139   2.269  0.4800  0.3844 -0.8577
  105MOL   C23737885   3.729   4.197   2.342 -0.3378 -1.0064 -0.4031
  105MOL   C23837886   3.701   4.112   2.462  0.3059  0.4104  0.9923
  105MOL   O23937887   3.628   4.015   2.464 -0.0032 -0.1146  0.0408
  105MOL   O24037888   3.782   4.140   2.563  0.2308 -0.4773 -0.3157
  105MOL   C24137889   3.754   4.092   2.695  0.1057 -0.6116 -0.3506
  105MOL   C24237890   3.855   4.153   2.793 -0.2954 -0.0064 -0.2936
  105MOL   C24337891   4.000   4.105   2.768  0.7833  0.0151  0.1392
  105MOL   H24437892   3.947   4.181   2.316 -0.1108 -0.5346  1.1214
  105MOL   H24537893   3.863   4.031   2.287 -2.1878  0.3650 -0.0327
  105MOL   H24637894   3.646   4.189   2.271  1.0802 -0.4068 -2.1640
  105MOL   H24737895   3.651   4.127   2.705 -0.0827 -1.0140 -0.8572
  105MOL   H24837896   3.751   3.983   2.703 -1.1220 -0.5008  0.9271
  105MOL   H24937897   3.829   4.259   2.797 -1.7428 -0.3925  1.0939
  105MOL   H25037898   3.826   4.118   2.893  1.7860 -1.7621 -0.2710
  105MOL   H25137899   4.017   4.111   2.661  0.3689  0.1114  0.0791
  105MOL   H25237900   4.004   3.996   2.777 -1.1756 -0.2299 -1.6596
  105MOL   H25337901   4.086   4.155   2.813  1.8676 -0.5875 -1.2578
  105MOL   C25437902   3.727   4.349   2.354  0.3137 -0.5168 -0.0547
  105MOL   C25537903   3.621   4.410   2.439 -0.6476 -0.4737 -0.0343
  105MOL   C25637904   3.650   4.560   2.475  0.1861  0.0763 -0.4423
  105MOL   O25737905   3.697   4.585   2.587 -0.1964 -0.3050 -0.1535
  105MOL   O25837906   3.621   4.647   2.376  0.1744 -0.1115 -0.0996
  105MOL   C25937907   3.629   4.784   2.415  0.1737 -0.1597 -0.3502
  105MOL   C26037908   3.498   4.853   2.371  0.1618  0.3054  0.1347
  105MOL   C26137909   3.482   4.845   2.214  0.2746  0.0395 -0.0312
  105MOL   H26237910   3.710   4.395   2.256  1.2149  0.5338  0.2794
  105MOL   H26337911   3.823   4.369   2.402  0.6431  1.4187 -1.4516
  105MOL   H26437912   3.625   4.353   2.531  1.4530  1.4759  1.1102
  105MOL   H26537913   3.624   4.798   2.523 -1.5730  0.3027 -0.4767
  105MOL   H26637914   3.707   4.850   2.376  0.0711  0.2184  0.0826
  105MOL   H26737915   3.417   4.805   2.426 -0.3027  0.2214 -0.6100
  105MOL   H26837916   3.496   4.954   2.413 -2.4512 -0.1140  1.1203
  105MOL   H26937917   3.457   4.741   2.196  0.2692 -0.5433  3.2094
  105MOL   H27037918   3.574   4.853   2.155  0.8441  2.7918  1.1467
  105MOL   H27137919   3.405   4.913   2.177 -0.3703 -2.6046 -3.8627
  105MOL   C27237920   3.480   4.398   2.369 -0.1657 -0.3739  0.2161
  105MOL   C27337921   3.360   4.448   2.455 -0.0712  0.2654  0.2897
  105MOL   C27437922   3.244   4.492   2.366  0.4255  0.6529 -0.3120
  105MOL   O27537923   3.215   4.610   2.356  0.7837  0.5037  1.3545
  105MOL   O27637924   3.192   4.386   2.302  0.0914  0.8926 -1.0386
  105MOL   C27737925   3.091   4.402   2.207  0.2536 -0.0388  0.2651
  105MOL   C27837926   3.137   4.417   2.067 -0.5022  0.0119  0.3648
  105MOL   C27937927   3.223   4.301   2.016 -0.1969 -0.2596 -0.5349
  105MOL   H28037928   3.461   4.293   2.352  1.6597 -0.3919 -1.8347
  105MOL   H28137929   3.479   4.439   2.268  0.0527 -3.3096 -1.0250
  105MOL   H28237930   3.382   4.545   2.500 -1.1228  0.2599  0.8281
  105MOL   H28337931   3.025   4.316   2.213  0.0377  0.2172  1.6640
  105MOL   H28437932   3.026   4.487   2.230 -0.0316 -0.2760  0.3346
  105MOL   H28537933   3.056   4.420   1.994  1.4788  1.2052 -1.8281
  105MOL   H28637934   3.188   4.511   2.049  1.2531 -1.0833 -0.4864
  105MOL   H28737935   3.186   4.206   2.055 -1.7445  0.7470  0.4991
  105MOL   H28837936   3.327   4.310   2.049  0.2326 -0.6723 -1.7355
  105MOL   H28937937   3.220   4.300   1.907 -1.0952 -1.2628 -0.5028
  105MOL   C29037938   3.314   4.344   2.557  0.1838 -0.2537 -0.2691
  105MOL   C29137939   3.238   4.385   2.691 -0.5028  0.5249 -0.1342
  105MOL   C29237940   3.105   4.474   2.664 -0.0443  0.0899 -0.6371
  105MOL   O29337941   2.994   4.427   2.652 -0.4632  0.5349  0.4360
  105MOL   O29437942   3.125   4.602   2.656 -0.1011  0.0083 -0.0005
  105MOL   C29537943   3.028   4.699   2.629  0.1201 -0.0505 -0.0034
  105MOL   C29637944   3.087   4.845   2.637  0.3045 -0.3387  0.6271
  105MOL   C29737945   2.996   4.965   2.624  0.0322  0.5289 -0.4725
  105MOL   H29837946   3.406   4.300   2.596  0.2364 -1.0017 -1.2131
  105MOL   H29937947   3.259   4.270   2.499  2.0346 -2.6369  0.9263
  105MOL   H30037948   3.313   4.446   2.741 -0.3770  0.3225 -0.0767
  105MOL   H30137949   2.982   4.672   2.534 -0.3811  0.1657  0.1735
  105MOL   H30237950   2.962   4.684   2.715 -0.1609  1.5108  0.0559
  105MOL   H30337951   3.147   4.847   2.727  1.9865  1.1403 -0.4997
  105MOL   H30437952   3.157   4.846   2.553 -1.0618 -0.2900 -0.5355
  105MOL   H30537953   2.921   4.968   2.703  0.5542 -0.4888  0.0803
  105MOL   H30637954   2.941   4.956   2.531 -2.1496  2.7167  0.5350
  105MOL   H30737955   3.048   5.060   2.610 -1.2259  1.5945  1.7070
  105MOL   C30837956   3.204   4.263   2.779  0.5210 -0.0701  0.4380
  105MOL   C30937957   3.314   4.217   2.879 -0.4789 -0.0223 -0.1191
  105MOL   C31037958   3.344   4.327   2.978 -0.1524  0.2013 -0.2359
  105MOL   O31137959   3.263   4.405   3.025  0.1382 -0.0487  0.5547
  105MOL   O31237960   3.479   4.333   3.006  0.0364  0.1776 -0.0245
  105MOL   C31337961   3.508   4.414   3.123  0.3287  0.3083  0.4782
  105MOL   C31437962   3.663   4.428   3.126 -0.4747  0.2576 -0.0789
  105MOL   C31537963   3.722   4.501   2.997 -0.1533  0.3810 -0.3078
  105MOL   H31637964   3.184   4.185   2.706  0.3978  0.8135 -0.4767
  105MOL   H31737965   3.111   4.269   2.836  0.9241 -3.2481  1.5580
  105MOL   H31837966   3.408   4.202   2.826 -0.5597  1.8386 -0.8564
  105MOL   H31937967   3.455   4.509   3.131 -1.5106 -0.7345  1.1291
  105MOL   H32037968   3.469   4.357   3.208 -1.7040 -0.9454 -1.2303
  105MOL   H32137969   3.679   4.498   3.207  1.1721  1.4785 -1.4294
  105MOL   H32237970   3.714   4.335   3.150  1.4315  1.0328 -1.0387
  105MOL   H32337971   3.664   4.587   2.964 -1.2170 -0.8305 -1.6349
  105MOL   H32437972   3.817   4.548   3.025 -0.2055 -0.4597  1.3711
  105MOL   H32537973   3.737   4.427   2.919 -1.4106 -1.4501  1.1529
  105MOL   C32637974   3.274   4.089   2.955  0.1385 -0.0170  0.1742
  105MOL   C32737975   3.276   3.958   2.873 -0.2012  0.0827 -0.0543
  105MOL   C32837976   3.415   3.910   2.855  0.2884 -0.1699 -0.1086
  105MOL   O32937977   3.467   3.932   2.750  0.3925  0.1464  0.4860
  105MOL   O33037978   3.472   3.853   2.969  0.3162  0.3677 -0.1948
  105MOL   C33137979   3.606   3.809   2.962  0.4461 -0.5490 -0.7150
  105MOL   C33237980   3.657   3.772   3.099  0.1167  0.7876 -0.2031
  105MOL   C33337981   3.564   3.674   3.167 -0.1916 -0.0127  0.7571
  105MOL   H33437982   3.175   4.118   2.990 -0.8300 -1.6960 -1.0775
  105MOL   H33537983   3.323   4.072   3.051 -2.9483 -4.3324  1.1517
  105MOL   H33637984   3.234   3.988   2.777 -1.6025  0.3272  0.6252
  105MOL   H33737985   3.616   3.718   2.903  1.2411 -1.2923  0.5291
  105MOL   H33837986   3.671   3.884   2.917  1.1182 -1.1520 -0.7758
  105MOL   H33937987   3.755   3.723   3.101 -0.2441  0.0323 -0.6930
  105MOL   H34037988   3.660   3.868   3.150  1.6503  0.5409  0.2195
  105MOL   H34137989   3.468   3.717   3.195 -0.5331 -0.4099  0.2113
  105MOL   H34237990   3.536   3.585   3.111  1.4996 -0.2308  0.2231
  105MOL   H34337991   3.610   3.640   3.259  1.2189 -0.8794 -0.2524
  105MOL   C34437992   3.186   3.852   2.938  0.6264 -0.7150  0.1076
  105MOL   C34537993   3.164   3.725   2.859  0.2205 -0.6309  0.1386
  105MOL   C34637994   3.045   3.727   2.758 -0.3019 -0.1010 -0.2476
  105MOL   O34737995   2.956   3.645   2.779  0.7859 -0.0309  0.3083
  105MOL   O34837996   3.053   3.820   2.671 -0.3580  0.1101  0.4343
  105MOL   C34937997   2.941   3.839   2.580  0.3470 -0.1247  0.3679
  105MOL   C35037998   2.985   3.953   2.484  0.3011  0.2140  0.3156
  105MOL   C35137999   2.955   4.089   2.549 -0.6012 -0.2568 -0.3956
  105MOL   H35238000   3.090   3.899   2.963  1.0136 -0.8544  1.9402
  105MOL   H35338001   3.226   3.827   3.036  0.2292 -1.2777  0.1271
  105MOL   H35438002   3.155   3.647   2.935 -0.5070  0.1195  0.8411
  105MOL   H35538003   2.911   3.751   2.522  0.2667 -0.4757  0.9375
  105MOL   H35638004   2.854   3.870   2.637  1.8524  1.2005  1.9735
  105MOL   H35738005   3.093   3.963   2.468  0.1932  0.3773 -0.3212
  105MOL   H35838006   2.930   3.949   2.390  0.2997 -5.0021  0.3790
  105MOL   H35938007   3.002   4.172   2.497  0.8940 -0.7521  0.1231
  105MOL   H36038008   2.850   4.116   2.539 -0.1894  1.0720 -1.2937
  105MOL   H36138009   2.978   4.088   2.656  0.4062  1.6515 -0.5839
  105MOL   H36238010   3.252   3.701   2.800 -0.1598  1.4906 -1.3274
  106MOL     C138011   7.428   6.505   5.185 -0.6900 -0.2116  0.0181
  106MOL     C238012   7.331   6.618   5.222 -0.2078 -1.2317 -0.4422
  106MOL     C338013   7.224   6.569   5.320 -0.1873  0.3171 -0.2002
  106MOL     O438014   7.225   6.595   5.441  0.3332 -0.7487 -0.2141
  106MOL     O538015   7.145   6.474   5.263  0.4838 -0.0567 -0.9315
  106MOL     C638016   7.052   6.392   5.341  0.4737  0.6163  0.2478
  106MOL     C738017   6.937   6.474   5.399 -0.0893 -0.5109 -0.1510
  106MOL     C838018   6.820   6.381   5.435  0.7855 -0.1267  0.5110
  106MOL     H938019   7.372   6.420   5.147 -0.5762  0.1507 -1.0037
  106MOL    H1038020   7.504   6.531   5.110 -1.9390 -0.4142 -1.3348
  106MOL    H1138021   7.267   6.650   5.140  1.7414 -4.4518 -3.3379
  106MOL    H1238022   7.006   6.314   5.280 -2.8036  0.2710  2.9842
  106MOL    H1338023   7.108   6.345   5.422  0.0068  0.0302  0.2377
  106MOL    H1438024   6.955   6.555   5.470  1.9447  0.7014 -1.9704
  106MOL    H1538025   6.893   6.526   5.314 -3.3310  0.1711  1.8615
  106MOL    H1638026   6.730   6.432   5.467 -0.0637 -1.8664  0.9620
  106MOL    H1738027   6.780   6.324   5.352  1.0212 -0.8438  0.8798
  106MOL    H1838028   6.851   6.306   5.509  2.6337 -0.0604 -0.1639
  106MOL    H1938029   7.478   6.480   5.278 -0.0289  0.8180 -0.0394
  106MOL    C2038030   7.412   6.740   5.273  0.1178  1.1210 -0.4392
  106MOL    C2138031   7.352   6.871   5.222  0.0888 -0.6993  0.3222
  106MOL    C2238032   7.206   6.884   5.253 -0.2600  0.7892 -0.8395
  106MOL    O2338033   7.118   6.857   5.174  0.2369 -0.3916 -0.2064
  106MOL    O2438034   7.180   6.902   5.382  0.1846 -0.4957 -0.5935
  106MOL    C2538035   7.051   6.905   5.432  0.1988 -0.1877 -0.5294
  106MOL    C2638036   7.063   6.909   5.586 -0.2395  0.0269 -0.1026
  106MOL    C2738037   7.151   7.023   5.641 -0.2941  0.7924 -0.2324
  106MOL    H2838038   7.515   6.735   5.237 -0.5739  0.7512 -2.4383
  106MOL    H2938039   7.417   6.734   5.381 -1.3240  0.6107 -0.3969
  106MOL    H3038040   7.354   6.854   5.114 -0.2974 -0.6293  0.3041
  106MOL    H3138041   6.991   6.980   5.382 -1.4616 -0.8345  0.4526
  106MOL    H3238042   7.006   6.809   5.404 -0.0784  0.0245 -0.8128
  106MOL    H3338043   6.976   6.877   5.644  1.5276  0.2057  2.7339
  106MOL    H3438044   7.110   6.813   5.610  0.0284  0.1707 -0.0574
  106MOL    H3538045   7.158   7.024   5.749 -0.0281  0.9205 -0.2524
  106MOL    H3638046   7.113   7.116   5.599 -0.9769  0.9744  0.7747
  106MOL    H3738047   7.252   7.020   5.601  0.0544 -0.1757  0.6973
  106MOL    C3838048   7.449   6.988   5.262 -0.4602  0.2109 -0.3043
  106MOL    C3938049   7.417   7.111   5.183  0.0060 -0.3316  0.0206
  106MOL    C4038050   7.414   7.089   5.034 -0.0573  0.3299 -0.1291
  106MOL    O4138051   7.328   7.131   4.962  0.4365  0.5745 -0.3514
  106MOL    O4238052   7.524   7.011   4.994  0.3707  0.2660  0.1047
  106MOL    C4338053   7.528   6.942   4.865  0.2504 -0.6804 -0.0404
  106MOL    C4438054   7.557   6.803   4.907  0.3665 -0.2770 -0.6443
  106MOL    C4538055   7.689   6.780   4.983  0.3539 -0.5003 -0.3349
  106MOL    H4638056   7.556   6.968   5.259 -0.2270  1.4311 -0.3676
  106MOL    H4738057   7.435   7.016   5.366 -2.1636  1.6372 -0.8891
  106MOL    H4838058   7.500   7.179   5.205 -0.1972 -0.2713  0.6110
  106MOL    H4938059   7.433   6.943   4.813 -0.2574  1.5055  0.8439
  106MOL    H5038060   7.602   6.980   4.794 -2.0495 -1.1097 -2.7201
  106MOL    H5138061   7.471   6.756   4.952  0.7988  0.3410  0.8400
  106MOL    H5238062   7.579   6.743   4.818 -0.2217 -3.0756  1.0739
  106MOL    H5338063   7.711   6.674   4.973 -0.5959 -0.6977 -0.4316
  106MOL    H5438064   7.686   6.808   5.088 -0.7805 -0.7495 -0.2902
  106MOL    H5538065   7.760   6.841   4.928  1.4856 -0.9914  0.5669
  106MOL    C5638066   7.299   7.194   5.229 -0.4474  0.0338 -0.8216
  106MOL    C5738067   7.305   7.346   5.199 -0.0925  0.1842 -0.3843
  106MOL    C5838068   7.214   7.390   5.080  1.0966 -0.1001  0.0496
  106MOL    O5938069   7.252   7.443   4.977 -0.0861 -0.1634 -0.0930
  106MOL    O6038070   7.084   7.358   5.100  0.4436  0.7139 -0.1681
  106MOL    C6138071   6.990   7.347   4.997  0.2886  0.0554  0.1687
  106MOL    C6238072   6.912   7.212   5.005  0.7106 -0.4462  0.0014
  106MOL    C6338073   6.819   7.210   5.127  0.3247 -0.2188 -0.6186
  106MOL    H6438074   7.281   7.174   5.334 -0.3325 -0.9606 -0.9859
  106MOL    H6538075   7.206   7.148   5.195 -0.9138 -0.3813  0.9782
  106MOL    H6638076   7.401   7.364   5.152  1.0029 -0.4186  1.5783
  106MOL    H6738077   6.919   7.429   4.991 -0.3257 -0.5062 -0.2931
  106MOL    H6838078   7.046   7.340   4.904  0.2711 -0.0110  0.1636
  106MOL    H6938079   6.850   7.218   4.916  1.5486  1.1225 -0.5002
  106MOL    H7038080   6.974   7.122   5.007  3.2219  1.1822 -1.6423
  106MOL    H7138081   6.870   7.234   5.220 -1.4292 -0.6573  0.4962
  106MOL    H7238082   6.754   7.122   5.131 -0.7174  0.5472 -0.5195
  106MOL    H7338083   6.741   7.286   5.124  0.1081 -0.4307 -0.4309
  106MOL    C7438084   7.307   7.439   5.319  0.3784 -0.1662  0.2726
  106MOL    C7538085   7.404   7.399   5.439 -0.2477  0.8981  0.3461
  106MOL    C7638086   7.555   7.374   5.399 -0.2890 -0.0712  0.0171
  106MOL    O7738087   7.621   7.276   5.433 -0.5584  0.0492 -0.0242
  106MOL    O7838088   7.604   7.476   5.321  0.0709 -0.5644  0.2565
  106MOL    C7938089   7.741   7.478   5.281 -0.5304 -0.5474  0.2552
  106MOL    C8038090   7.821   7.548   5.389  0.5074 -0.0155  0.1478
  106MOL    C8138091   0.088   7.570   5.353  0.6588  0.2946 -0.0796
  106MOL    H8238092   7.206   7.447   5.359  0.5172 -0.6592  0.7316
  106MOL    H8338093   7.336   7.534   5.274 -0.2193  0.5918  1.4407
  106MOL    H8438094   7.360   7.307   5.479  0.8991 -0.7535 -2.0784
  106MOL    H8538095   7.785   7.388   5.236  0.6954 -0.7005  1.7201
  106MOL    H8638096   7.755   7.549   5.199 -0.0281 -2.0060 -0.9667
  106MOL    H8738097   7.778   7.646   5.410 -1.4612 -0.8328  0.1368
  106MOL    H8838098   7.823   7.484   5.478 -0.7005 -0.5636 -0.2048
  106MOL    H8938099   0.141   7.614   5.438 -0.0748  1.5669 -0.2657
  106MOL    H9038100   0.111   7.632   5.266  0.6068 -1.3541 -1.2841
  106MOL    H9138101   0.142   7.475   5.349 -0.9834 -0.5799 -2.1252
  106MOL    C9238102   7.387   7.501   5.563 -0.8370  0.3091 -0.0012
  106MOL    C9338103   7.450   7.466   5.693 -0.3188  0.0257  0.6232
  106MOL    C9438104   7.403   7.570   5.794 -0.1188  0.7026  0.3516
  106MOL    O9538105   7.316   7.549   5.875  0.0041  0.2629  0.3311
  106MOL    O9638106   7.475   7.686   5.775 -0.0744  0.4360  0.1067
  106MOL    C9738107   7.458   7.801   5.863  0.4740 -0.2035 -0.1589
  106MOL    C9838108   7.587   7.822   5.948  0.1487 -0.7175  0.0285
  106MOL    C9938109   7.614   7.714   6.052 -0.4043 -0.3903  0.0244
  106MOL   H10038110   7.279   7.516   5.566 -0.6960  1.2654  0.3109
  106MOL   H10138111   7.420   7.602   5.538 -1.5206  0.8209  1.1569
  106MOL   H10238112   7.558   7.479   5.686 -0.2648 -1.5145 -2.4765
  106MOL   H10338113   7.437   0.009   5.804  1.3152  0.3394  0.3417
  106MOL   H10438114   7.370   7.784   5.925  0.0846 -0.0264 -0.6623
  106MOL   H10538115   7.675   7.848   5.889  0.0748  1.3084  0.7730
  106MOL   H10638116   7.567   0.035   5.999 -0.9697 -0.6488 -0.5211
  106MOL   H10738117   7.711   7.729   6.099  0.6456 -0.8290 -1.9656
  106MOL   H10838118   7.620   7.618   6.001 -0.1271  0.5409 -1.7022
  106MOL   H10938119   7.528   7.706   6.120 -1.2911  1.1121 -0.8838
  106MOL   C11038120   7.426   7.324   5.737  0.7593  0.0461 -0.4568
  106MOL   C11138121   7.495   7.297   5.876 -0.9125  0.2222 -0.3129
  106MOL   C11238122   7.447   7.162   5.932 -0.0220  0.1912  0.7668
  106MOL   O11338123   7.375   7.148   6.030  0.4917  0.4127 -0.1237
  106MOL   O11438124   7.497   7.060   5.850  0.6654  0.3328 -0.3751
  106MOL   C11538125   7.476   6.920   5.876 -0.3071  0.3652  0.1801
  106MOL   C11638126   7.568   6.840   5.793  0.0512  0.4964 -0.5270
  106MOL   C11738127   7.543   6.846   5.644  0.2777  0.2885  0.2456
  106MOL   H11838128   7.480   7.251   5.677  1.0602 -1.4979  1.6076
  106MOL   H11938129   7.323   7.293   5.721  0.1688  1.8512 -0.3197
  106MOL   H12038130   7.460   7.370   5.949  0.6719  1.2348 -0.5361
  106MOL   H12138131   7.493   6.899   5.982  0.1147 -0.2984 -0.0152
  106MOL   H12238132   7.376   6.898   5.838  0.2083  0.8540 -1.5073
  106MOL   H12338133   7.673   6.865   5.812 -0.6230  1.5154  2.0997
  106MOL   H12438134   7.571   6.736   5.825 -2.9983  0.6219  0.3432
  106MOL   H12538135   7.607   6.772   5.595 -2.5802 -2.7731  0.9271
  106MOL   H12638136   7.560   6.948   5.610  1.1675  0.2943  0.6961
  106MOL   H12738137   7.435   6.834   5.632  0.1649  1.4056  0.0841
  106MOL   C12838138   7.646   7.311   5.892  0.1261  0.0279 -0.3941
  106MOL   C12938139   7.718   7.279   6.032  0.4291  0.6363 -0.1575
  106MOL   C13038140   7.871   7.301   6.025  0.0829 -0.0568 -0.1785
  106MOL   O13138141   0.043   7.340   5.919  0.1999 -0.2072 -0.8262
  106MOL   O13238142   0.061   7.261   6.128 -0.2177 -0.0792  0.2841
  106MOL   C13338143   0.195   7.307   6.127  0.4356  0.3501 -0.5968
  106MOL   C13438144   0.281   7.275   6.249 -0.3704 -0.1460  0.1246
  106MOL   C13538145   0.224   7.341   6.370  0.0478 -0.0783 -0.7542
  106MOL   H13638146   7.666   7.418   5.880 -1.4247  0.4678  0.8281
  106MOL   H13738147   7.702   7.253   5.819  0.8771  0.9596 -0.5713
  106MOL   H13838148   7.722   7.171   6.049  0.4191  0.4572 -1.2431
  106MOL   H13938149   0.252   7.282   6.037 -0.3347  1.0924 -1.3150
  106MOL   H14038150   0.182   7.415   6.137 -3.6638 -0.1978  0.9221
  106MOL   H14138151   0.276   7.168   6.266  0.6253 -0.1605  0.3330
  106MOL   H14238152   0.387   7.295   6.234 -0.5442 -0.0006 -0.9808
  106MOL   H14338153   0.266   7.297   6.460  0.3482  0.9402 -0.3909
  106MOL   H14438154   0.121   7.307   6.380  0.2507  0.1388  2.6149
  106MOL   H14538155   0.241   7.449   6.373  1.5693 -0.3398  0.6156
  106MOL   C14638156   7.660   7.359   6.148  0.2605 -0.2201 -0.2339
  106MOL   C14738157   7.680   7.294   6.298  0.1450 -0.3400 -0.2985
  106MOL   C14838158   7.656   7.399   6.409 -0.5297  0.2747 -0.8797
  106MOL   O14938159   7.591   7.500   6.394 -0.1469  0.3766 -0.5817
  106MOL   O15038160   7.726   7.372   6.511  0.7409 -0.4698  0.2142
  106MOL   C15138161   7.767   7.469   6.616  0.7940 -0.2793  0.3980
  106MOL   C15238162   7.692   7.414   6.736 -0.6022 -0.0645 -0.2269
  106MOL   C15338163   7.717   7.479   6.870 -0.2095  0.0598  0.5611
  106MOL   H15438164   7.555   7.384   6.134  0.0623  1.0464  3.0707
  106MOL   H15538165   7.706   7.458   6.152 -2.0277  0.8396  0.5338
  106MOL   H15638166   7.779   7.252   6.315 -1.2870 -2.3821  3.6339
  106MOL   H15738167   7.875   7.473   6.631  1.0481  1.5501 -1.6164
  106MOL   H15838168   7.727   7.566   6.587  1.4527 -0.3949 -0.9436
  106MOL   H15938169   7.587   7.425   6.707 -0.1283  0.7199 -1.6688
  106MOL   H16038170   7.695   7.305   6.747  0.0226 -0.2021 -1.7293
  106MOL   H16138171   7.661   7.431   6.950 -1.4458  0.9077  0.2197
  106MOL   H16238172   7.705   7.587   6.877 -2.5001 -0.1945  1.0393
  106MOL   H16338173   7.821   7.448   6.884  0.4109  2.2357  0.9328
  106MOL   C16438174   7.590   7.170   6.319  0.6625  0.1015  0.1146
  106MOL   C16538175   7.653   7.040   6.374  1.2152 -0.2763 -0.6721
  106MOL   C16638176   7.578   6.977   6.492 -0.2498 -0.5602  0.5865
  106MOL   O16738177   7.525   6.862   6.482  0.0035  0.6464 -0.6147
  106MOL   O16838178   7.583   7.052   6.597  0.6925 -0.0266 -0.7894
  106MOL   C16938179   7.516   7.010   6.717 -0.1155  0.2237  0.1633
  106MOL   C17038180   7.472   7.133   6.793  0.0523 -0.4928 -0.0951
  106MOL   C17138181   7.380   7.227   6.717 -0.2598  0.8139  0.3203
  106MOL   H17238182   7.547   7.140   6.223  0.5839 -0.5764  0.3538
  106MOL   H17338183   7.509   7.205   6.384  0.5723  0.1583 -0.0297
  106MOL   H17438184   7.747   7.082   6.411  0.4251  0.0954  0.9558
  106MOL   H17538185   7.426   6.950   6.701  0.5484 -0.8181  0.2903
  106MOL   H17638186   7.575   6.949   6.785 -0.6316 -2.1726 -1.4490
  106MOL   H17738187   7.411   7.089   6.871 -1.8775  0.2538 -1.1636
  106MOL   H17838188   7.550   7.190   6.845  1.0471 -1.2672 -0.7075
  106MOL   H17938189   7.330   7.294   6.786 -0.7256  0.6754  0.1177
  106MOL   H18038190   7.299   7.167   6.675  1.5494 -0.9774 -0.7165
  106MOL   H18138191   7.432   7.273   6.632 -0.3508 -1.3542 -0.9670
  106MOL   C18238192   7.681   6.936   6.269 -0.4953  0.1267  0.5044
  106MOL   C18338193   7.775   6.816   6.298  0.2484  0.1135 -0.3695
  106MOL   C18438194   7.744   6.700   6.198  0.5380  0.8587  0.4000
  106MOL   O18538195   7.669   6.713   6.102 -0.2333 -0.2570 -1.0661
  106MOL   O18638196   7.797   6.582   6.234  0.6560  0.2043 -0.7336
  106MOL   C18738197   7.807   6.473   6.145  0.3003 -0.2685 -0.1355
  106MOL   C18838198   0.051   6.387   6.169 -0.2067  0.2266 -0.3388
  106MOL   C18938199   0.071   6.265   6.077 -0.5967 -0.4547 -0.0340
  106MOL   H19038200   7.721   6.986   6.181  3.0530 -0.0121  1.9772
  106MOL   H19138201   7.584   6.900   6.234 -0.0582  0.1613 -0.7752
  106MOL   H19238202   7.742   6.772   6.392  0.5754 -1.3822 -0.9413
  106MOL   H19338203   7.714   6.415   6.145  1.9762 -3.0996 -1.4169
  106MOL   H19438204   7.806   6.507   6.042 -0.3308  0.8697  0.2357
  106MOL   H19538205   0.132   6.459   6.160 -1.2981  1.6571  1.0250
  106MOL   H19638206   0.060   6.356   6.273  0.8256 -0.9900 -0.7799
  106MOL   H19738207   0.055   6.289   5.972 -2.7800  1.2673  0.6560
  106MOL   H19838208   0.000   6.190   6.111 -0.1754  0.6095  3.3638
  106MOL   H19938209   0.177   6.241   6.087 -0.5357  0.3711  1.4194
  106MOL   C20038210   0.040   6.863   6.295  0.1497  0.0625 -0.4267
  106MOL   C20138211   0.141   6.766   6.367 -0.5013  0.1486 -0.3195
  106MOL   C20238212   0.284   6.801   6.317  0.3367  0.2095  0.3555
  106MOL   O20338213   0.319   6.917   6.305 -0.1511  0.2578  0.1794
  106MOL   O20438214   0.344   6.691   6.288  0.1642  0.2224  0.7582
  106MOL   C20538215   0.460   6.677   6.205 -0.7350  0.1333 -0.2207
  106MOL   C20638216   0.471   6.540   6.140  0.5427 -0.0694 -0.4508
  106MOL   C20738217   0.589   6.512   6.049  0.2973 -0.3596 -0.0343
  106MOL   H20838218   0.050   6.967   6.328  0.1843  0.2404 -0.9912
  106MOL   H20938219   0.076   6.867   6.192  1.0376 -2.9796 -0.2808
  106MOL   H21038220   0.118   6.663   6.339 -1.3279  0.3132 -0.2447
  106MOL   H21138221   0.463   6.747   6.120  0.6494  1.7749  1.1499
  106MOL   H21238222   0.552   6.690   6.262 -0.5229  1.2158 -0.7862
  106MOL   H21338223   0.488   6.466   6.218  1.4374  2.3872  1.7518
  106MOL   H21438224   0.379   6.507   6.092 -0.4222 -0.4465  1.5830
  106MOL   H21538225   0.575   6.412   6.009  0.7770 -0.2722 -0.4246
  106MOL   H21638226   0.682   6.519   6.105  0.3087  0.6774 -0.1633
  106MOL   H21738227   0.594   6.578   5.962 -1.4642  1.9569  1.5581
  106MOL   C21838228   0.133   6.769   6.522 -0.9794 -0.2199  0.1819
  106MOL   C21938229   0.194   6.647   6.596 -0.0688  0.6422 -0.0950
  106MOL   C22038230   0.249   6.685   6.742  0.4213 -0.4126 -0.0821
  106MOL   O22138231   0.161   6.710   6.825  0.2634 -0.4793  0.0795
  106MOL   O22238232   0.384   6.707   6.753 -0.2200 -0.3701  0.5648
  106MOL   C22338233   0.429   6.751   6.886 -0.9749 -0.4032  1.1587
  106MOL   C22438234   0.455   6.632   6.975 -0.3279 -0.3612  1.1176
  106MOL   C22538235   0.513   6.663   7.108  0.1989 -0.7425 -0.3541
  106MOL   H22638236   0.028   6.777   6.548 -1.1224 -1.0702 -0.1102
  106MOL   H22738237   0.174   6.860   6.566 -2.3717  0.0999  0.8331
  106MOL   H22838238   0.281   6.623   6.535  1.3379  1.5580  1.4963
  106MOL   H22938239   0.522   6.808   6.883 -2.9455  3.0266  2.2187
  106MOL   H23038240   0.354   6.810   6.939  1.4084  1.0077  3.1140
  106MOL   H23138241   0.360   6.580   6.987  0.5948 -1.7138  2.7404
  106MOL   H23238242   0.525   6.574   6.915  0.4454  1.9526 -0.2676
  106MOL   H23338243   0.425   6.682   7.170  0.4331 -2.0098  0.3804
  106MOL   H23438244   0.576   6.752   7.113  0.4953 -0.9497 -0.4378
  106MOL   H23538245   0.568   6.575   7.142 -1.3927 -1.3337  0.7522
  106MOL   C23638246   0.103   6.516   6.606  0.6316  0.4064  0.7682
  106MOL   C23738247   0.180   6.381   6.626  0.5456 -0.2530  0.2899
  106MOL   C23838248   0.302   6.370   6.525 -0.8150 -0.1096 -0.1210
  106MOL   O23938249   0.275   6.353   6.410 -0.2298 -0.4835 -0.2589
  106MOL   O24038250   0.427   6.378   6.581  0.6124  0.3311 -0.0538
  106MOL   C24138251   0.548   6.379   6.505 -0.0747  0.4689 -0.0161
  106MOL   C24238252   0.622   6.504   6.533 -0.4340  0.3897 -0.1089
  106MOL   C24338253   0.745   6.517   6.437  0.2691  0.8866  0.5462
  106MOL   H24438254   0.027   6.527   6.529  0.4831  0.5108  0.9280
  106MOL   H24538255   0.033   6.539   6.687 -0.3639  1.0918 -0.2685
  106MOL   H24638256   0.117   6.297   6.597 -1.1795  1.0968  0.0765
  106MOL   H24738257   0.598   6.291   6.546  0.3705  1.4946  1.6834
  106MOL   H24838258   0.539   6.352   6.400 -0.5734  1.3301 -0.1948
  106MOL   H24938259   0.557   6.589   6.514  0.8771  1.3803 -0.1317
  106MOL   H25038260   0.640   6.503   6.641  0.6117 -0.9092 -0.2811
  106MOL   H25138261   0.816   6.435   6.447  0.3965  1.2537  2.9583
  106MOL   H25238262   0.796   6.608   6.469  2.0328  0.3964 -0.7970
  106MOL   H25338263   0.723   6.532   6.332  1.7172 -0.1375  0.0850
  106MOL   C25438264   0.218   6.350   6.776 -0.0012 -0.1673  0.0556
  106MOL   C25538265   0.098   6.303   6.864 -1.0300 -0.0395  0.5068
  106MOL   C25638266   0.081   6.155   6.852  0.4719  0.3972  0.6213
  106MOL   O25738267   7.860   6.118   6.788  0.5010  0.5905  0.1766
  106MOL   O25838268   0.173   6.078   6.908  0.2899 -0.0908 -0.0951
  106MOL   C25938269   0.164   5.938   6.915 -0.1780 -0.0753  0.0735
  106MOL   C26038270   0.242   5.901   7.038  0.4379 -0.0270  0.1598
  106MOL   C26138271   0.398   5.902   7.015  0.4229  0.0380 -0.6470
  106MOL   H26238272   0.272   6.436   6.817 -0.3529  0.4859 -0.8201
  106MOL   H26338273   0.285   6.265   6.765  1.5561  0.9446  0.6972
  106MOL   H26438274   0.006   6.352   6.832 -2.3733 -1.9487  1.3790
  106MOL   H26538275   0.059   5.920   6.937 -0.7214 -0.1678 -2.4541
  106MOL   H26638276   0.187   5.881   6.824 -0.5355 -2.8268  1.6402
  106MOL   H26738277   0.217   5.960   7.126  1.2631  0.9889 -0.2850
  106MOL   H26838278   0.213   5.797   7.053 -1.0202  0.2921 -0.3592
  106MOL   H26938279   0.431   5.994   6.968  1.6025  0.5699  1.1671
  106MOL   H27038280   0.430   5.823   6.946 -1.2758 -1.1042 -0.1679
  106MOL   H27138281   0.443   5.878   7.112 -1.3157 -0.4732  0.0504
  106MOL   C27238282   0.120   6.338   7.014  0.3923 -1.4940 -0.0601
  106MOL   C27338283   0.072   6.480   7.056 -0.6755  0.5665  0.4155
  106MOL   C27438284   7.802   6.496   7.041 -0.3816  0.4642  0.4210
  106MOL   O27538285   7.729   6.476   7.140  0.1736 -0.2990 -0.3710
  106MOL   O27638286   7.766   6.509   6.915  0.4732 -0.0356 -0.5276
  106MOL   C27738287   7.631   6.519   6.879 -0.2277  0.0997  0.4781
  106MOL   C27838288   7.625   6.524   6.721  0.1038 -0.0097  0.2383
  106MOL   C27938289   7.674   6.654   6.659  0.1882  0.4380 -0.2919
  106MOL   H28038290   0.221   6.312   7.048  0.5715 -1.8681 -0.8608
  106MOL   H28138291   0.059   6.268   7.071 -0.0191 -0.9359  0.1892
  106MOL   H28238292   0.118   6.556   6.992 -0.2141  1.6333  1.9714
  106MOL   H28338293   7.564   6.438   6.907 -0.5855 -0.4917 -1.9661
  106MOL   H28438294   7.586   6.608   6.924  0.6077  1.3453 -1.1051
  106MOL   H28538295   7.685   6.439   6.688  0.0714 -0.3056  0.9277
  106MOL   H28638296   7.520   6.506   6.695 -0.4375  0.7685  1.8153
  106MOL   H28738297   7.603   6.731   6.688 -0.8357 -0.5621 -0.1241
  106MOL   H28838298   7.686   6.650   6.551 -0.0750 -0.0253 -0.3054
  106MOL   H28938299   7.772   6.688   6.694  0.2584  1.3316 -1.3334
  106MOL   C29038300   0.111   6.507   7.202  0.2066  1.6536  0.2915
  106MOL   C29138301   0.068   6.646   7.261 -0.0624 -0.0418 -0.2862
  106MOL   C29238302   0.088   6.628   7.411  0.4168 -0.0429  0.5147
  106MOL   O29338303   7.865   6.597   7.480  0.5388 -0.5497 -0.4091
  106MOL   O29438304   0.214   6.639   7.452  0.0199  0.0245  0.1176
  106MOL   C29538305   0.243   6.609   7.590  0.2845 -0.0021 -1.3995
  106MOL   C29638306   0.387   6.578   7.603 -0.4632 -0.4566  0.4179
  106MOL   C29738307   0.444   6.554   7.747 -0.1305  0.1767 -0.1133
  106MOL   H29838308   0.218   6.486   7.207  0.2389  0.7808 -2.9452
  106MOL   H29938309   0.075   6.430   7.270 -1.6454  0.8236 -1.5718
  106MOL   H30038310   7.846   6.672   7.235 -0.6665 -0.9470  1.1159
  106MOL   H30138311   0.242   6.704   7.642  1.1046 -0.0663 -1.2600
  106MOL   H30238312   0.172   6.542   7.638  1.5173 -0.6468 -0.4465
  106MOL   H30338313   0.399   6.489   7.542  0.2057 -0.4694  0.5606
  106MOL   H30438314   0.446   6.661   7.563 -1.0395  0.3064  1.1411
  106MOL   H30538315   0.438   6.647   7.805 -1.3834 -1.6536  2.8408
  106MOL   H30638316   0.549   6.527   7.743 -0.0491 -0.1398  2.9124
  106MOL   H30738317   0.396   6.476   7.807 -1.6192  0.0405 -1.4310
  106MOL   C30838318   0.156   6.766   7.208  0.4338  0.3502  0.4995
  106MOL   C30938319   0.075   6.901   7.213  0.0343  0.6858  0.7226
  106MOL   C31038320   7.869   6.921   7.090 -0.1066  0.4931  0.4284
  106MOL   O31138321   7.750   6.907   7.091 -0.9999  0.1193 -0.1878
  106MOL   O31238322   0.055   6.955   6.974 -0.1321 -0.1433  0.0249
  106MOL   C31338323   7.859   6.996   6.867  0.4602  0.2443  0.1535
  106MOL   C31438324   0.075   7.043   6.755  0.4612 -0.8390  0.7549
  106MOL   C31538325   0.114   7.192   6.766 -0.1182  0.3016 -0.6500
  106MOL   H31638326   0.198   6.742   7.110  1.7207 -0.3508  1.2080
  106MOL   H31738327   0.247   6.773   7.267 -0.6427  1.8324  2.0140
  106MOL   H31838328   0.143   6.985   7.225 -1.9720  2.0933  2.6007
  106MOL   H31938329   7.806   6.909   6.828 -0.6125  0.4788  1.0665
  106MOL   H32038330   7.790   7.076   6.891  0.7936 -0.3623  3.3241
  106MOL   H32138331   0.156   6.970   6.751  0.3901 -0.8618 -0.6306
  106MOL   H32238332   0.013   7.035   6.665 -0.5056 -0.2846  1.3661
  106MOL   H32338333   0.165   7.228   6.676  0.4345 -2.4639 -1.4798
  106MOL   H32438334   0.038   7.262   6.801 -1.3611 -1.4148  0.1448
  106MOL   H32538335   0.190   7.203   6.844  0.2009 -1.6157 -0.6716
  106MOL   C32638336   7.868   6.930   7.342  0.5127 -0.1169  0.0127
  106MOL   C32738337   7.806   7.073   7.356 -0.4066 -0.0420  0.2182
  106MOL   C32838338   7.727   7.085   7.490  0.5397 -0.4299  0.2086
  106MOL   O32938339   7.607   7.101   7.496  0.4799 -0.3457 -0.4440
  106MOL   O33038340   7.800   7.054   7.596 -0.5797  0.7381  0.6001
  106MOL   C33138341   7.748   7.081   7.727 -0.2485  0.0857  0.0513
  106MOL   C33238342   7.703   6.956   7.797 -0.3064  0.0267  0.0371
  106MOL   C33338343   7.642   6.973   0.055  0.4416 -0.3200 -0.1442
  106MOL   H33438344   0.044   6.888   7.425  1.0348  1.8790  0.6901
  106MOL   H33538345   7.778   6.869   7.333 -0.4283  1.3411 -0.7165
  106MOL   H33638346   7.730   7.081   7.278  0.1849 -0.1777 -0.3801
  106MOL   H33738347   7.824   7.121   7.794 -0.7825 -0.3167  0.9028
  106MOL   H33838348   7.673   7.161   7.732 -2.0287 -1.5580  0.2416
  106MOL   H33938349   7.637   6.897   7.733 -1.0291 -0.4113  1.1732
  106MOL   H34038350   7.790   6.891   7.804  0.5386  1.0735 -0.5604
  106MOL   H34138351   7.553   7.036   0.046  1.5762  1.0003 -2.9026
  106MOL   H34238352   7.630   6.876   0.102 -1.7319 -1.1402 -2.3157
  106MOL   H34338353   7.707   7.037   0.116 -1.9925  1.6479  0.4814
  106MOL   C34438354   0.022   7.196   7.343  0.3118  0.2896 -0.9486
  106MOL   C34538355   7.875   7.290   7.218 -0.3100  0.0332  0.7619
  106MOL   C34638356   0.101   7.395   7.190 -0.7169  0.1237  0.1663
  106MOL   O34738357   0.127   7.422   7.075 -0.0488  0.2154 -0.2883
  106MOL   O34838358   0.157   7.452   7.297 -0.4099  0.3126  0.3671
  106MOL   C34938359   0.247   7.560   7.269 -0.5198 -0.1796 -0.1523
  106MOL   C35038360   0.180   7.701   7.254 -0.2373  0.4593 -0.0535
  106MOL   C35138361   0.139   7.768   7.386  0.2066  0.0091 -0.1572
  106MOL   H35238362   0.122   7.152   7.339  0.6750  0.7083  2.2647
  106MOL   H35338363   0.027   7.260   7.431 -1.9498  0.3365 -0.8185
  106MOL   H35438364   7.776   7.336   7.211 -0.4696 -0.5942 -1.4115
  106MOL   H35538365   0.323   7.562   7.346 -1.5478 -1.9820  0.9538
  106MOL   H35638366   0.308   7.541   7.180  0.5663  1.3661  0.2424
  106MOL   H35738367   0.249   7.767   7.200  0.5914 -0.6686 -0.4070
  106MOL   H35838368   0.095   7.702   7.186 -0.0228 -1.3710 -0.3738
  106MOL   H35938369   0.219   7.797   7.454 -0.0360 -1.7435  0.9067
  106MOL   H36038370   0.077   7.856   7.366 -1.1042 -1.0174 -0.7420
  106MOL   H36138371   0.071   7.698   7.434  0.3200 -1.2705 -1.8223
  106MOL   H36238372   7.880   7.222   7.133  1.3472 -0.8163  1.5220
  107MOL     C138373   0.545   6.093   5.663  0.1067 -0.6010 -0.4683
  107MOL     C238374   0.398   6.088   5.701 -0.2362 -0.0360 -0.7114
  107MOL     C338375   0.377   5.979   5.812 -0.4697  0.0476  0.5947
  107MOL     O438376   0.293   5.890   5.797 -0.4027 -0.4669 -0.2919
  107MOL     O538377   0.445   6.005   5.915 -0.2734 -0.4500  0.2972
  107MOL     C638378   0.421   5.933   6.033 -0.9475  0.3419 -0.1692
  107MOL     C738379   0.502   6.007   6.146  0.2731  0.1359 -1.0784
  107MOL     C838380   0.459   6.154   6.164  0.6926 -0.2926 -0.4823
  107MOL     H938381   0.609   6.117   5.748  0.5494 -0.9930 -0.6889
  107MOL    H1038382   0.581   6.001   5.616 -0.5315 -1.7818  1.3098
  107MOL    H1138383   0.330   6.056   5.622  0.7797 -2.3443 -0.6878
  107MOL    H1238384   0.315   5.937   6.060 -0.9351  1.9266 -0.3328
  107MOL    H1338385   0.444   5.827   6.021  2.7087  1.3910 -3.1295
  107MOL    H1438386   0.496   5.952   6.240 -2.4978 -1.2838 -2.0460
  107MOL    H1538387   0.607   6.012   6.115  0.5195  1.2338 -0.1183
  107MOL    H1638388   0.526   6.211   6.228  0.5721 -0.0639 -0.5612
  107MOL    H1738389   0.464   6.202   6.067  1.1850 -0.2300 -0.4272
  107MOL    H1838390   0.355   6.162   6.193  0.6462  1.7453 -1.1568
  107MOL    H1938391   0.555   6.182   5.601 -0.4471 -0.2492 -0.0610
  107MOL    C2038392   0.354   6.226   5.759 -0.1929  0.1500 -0.2627
  107MOL    C2138393   0.302   6.324   5.653  0.4669  0.1801  0.8182
  107MOL    C2238394   0.192   6.268   5.562 -0.4209  0.2202 -1.1439
  107MOL    O2338395   0.214   6.245   5.443  0.4521  0.4159 -0.3001
  107MOL    O2438396   0.071   6.252   5.621 -0.1893  0.0665 -0.1938
  107MOL    C2538397   7.849   6.185   5.557  0.1359 -0.0127 -0.0829
  107MOL    C2638398   7.784   6.264   5.452 -0.0630 -0.0236 -0.5581
  107MOL    C2738399   7.676   6.189   5.382 -0.1075  0.3154 -0.0350
  107MOL    H2838400   0.438   6.276   5.806  0.6764  0.3305 -1.9508
  107MOL    H2938401   0.288   6.222   5.845 -2.7800 -1.3983 -2.2201
  107MOL    H3038402   0.375   6.361   5.581  0.0800 -1.5092 -0.4783
  107MOL    H3138403   7.875   6.089   5.513  1.4066  1.1355 -1.9194
  107MOL    H3238404   7.776   6.172   5.637 -0.2821 -0.6840 -0.5687
  107MOL    H3338405   7.767   6.358   5.504 -0.9245 -0.4270 -0.1068
  107MOL    H3438406   7.855   6.298   5.375 -0.4032  0.5725 -0.6119
  107MOL    H3538407   7.647   6.246   5.293 -0.0368  0.7575  0.2243
  107MOL    H3638408   7.593   6.160   5.446 -0.7631 -0.8378 -1.3713
  107MOL    H3738409   7.716   6.099   5.334 -3.5075 -1.6027  0.6235
  107MOL    C3838410   0.247   6.456   5.718  0.4101  0.0484  0.6021
  107MOL    C3938411   0.169   6.554   5.622 -0.6676 -0.4805  0.3764
  107MOL    C4038412   0.082   6.649   5.706 -0.5692  0.6500 -0.1172
  107MOL    O4138413   7.840   6.664   5.685  0.2914 -0.2435  0.2703
  107MOL    O4238414   0.149   6.717   5.802 -0.9544 -0.5148  0.3311
  107MOL    C4338415   0.074   6.795   5.888 -0.5116 -0.1911  0.0120
  107MOL    C4438416   0.063   6.936   5.827  0.5870 -0.0255 -0.3492
  107MOL    C4538417   0.200   6.999   5.791 -0.5160 -0.6707 -0.0245
  107MOL    H4638418   0.324   6.521   5.760  0.1262  0.7285  0.0825
  107MOL    H4738419   0.177   6.431   5.797  0.1410  0.9329  0.6453
  107MOL    H4838420   0.094   6.498   5.567 -1.6601 -1.3181  2.5284
  107MOL    H4938421   7.862   6.742   5.910  0.1511 -1.9367 -1.3396
  107MOL    H5038422   0.130   6.803   5.981  1.5729 -0.0678 -1.2069
  107MOL    H5138423   7.878   6.934   5.739 -0.4028  1.9741  0.3158
  107MOL    H5238424   0.031   6.986   5.918  0.1598  2.3280 -1.7633
  107MOL    H5338425   0.185   7.100   5.753  0.4351 -0.4109  0.2741
  107MOL    H5438426   0.259   6.950   5.713 -1.2705  1.1572 -1.8044
  107MOL    H5538427   0.270   7.003   5.875 -0.6953 -3.3555  0.2922
  107MOL    C5638428   0.268   6.631   5.526 -0.1255  0.4885 -0.2701
  107MOL    C5738429   0.226   6.623   5.372 -0.2627 -0.5171 -0.3447
  107MOL    C5838430   0.092   6.696   5.359  0.3804  0.1354 -0.0677
  107MOL    O5938431   7.866   6.639   5.359 -0.3237 -0.5023  0.2612
  107MOL    O6038432   0.110   6.835   5.362 -0.1974 -0.1473  0.4379
  107MOL    C6138433   7.880   6.929   5.345 -0.8417  0.1349  0.1246
  107MOL    C6238434   0.015   7.058   5.427  0.1992  0.1925 -0.0524
  107MOL    C6338435   0.127   7.148   5.384  0.0342  0.4230 -0.0235
  107MOL    H6438436   0.369   6.590   5.539  0.5170  1.4925 -1.8847
  107MOL    H6538437   0.262   6.736   5.554 -0.1628  0.4743 -0.2237
  107MOL    H6638438   0.215   6.518   5.346  0.0576 -0.4553 -0.7227
  107MOL    H6738439   0.006   6.964   5.242  0.4246 -0.2189  0.0624
  107MOL    H6838440   7.782   6.882   5.351 -0.6704 -0.0757  1.3299
  107MOL    H6938441   7.803   7.117   5.424  0.4681  0.6065 -0.1798
  107MOL    H7038442   0.041   7.024   5.527 -0.0555 -2.0571 -0.7256
  107MOL    H7138443   0.220   7.091   5.390  0.7866  1.5600 -0.7874
  107MOL    H7238444   0.139   7.235   5.448  0.0680 -0.4543  1.1901
  107MOL    H7338445   0.107   7.185   5.283 -0.6619 -0.9354 -0.3929
  107MOL    C7438446   0.332   6.683   5.285 -0.3204 -0.1311  0.3255
  107MOL    C7538447   0.316   6.685   5.129 -0.0077  0.0076 -0.6034
  107MOL    C7638448   0.425   6.769   5.066  0.3430 -1.2644 -0.8932
  107MOL    O7738449   0.526   6.805   5.129  0.4897 -0.7635 -0.4246
  107MOL    O7838450   0.399   6.808   4.933 -0.2478 -0.1634 -0.1786
  107MOL    C7938451   0.490   6.895   4.870 -0.1168 -0.6466  0.4810
  107MOL    C8038452   0.511   6.848   4.728  0.6379  0.0671 -0.4709
  107MOL    C8138453   0.642   6.905   4.661 -0.4534  0.0478  0.0772
  107MOL    H8238454   0.419   6.629   5.322 -0.3915 -1.0843 -0.8637
  107MOL    H8338455   0.349   6.786   5.317  1.9328 -0.1589 -0.7009
  107MOL    H8438456   0.219   6.728   5.107  0.5113  1.4607 -0.0927
  107MOL    H8538457   0.464   7.000   4.872  1.0118 -0.3470 -0.4553
  107MOL    H8638458   0.588   6.886   4.917 -0.4497 -1.1561  1.0988
  107MOL    H8738459   0.530   6.740   4.727  1.4149  0.1487  2.3603
  107MOL    H8838460   0.428   6.876   4.664  1.1136  0.5307 -0.8884
  107MOL    H8938461   0.641   7.013   4.643  0.0007 -0.2256 -1.6722
  107MOL    H9038462   0.663   6.864   4.563 -0.7795  1.9798 -0.8255
  107MOL    H9138463   0.736   6.877   4.708  0.4445  0.7147 -1.2943
  107MOL    C9238464   0.307   6.545   5.064 -0.0439  0.0332 -0.4184
  107MOL    C9338465   0.276   6.526   4.917 -0.5711  0.0652 -0.4102
  107MOL    C9438466   0.282   6.375   4.876 -0.2833 -0.1667  0.2228
  107MOL    O9538467   0.386   6.329   4.838 -0.4002  0.3181  0.2357
  107MOL    O9638468   0.167   6.310   4.915 -0.0443 -0.1043  0.1302
  107MOL    C9738469   0.161   6.167   4.915 -0.5884 -0.0607 -0.9363
  107MOL    C9838470   0.082   6.114   5.034  0.3261  0.0126 -0.4546
  107MOL    C9938471   0.150   6.144   5.173 -0.3655 -0.5605 -0.8265
  107MOL   H10038472   0.226   6.505   5.124 -0.2726  2.0728  0.6801
  107MOL   H10138473   0.392   6.480   5.086  1.9261  2.8148  0.6045
  107MOL   H10238474   0.354   6.579   4.862 -1.9495 -0.7795 -3.2889
  107MOL   H10338475   0.102   6.137   4.828  1.2930 -0.5409 -2.0977
  107MOL   H10438476   0.263   6.129   4.922 -0.4318  0.1848 -1.7368
  107MOL   H10538477   7.870   6.170   5.023 -0.7040 -0.8040  3.6010
  107MOL   H10638478   0.059   6.008   5.024  1.6374 -0.3176 -0.1201
  107MOL   H10738479   0.141   6.251   5.190  1.6024 -0.1013 -2.4856
  107MOL   H10838480   0.255   6.117   5.161 -0.2582 -1.5161  1.7241
  107MOL   H10938481   0.099   6.090   5.253 -0.8059  1.1503  0.0615
  107MOL   C11038482   0.144   6.594   4.880  0.5857 -0.5219 -0.7652
  107MOL   C11138483   0.095   6.580   4.736  0.2726  0.0936 -0.3023
  107MOL   C11238484   7.858   6.488   4.722 -0.2500 -0.0907  0.0600
  107MOL   O11338485   7.875   6.382   4.666  0.3005 -0.0908  0.4661
  107MOL   O11438486   7.742   6.534   4.773  0.0426  0.3528  0.1029
  107MOL   C11538487   7.631   6.446   4.758 -0.7008 -0.1407 -0.1309
  107MOL   C11638488   7.640   6.342   4.866  0.3027 -0.3581  0.2908
  107MOL   C11738489   7.511   6.262   4.892 -0.2774  0.1158 -0.6525
  107MOL   H11838490   0.151   6.701   4.904  0.9710 -0.7195  0.0023
  107MOL   H11938491   0.065   6.559   4.947  0.2429 -0.6859 -1.2526
  107MOL   H12038492   0.184   6.536   4.690  0.7549  0.6540  0.0944
  107MOL   H12138493   7.542   6.508   4.764 -0.8066 -0.2501 -0.5385
  107MOL   H12238494   7.620   6.401   4.659 -1.4685 -1.3268  0.4717
  107MOL   H12338495   7.717   6.268   4.841  1.0465  0.6822 -0.5467
  107MOL   H12438496   7.691   6.389   4.950  0.8468  0.0915 -0.2785
  107MOL   H12538497   7.522   6.190   4.973  0.1642 -0.4859 -1.2470
  107MOL   H12638498   7.469   6.204   4.810 -0.2799 -1.4119  0.4087
  107MOL   H12738499   7.437   6.336   4.923 -1.7018 -1.7624  0.5855
  107MOL   C12838500   0.070   6.722   4.680  0.0323  0.6859  0.9283
  107MOL   C12938501   0.051   6.748   4.523 -0.9758  0.2801  0.3879
  107MOL   C13038502   0.172   6.708   4.449  0.6919 -0.1037  1.1371
  107MOL   O13138503   0.192   6.594   4.410 -0.4413  0.0178  0.6518
  107MOL   O13238504   0.260   6.818   4.421 -0.0236 -0.3736 -0.2214
  107MOL   C13338505   0.394   6.800   4.367 -0.5844 -0.5521  0.2447
  107MOL   C13438506   0.441   6.934   4.302  0.0858  0.4354 -0.0364
  107MOL   C13538507   0.345   6.995   4.195  0.0360  0.5376 -0.3375
  107MOL   H13638508   0.160   6.773   4.715  2.7974 -2.3578 -1.4938
  107MOL   H13738509   7.868   6.766   4.736 -0.1361 -0.4855  1.6180
  107MOL   H13838510   0.045   6.857   4.515 -0.4572  0.3136  0.4308
  107MOL   H13938511   0.465   6.780   4.447  1.1867  0.6040 -0.9901
  107MOL   H14038512   0.396   6.719   4.293 -2.1156 -0.5453  0.1928
  107MOL   H14138513   0.451   7.008   4.382 -0.9927 -1.1348  1.5908
  107MOL   H14238514   0.540   6.916   4.260  1.1943  3.4363  1.1569
  107MOL   H14338515   0.358   6.931   4.108 -1.5073 -1.5883  0.9656
  107MOL   H14438516   0.369   7.098   4.166 -2.0067  0.9467 -0.6737
  107MOL   H14538517   0.242   6.984   4.229  0.6944  1.6532  2.1844
  107MOL   C14638518   7.800   6.701   4.456 -0.3210  0.0986  0.2055
  107MOL   C14738519   7.793   6.721   4.299  0.0349  0.6325 -0.0123
  107MOL   C14838520   7.668   6.654   4.240  0.0083  0.2893 -0.8559
  107MOL   O14938521   7.556   6.703   4.257  0.5820  0.0791  0.2893
  107MOL   O15038522   7.698   6.555   4.156 -0.9002 -0.0372  0.2579
  107MOL   C15138523   7.603   6.492   4.070  0.7086  0.4871 -0.5974
  107MOL   C15238524   7.675   6.376   3.998 -0.1022  0.1171 -0.3470
  107MOL   C15338525   7.569   6.277   3.935  0.0625 -0.9837  0.5838
  107MOL   H15438526   7.717   6.750   4.507  0.9160  1.1969  1.2088
  107MOL   H15538527   7.802   6.595   4.481 -0.7916 -0.1901 -0.9687
  107MOL   H15638528   0.005   6.682   4.255  1.0208  0.5103  2.0811
  107MOL   H15738529   7.527   6.455   4.140  0.2842 -0.0542 -1.3412
  107MOL   H15838530   7.553   6.569   4.011 -1.9137  0.9815  2.1389
  107MOL   H15938531   7.745   6.417   3.925  0.2585 -0.1550 -0.1547
  107MOL   H16038532   7.737   6.321   4.068  1.0746  0.4780 -1.0839
  107MOL   H16138533   7.608   6.194   3.875 -0.1346 -0.1212 -0.7640
  107MOL   H16238534   7.492   6.336   3.884  0.6331 -0.0665  0.7752
  107MOL   H16338535   7.532   6.233   4.027  0.4475 -1.1733  0.6480
  107MOL   C16438536   7.785   6.871   4.266 -0.5736 -0.6843 -0.1513
  107MOL   C16538537   7.775   6.904   4.119 -0.0217  0.1245 -0.0861
  107MOL   C16638538   7.761   7.059   4.090 -0.1442  0.1593  0.7093
  107MOL   O16738539   7.818   7.149   4.158 -0.7263  0.1364  0.5037
  107MOL   O16838540   7.669   7.084   4.002 -0.4237 -0.0347 -0.5506
  107MOL   C16938541   7.637   7.214   3.970  0.0918  0.7031 -0.3590
  107MOL   C17038542   7.494   7.230   3.925 -0.0419  0.3251 -0.1099
  107MOL   C17138543   7.450   7.154   3.799 -0.1997 -0.0007  0.1652
  107MOL   H17238544   7.866   6.927   4.313  1.0238 -1.3210 -2.0933
  107MOL   H17338545   7.702   6.911   4.324  1.1985 -2.3384  3.7691
  107MOL   H17438546   7.678   6.865   4.088 -0.1767  0.4159  0.0327
  107MOL   H17538547   7.652   7.278   4.057 -2.0611  1.1873 -0.3122
  107MOL   H17638548   7.709   7.241   3.893  0.2301 -0.9224 -0.8117
  107MOL   H17738549   7.434   7.210   4.014 -1.0188  2.3791 -0.2735
  107MOL   H17838550   7.478   7.337   3.909  1.2552  0.0360 -3.7262
  107MOL   H17938551   7.345   7.175   3.777 -0.6835  0.7772  3.0262
  107MOL   H18038552   7.460   7.045   3.805  0.5935  0.0824  0.3654
  107MOL   H18138553   7.509   7.176   3.710 -0.3676  0.1468  0.0899
  107MOL   C18238554   0.008   6.848   4.027  0.4940 -0.1033  0.1545
  107MOL   C18338555   7.855   6.840   3.877 -0.4842 -0.0097 -0.1156
  107MOL   C18438556   0.096   6.779   3.809 -0.0937  0.1713 -0.1169
  107MOL   O18538557   0.109   6.663   3.783  0.3151 -0.3832 -0.2503
  107MOL   O18638558   0.196   6.871   3.801 -0.3391 -0.2942  0.1403
  107MOL   C18738559   0.313   6.858   3.717  1.0019  0.0813 -0.7440
  107MOL   C18838560   0.309   6.986   3.636  0.0778  0.0692 -0.2184
  107MOL   C18938561   0.435   7.009   3.562 -0.0137 -0.6295  0.5904
  107MOL   H19038562   0.030   6.745   4.055  0.3542 -0.7422 -1.9916
  107MOL   H19138563   0.098   6.905   4.051  0.7335 -1.2799  2.1571
  107MOL   H19238564   7.847   6.942   3.840  0.9060 -0.0315 -0.5115
  107MOL   H19338565   0.401   6.838   3.777  1.7003  0.7324 -1.5440
  107MOL   H19438566   0.301   6.772   3.652  2.3295 -0.4109 -0.3413
  107MOL   H19538567   0.223   7.001   3.571 -0.0200 -2.4221 -0.7166
  107MOL   H19638568   0.312   7.061   3.715 -2.1893  1.7655 -1.6972
  107MOL   H19738569   0.524   6.974   3.613  1.4550  3.4486  1.0182
  107MOL   H19838570   0.448   7.115   3.540  3.1524 -0.6494  2.1044
  107MOL   H19938571   0.435   6.951   3.470  1.3131 -1.3372  1.0343
  107MOL   C20038572   7.724   6.768   3.835  0.3255 -0.0402 -0.3704
  107MOL   C20138573   7.699   6.768   3.686  0.2304 -0.3766 -0.0034
  107MOL   C20238574   7.574   6.678   3.658  0.0376 -0.0026 -0.4158
  107MOL   O20338575   7.593   6.563   3.624 -0.1144 -0.3701  0.6442
  107MOL   O20438576   7.454   6.738   3.667 -0.4942  0.6712 -0.2485
  107MOL   C20538577   7.340   6.665   3.701  0.1523 -0.6305  0.3863
  107MOL   C20638578   7.216   6.760   3.701 -0.4422 -1.0417 -0.5875
  107MOL   C20738579   7.130   6.734   3.577  0.4142 -0.8003 -0.1004
  107MOL   H20838580   7.640   6.821   3.881  0.5700 -0.8836  1.0854
  107MOL   H20938581   7.729   6.669   3.879  0.4296 -0.1417 -0.6133
  107MOL   H21038582   7.782   6.726   3.629 -0.4042 -0.0662 -1.1937
  107MOL   H21138583   7.326   6.591   3.622  3.0413 -1.6477  0.7588
  107MOL   H21238584   7.353   6.611   3.795  2.9945 -0.4635  0.1088
  107MOL   H21338585   7.154   6.730   3.786  2.6605  0.4791  2.3433
  107MOL   H21438586   7.242   6.866   3.699 -0.0779 -1.0776  1.1182
  107MOL   H21538587   7.109   6.628   3.562  0.4799 -0.9338  0.7466
  107MOL   H21638588   7.177   6.765   3.484 -1.3509 -0.8700 -1.0487
  107MOL   H21738589   7.039   6.793   3.591  0.9711 -0.3239  1.6326
  107MOL   C21838590   7.689   6.909   3.627 -0.4723 -0.4574 -0.3162
  107MOL   C21938591   7.812   6.961   3.544 -0.0280  0.7002  0.6665
  107MOL   C22038592   7.845   6.853   3.434 -0.2644 -0.3280 -0.1358
  107MOL   O22138593   7.756   6.835   3.348  0.2028 -0.0729 -0.2954
  107MOL   O22238594   0.085   6.798   3.441 -0.2531 -0.2125  0.3728
  107MOL   C22338595   0.126   6.704   3.338 -0.6026 -0.2290 -0.6557
  107MOL   C22438596   0.102   6.562   3.388  0.5254 -0.0365 -0.3964
  107MOL   C22538597   7.850   6.491   3.362  0.1664 -0.9693  0.6375
  107MOL   H22638598   7.658   6.979   3.705 -0.2236 -3.4617  2.5996
  107MOL   H22738599   7.610   6.914   3.552 -0.2060 -2.3582 -0.7369
  107MOL   H22838600   0.020   6.967   3.608  0.4219  0.1156  0.0974
  107MOL   H22938601   0.068   6.728   3.249 -2.1205 -0.2713  0.2986
  107MOL   H23038602   0.231   6.724   3.314 -1.1903 -1.1918 -4.2529
  107MOL   H23138603   0.176   6.507   3.330  1.7137  1.1726 -0.0479
  107MOL   H23238604   0.137   6.548   3.491  1.8880 -0.3964 -0.8993
  107MOL   H23338605   7.771   6.560   3.390 -0.8293 -1.7636 -0.1536
  107MOL   H23438606   7.837   6.408   3.431  2.1582 -2.1555 -0.3754
  107MOL   H23538607   7.841   6.466   3.256 -0.0682  0.6176  0.2714
  107MOL   C23638608   7.789   7.103   3.498  0.7572 -0.1634  0.4501
  107MOL   C23738609   0.027   7.164   3.423 -0.7818 -0.4758  0.3113
  107MOL   C23838610   7.874   7.195   3.273 -0.1325  0.2273 -0.5150
  107MOL   O23938611   0.069   7.156   3.182  0.1602 -1.5538  0.1532
  107MOL   O24038612   7.760   7.264   3.259  0.3170 -0.1716  0.3508
  107MOL   C24138613   7.725   7.308   3.129  0.1025 -0.5637 -0.2353
  107MOL   C24238614   7.672   7.194   3.045  0.2107  0.6096 -0.2798
  107MOL   C24338615   7.541   7.122   3.094  0.0659 -0.0032  0.3298
  107MOL   H24438616   7.766   7.147   3.595  2.1126 -2.9733  2.0889
  107MOL   H24538617   7.694   7.104   3.444  1.7045  0.3428 -1.2436
  107MOL   H24638618   0.105   7.089   3.433 -0.3414  0.0129  0.5515
  107MOL   H24738619   7.646   7.383   3.133  0.7533  0.0066  3.1648
  107MOL   H24838620   7.807   7.355   3.076 -0.0873  0.4564  0.3574
  107MOL   H24938621   7.651   7.234   2.946  2.7149  1.0110 -0.6805
  107MOL   H25038622   7.744   7.113   3.043 -0.6753 -0.1732 -1.5968
  107MOL   H25138623   7.479   7.205   3.125  0.2245  0.0315  0.5526
  107MOL   H25238624   7.563   7.079   3.191  1.9215  0.8017  0.2915
  107MOL   H25338625   7.496   7.063   3.014 -2.2103 -0.2195  1.7459
  107MOL   C25438626   0.079   7.289   3.494  0.0817 -0.0144  0.3173
  107MOL   C25538627   0.223   7.338   3.448 -0.3702 -0.3131  0.3082
  107MOL   C25638628   0.220   7.441   3.336 -0.2785  0.5710 -0.2116
  107MOL   O25738629   0.320   7.458   3.277  0.1884 -0.0952 -0.0608
  107MOL   O25838630   0.102   7.505   3.312  0.7572  0.3320 -0.0929
  107MOL   C25938631   0.096   7.624   3.241 -0.3019 -0.3370  0.2773
  107MOL   C26038632   7.832   7.683   3.246  0.7529  0.7790 -0.2419
  107MOL   C26138633   7.817   7.813   3.175  0.1988 -0.4373  0.2730
  107MOL   H26238634   0.095   7.252   3.595 -0.7449 -2.8875 -0.5513
  107MOL   H26338635   0.006   7.370   3.502 -0.2561 -0.1723 -1.0479
  107MOL   H26438636   0.277   7.250   3.414 -0.9063  0.2740 -2.1717
  107MOL   H26538637   0.162   7.698   3.288  1.4405  0.6829 -3.5535
  107MOL   H26638638   0.132   7.595   3.142 -2.4733 -2.4531  0.0724
  107MOL   H26738639   7.760   7.612   3.206  3.2951 -2.6891  1.1092
  107MOL   H26838640   7.800   7.706   3.348 -0.2180  1.2905 -0.6588
  107MOL   H26938641   7.714   7.850   3.176  0.6962  1.1582 -2.1069
  107MOL   H27038642   7.844   7.799   3.070 -2.5677 -3.5979 -0.1050
  107MOL   H27138643   0.008   0.003   3.219 -0.2318 -0.5480  1.1616
  107MOL   C27238644   0.311   7.392   3.566  0.1489 -0.5785 -0.0547
  107MOL   C27338645   0.249   7.499   3.654  0.6545 -0.0849  0.7860
  107MOL   C27438646   0.175   7.443   3.775  1.0732 -0.2102 -0.2471
  107MOL   O27538647   0.050   7.437   3.766 -0.5949  0.0484  0.0438
  107MOL   O27638648   0.246   7.405   3.873  0.0329  0.0878  0.5071
  107MOL   C27738649   0.181   7.365   3.999 -0.2247  0.1267 -0.5457
  107MOL   C27838650   0.285   7.375   4.115  1.1765 -0.0017  0.0313
  107MOL   C27938651   0.312   7.527   4.137  0.2682 -0.4485 -0.1094
  107MOL   H28038652   0.403   7.439   3.532 -0.4623 -0.3981 -1.4945
  107MOL   H28138653   0.343   7.310   3.630  0.6018  0.2256  0.7597
  107MOL   H28238654   0.177   7.549   3.590  0.9351  0.1111  0.6203
  107MOL   H28338655   0.090   7.419   4.027  0.1429  0.5732 -0.1948
  107MOL   H28438656   0.149   7.261   3.994 -1.0638  0.2728  1.3400
  107MOL   H28538657   0.247   7.329   4.206  0.3268  1.1965  0.3013
  107MOL   H28638658   0.373   7.322   4.078  1.0567 -1.6251  2.0165
  107MOL   H28738659   0.365   7.564   4.049 -0.7338  1.7501  0.1819
  107MOL   H28838660   0.372   7.547   4.226  0.6278  1.8017 -0.8395
  107MOL   H28938661   0.219   7.583   4.145  1.8012  2.1754 -0.0676
  107MOL   C29038662   0.337   7.626   3.688  0.2144 -0.3356 -0.2292
  107MOL   C29138663   0.278   7.748   3.755  0.0073 -1.0357  0.1878
  107MOL   C29238664   0.392   7.844   3.794 -0.0508 -0.0976 -0.1763
  107MOL   O29338665   0.416   0.002   3.909  0.5705  0.5124  0.1039
  107MOL   O29438666   0.464   0.001   3.687 -0.5185  0.4485  0.0750
  107MOL   C29538667   0.561   0.100   3.701  0.0061  0.6086  0.5581
  107MOL   C29638668   0.697   0.038   3.741 -0.2369  0.4085 -0.6216
  107MOL   C29738669   0.754   7.814   3.648  0.2032 -0.1134 -0.8712
  107MOL   H29838670   0.382   7.659   3.594  0.9714  0.8237  0.5282
  107MOL   H29938671   0.426   7.604   3.747 -0.0238  0.8393  0.5791
  107MOL   H30038672   0.247   7.733   3.859  0.0421  0.5142  0.4379
  107MOL   H30138673   0.575   0.148   3.604  1.8934 -2.8025 -0.9720
  107MOL   H30238674   0.534   0.186   3.762  0.6151 -0.4476  2.3447
  107MOL   H30338675   0.759   0.128   3.742 -1.2772  1.1482 -1.5406
  107MOL   H30438676   0.693   7.867   3.837  0.0363  0.7020 -0.4530
  107MOL   H30538677   0.713   7.715   3.671  0.1071  0.0214 -0.4563
  107MOL   H30638678   0.863   7.808   3.650  0.1345 -2.1348 -1.8345
  107MOL   H30738679   0.728   7.834   3.544 -1.3787 -1.1113 -0.6943
  107MOL   C30838680   0.169   7.821   3.670 -0.7787  0.8840 -0.3520
  107MOL   C30938681   0.056   7.877   3.762  0.2135  0.0619  0.1614
  107MOL   C31038682   7.872   0.121   3.700 -0.4455 -0.4783 -0.2582
  107MOL   O31138683   0.012   0.231   3.759 -0.1183 -0.6048  0.3062
  107MOL   O31238684   7.792   0.107   3.588 -0.2492  0.0977  0.5481
  107MOL   C31338685   7.720   0.216   3.539  0.1184 -0.4415  0.6536
  107MOL   C31438686   7.675   0.186   3.397 -0.1714 -0.2802 -0.1128
  107MOL   C31538687   7.565   0.081   3.394  0.3962  0.0394  0.1889
  107MOL   H31638688   0.129   7.755   3.594  0.9531  0.0130 -0.5284
  107MOL   H31738689   0.226   0.018   3.618  2.4338  0.5553  2.4962
  107MOL   H31838690   0.099   0.029   3.858 -1.5167  0.6301  0.7644
  107MOL   H31938691   7.636   0.237   3.604 -0.5287  1.3695 -0.7299
  107MOL   H32038692   7.771   0.313   3.539 -0.2993 -0.2184  1.7650
  107MOL   H32138693   7.647   0.272   3.336  0.3005 -0.7797 -1.0423
  107MOL   H32238694   7.767   0.150   3.351  2.7355  4.6476  1.4350
  107MOL   H32338695   7.508   0.089   3.486  2.4989  0.4898  1.4939
  107MOL   H32438696   7.496   0.098   3.311  1.5715 -0.2639 -0.8674
  107MOL   H32538697   7.593   7.858   3.412  3.5230  0.4579 -1.7540
  107MOL   C32638698   7.829   7.768   3.791  1.1649 -0.3462  0.0209
  107MOL   C32738699   7.704   7.808   3.860 -1.3076 -0.2398 -0.1891
  107MOL   C32838700   7.610   7.688   3.849 -0.9139 -0.7442  0.0986
  107MOL   O32938701   7.612   7.598   3.932 -0.6846  0.3238 -0.4058
  107MOL   O33038702   7.538   7.683   3.733  0.1978 -0.4108  0.1842
  107MOL   C33138703   7.449   7.576   3.698 -0.6451  0.1488  0.3005
  107MOL   C33238704   7.514   7.460   3.615 -0.2884 -0.4538  0.3520
  107MOL   C33338705   7.558   7.506   3.473  0.3148  0.0015  0.2801
  107MOL   H33438706   0.001   7.688   3.844  1.1900 -0.3543 -0.0154
  107MOL   H33538707   7.799   7.726   3.695  0.8885 -2.1367  0.8708
  107MOL   H33638708   7.658   0.020   3.825 -1.1120 -0.0098  0.1610
  107MOL   H33738709   7.400   7.548   3.791 -1.1241 -2.6181 -0.7402
  107MOL   H33838710   7.372   7.620   3.635 -0.7381 -0.9087 -0.3418
  107MOL   H33938711   7.611   7.427   3.652  1.0242  1.0851 -1.6418
  107MOL   H34038712   7.452   7.370   3.607 -1.5376  0.5903 -2.2284
  107MOL   H34138713   7.466   7.509   3.415  0.0907 -1.0452  0.5865
  107MOL   H34238714   7.604   7.605   3.471 -0.5225  0.3992  0.2045
  107MOL   H34338715   7.639   7.443   3.436  1.2605  1.0530  0.5308
  107MOL   C34438716   7.747   7.826   4.005 -0.1714 -0.5819  0.1817
  107MOL   C34538717   7.637   7.869   4.111  0.2608 -0.1103  0.3030
  107MOL   C34638718   7.630   0.128   4.160  0.4503 -0.0902  0.2099
  107MOL   O34738719   7.717   0.217   4.150 -0.1695 -0.1499 -0.3676
  107MOL   O34838720   7.512   0.149   4.223 -0.1313 -0.4827  0.2441
  107MOL   C34938721   7.469   0.281   4.256 -0.0093 -0.1870 -0.2911
  107MOL   C35038722   7.339   0.277   4.334  0.0259 -0.0398 -0.2906
  107MOL   C35138723   7.301   0.408   4.407  0.0582 -0.7026  0.3537
  107MOL   H35238724   7.819   0.027   4.009 -0.8051  0.0719 -1.3938
  107MOL   H35338725   7.807   7.742   4.039 -1.1426 -0.8723  1.2116
  107MOL   H35438726   7.638   7.799   4.195  2.4417 -0.5079 -0.0256
  107MOL   H35538727   7.551   0.324   4.313  0.4319 -1.6477  0.2019
  107MOL   H35638728   7.461   0.330   4.159  0.0316 -0.8309 -0.6278
  107MOL   H35738729   7.259   0.251   4.264  0.2656 -1.9143  0.1079
  107MOL   H35838730   7.335   0.191   4.402  1.8597  1.6890  2.0885
  107MOL   H35938731   7.373   0.426   4.487 -0.4820 -4.5554  1.8052
  107MOL   H36038732   7.309   0.494   4.340 -0.5656  1.1886  2.6458
  107MOL   H36138733   7.204   0.397   4.457 -0.2698 -0.9744 -0.3286
  107MOL   H36238734   7.540   7.841   4.068  0.5361 -0.2027 -0.2531
  108MOL     C138735   0.628   4.756   6.496  0.3476  0.0789 -0.9526
  108MOL     C238736   0.736   4.780   6.395  0.6863 -0.3772  0.1587
  108MOL     C338737   0.879   4.747   6.463 -0.2873  0.3120 -0.1464
  108MOL     O438738   0.894   4.658   6.556  0.1883  0.2998  0.2430
  108MOL     O538739   0.977   4.805   6.402  0.6052  0.4243 -0.1255
  108MOL     C638740   1.112   4.779   6.435 -0.9167  0.4596 -0.6092
  108MOL     C738741   1.197   4.870   6.349  0.4438  0.6892  0.1103
  108MOL     C838742   1.195   4.816   6.208 -0.1915 -0.6974 -0.0713
  108MOL     H938743   0.618   4.650   6.519  1.7474  0.2227  0.4408
  108MOL    H1038744   0.644   4.797   6.596 -3.4511  0.6065 -0.5084
  108MOL    H1138745   0.745   4.887   6.373  2.6710 -0.6322 -0.3423
  108MOL    H1238746   1.115   4.797   6.542 -0.3361  1.9239 -0.8698
  108MOL    H1338747   1.136   4.673   6.423 -1.6400  0.2272 -0.0532
  108MOL    H1438748   1.147   4.967   6.361  1.9268  1.5484 -0.4841
  108MOL    H1538749   1.297   4.871   6.392  0.5339 -2.2392  0.0397
  108MOL    H1638750   1.098   4.821   6.158 -0.5507 -1.2846  0.5506
  108MOL    H1738751   1.265   4.867   6.143 -0.8097  2.3210  1.5333
  108MOL    H1838752   1.210   4.709   6.221  2.1046 -0.4848 -0.8014
  108MOL    H1938753   0.535   4.796   6.455 -0.7510 -1.4019  0.0523
  108MOL    C2038754   0.710   4.711   6.266 -0.5516  0.4609  0.1693
  108MOL    C2138755   0.741   4.562   6.265  0.9412  1.1377 -0.4889
  108MOL    C2238756   0.631   4.468   6.319 -0.9482 -0.0917  0.2259
  108MOL    O2338757   0.515   4.512   6.322  1.2016 -0.2065  0.2604
  108MOL    O2438758   0.680   4.341   6.363 -0.2776  0.5509  0.6043
  108MOL    C2538759   0.588   4.245   6.411  0.4349  0.5545  1.0382
  108MOL    C2638760   0.668   4.147   6.489  0.0988 -0.1511 -0.0007
  108MOL    C2738761   0.735   4.193   6.620  0.4765 -0.9211 -0.1470
  108MOL    H2838762   0.774   4.756   6.190 -2.6577  3.4322  0.0780
  108MOL    H2938763   0.604   4.725   6.247 -1.1014 -1.1566  1.7911
  108MOL    H3038764   0.818   4.534   6.337 -0.1055 -0.3409  0.0916
  108MOL    H3138765   0.511   4.299   6.466  0.9113  0.9742  1.2900
  108MOL    H3238766   0.530   4.204   6.327  1.0579  0.7762  0.4955
  108MOL    H3338767   0.607   4.062   6.517  2.3014 -1.2350  1.6207
  108MOL    H3438768   0.738   4.105   6.416  0.0428 -1.0460  0.4631
  108MOL    H3538769   0.815   4.127   6.655 -1.2320 -2.0857  1.6833
  108MOL    H3638770   0.665   4.206   6.702 -2.7899 -1.2311 -2.7638
  108MOL    H3738771   0.777   4.292   6.607  0.7212 -0.7875  1.5083
  108MOL    C3838772   0.812   4.500   6.145  0.1692 -0.6788  0.7049
  108MOL    C3938773   0.720   4.444   6.031  0.7373  0.4078 -0.1906
  108MOL    C4038774   0.623   4.553   5.982 -0.6707  0.2369 -0.6371
  108MOL    O4138775   0.660   4.639   5.900  0.2128  0.0431  0.0720
  108MOL    O4238776   0.490   4.525   6.013 -0.6169  0.1357  0.1164
  108MOL    C4338777   0.384   4.602   5.970  0.7056 -0.5549  0.0987
  108MOL    C4438778   0.269   4.579   6.080  0.7527 -0.7383  0.0035
  108MOL    C4538779   0.224   4.439   6.109 -0.0417  0.9368  0.2658
  108MOL    H4638780   0.868   4.420   6.193 -0.7514 -0.6770  1.8028
  108MOL    H4738781   0.878   4.573   6.099 -2.9927  1.3961 -0.6835
  108MOL    H4838782   0.659   4.367   6.077  1.9505 -0.0235  0.7276
  108MOL    H4938783   0.416   4.706   5.959  1.8049 -0.9174 -0.1764
  108MOL    H5038784   0.350   4.560   5.875 -1.6422 -0.3372  0.7996
  108MOL    H5138785   0.295   4.623   6.176 -0.1611 -1.9343  0.8209
  108MOL    H5238786   0.178   4.626   6.041  2.3963 -0.1399 -3.2798
  108MOL    H5338787   0.302   4.382   6.160  0.2520 -0.7516 -1.9846
  108MOL    H5438788   0.218   4.375   6.020 -1.3689  0.7126  0.5057
  108MOL    H5538789   0.132   4.443   6.167 -1.0921  2.2814 -1.4294
  108MOL    C5638790   0.785   4.375   5.911  0.2687  0.4958 -0.1980
  108MOL    C5738791   0.843   4.240   5.945  0.1260  0.6094 -0.7386
  108MOL    C5838792   0.740   4.138   5.979  0.1155  0.0551 -1.2163
  108MOL    O5938793   0.735   4.082   6.089 -0.4719 -0.5528 -0.3207
  108MOL    O6038794   0.660   4.118   5.878 -0.1100 -0.3589 -0.6610
  108MOL    C6138795   0.562   4.018   5.885  0.4242 -0.4665  0.3286
  108MOL    C6238796   0.422   4.072   5.914  0.5577  0.1116  0.0281
  108MOL    C6338797   0.367   4.157   5.802 -0.4617 -0.1915  0.4442
  108MOL    H6438798   0.866   4.435   5.870  1.9432 -1.9400 -0.6035
  108MOL    H6538799   0.719   4.377   5.825 -1.9533  3.1978  1.4834
  108MOL    H6638800   0.901   4.243   6.038 -0.4564 -1.3201 -0.2938
  108MOL    H6738801   0.546   3.967   5.789 -2.1071  0.3201  0.3028
  108MOL    H6838802   0.582   3.947   5.965  1.3313  1.1271  1.5348
  108MOL    H6938803   0.349   4.000   5.950  1.1505 -0.0076  1.0163
  108MOL    H7038804   0.440   4.149   5.989  1.9900  1.2509 -1.4460
  108MOL    H7138805   0.370   4.115   5.701  1.3318  1.1815 -0.0954
  108MOL    H7238806   0.420   4.252   5.803  2.0235 -1.5509  2.7349
  108MOL    H7338807   0.264   4.188   5.820 -1.0418 -1.5137 -0.4660
  108MOL    C7438808   0.941   4.182   5.841  0.4131  0.9329 -0.0006
  108MOL    C7538809   1.037   4.067   5.888  0.8934 -0.0259  0.1098
  108MOL    C7638810   1.134   4.028   5.774  0.3327 -0.0413  0.7137
  108MOL    O7738811   1.133   4.072   5.657  0.5836  0.8177 -0.8664
  108MOL    O7838812   1.230   3.940   5.807  0.3749  0.6218 -0.4777
  108MOL    C7938813   1.302   3.863   5.708 -0.2672  0.2140  0.2751
  108MOL    C8038814   1.402   3.765   5.753 -0.8545  0.1144 -0.0116
  108MOL    C8138815   1.494   3.709   5.641 -0.2588  0.0354 -0.5435
  108MOL    H8238816   1.008   4.253   5.793 -0.4327  0.4602 -1.9166
  108MOL    H8338817   0.879   4.145   5.759  1.0306 -1.4105  0.5697
  108MOL    H8438818   0.984   3.975   5.911  0.4302  0.1820 -0.1083
  108MOL    H8538819   1.226   3.814   5.647  0.8518  0.5573 -1.4096
  108MOL    H8638820   1.349   3.934   5.640  0.8660 -1.1366 -0.3599
  108MOL    H8738821   1.467   3.807   5.830 -0.9731 -0.8705  0.6322
  108MOL    H8838822   1.352   3.682   5.802  0.4791 -0.4408  0.4401
  108MOL    H8938823   1.561   3.635   5.685  0.8017  1.3372  0.0662
  108MOL    H9038824   1.554   3.786   5.593  2.0172  0.1413  2.2974
  108MOL    H9138825   1.435   3.662   5.563  0.0567  1.6651 -1.7859
  108MOL    C9238826   1.109   4.103   6.019 -0.4208 -0.5234  0.2929
  108MOL    C9338827   1.194   4.229   5.997 -0.1392 -0.0870  0.4839
  108MOL    C9438828   1.157   4.336   6.089  0.1639  0.2354 -0.1459
  108MOL    O9538829   1.104   4.441   6.053  0.3927 -0.0987 -0.0458
  108MOL    O9638830   1.175   4.300   6.215 -0.4323 -0.5410  0.5394
  108MOL    C9738831   1.131   4.389   6.315  0.8674 -0.2708  0.3606
  108MOL    C9838832   1.039   4.321   6.420 -0.1463  0.5235 -0.7399
  108MOL    C9938833   1.094   4.191   6.485 -0.2991 -1.1167 -0.1705
  108MOL   H10038834   1.162   4.009   6.031 -0.6012 -0.8440 -1.3615
  108MOL   H10138835   1.051   4.102   6.111  0.0123  1.0311  0.6090
  108MOL   H10238836   1.175   4.275   5.900 -0.8361 -1.9938 -0.3151
  108MOL   H10338837   1.216   4.426   6.372  1.2806 -1.3323  0.4527
  108MOL   H10438838   1.072   4.475   6.285 -0.1767 -0.7725  0.9229
  108MOL   H10538839   1.036   4.390   6.505 -0.7012 -0.6325  0.2097
  108MOL   H10638840   0.939   4.293   6.385  1.2974 -2.7075 -2.4759
  108MOL   H10738841   1.019   4.152   6.555  0.7266 -3.0817 -0.1168
  108MOL   H10838842   1.181   4.217   6.546 -0.5228  1.6253 -0.9693
  108MOL   H10938843   1.126   4.118   6.411 -0.1415  0.3122 -1.5358
  108MOL   C11038844   1.342   4.191   6.019  0.3038 -0.3093  0.2789
  108MOL   C11138845   1.453   4.293   5.984 -0.2344 -0.0445 -0.3241
  108MOL   C11238846   1.429   4.347   5.837 -0.4484 -0.3111  1.0040
  108MOL   O11338847   1.409   4.469   5.820 -0.3697 -0.2129  0.3997
  108MOL   O11438848   1.411   4.254   5.739 -0.1561  0.2003 -0.3582
  108MOL   C11538849   1.382   4.302   5.617  0.1634  0.4595 -0.4193
  108MOL   C11638850   1.495   4.308   5.513  0.4652  0.4171  0.2845
  108MOL   C11738851   1.431   4.323   5.376 -0.0934 -0.3104  0.2049
  108MOL   H11838852   1.340   4.105   5.952  0.1277  1.2342 -1.7229
  108MOL   H11938853   1.364   4.149   6.117  0.7286  1.2410  0.8530
  108MOL   H12038854   1.538   4.224   5.975 -0.8209 -1.0761  1.7522
  108MOL   H12138855   1.316   4.221   5.585  1.3311  0.4118 -2.8430
  108MOL   H12238856   1.332   4.398   5.620 -1.3465 -0.3007 -0.4932
  108MOL   H12338857   1.561   4.393   5.530 -0.0820  1.1701 -1.3108
  108MOL   H12438858   1.564   4.224   5.519 -0.2981 -0.1765  0.9263
  108MOL   H12538859   1.501   4.346   5.296  1.3951 -0.9696  1.2716
  108MOL   H12638860   1.339   4.379   5.366 -0.8032 -1.9433 -2.8247
  108MOL   H12738861   1.385   4.225   5.365  0.9318 -0.8964  1.0345
  108MOL   C12838862   1.497   4.398   6.088  0.4438  0.2447  0.2800
  108MOL   C12938863   1.577   4.340   6.203 -0.6269  0.2983  0.4420
  108MOL   C13038864   1.727   4.350   6.158  0.6525  0.5519 -0.5314
  108MOL   O13138865   1.769   4.261   6.083  0.2479  0.1746  0.6226
  108MOL   O13238866   1.785   4.460   6.203  0.0519 -0.1465 -0.0052
  108MOL   C13338867   1.927   4.477   6.182 -0.0813 -0.5428 -0.3398
  108MOL   C13438868   1.972   4.605   6.251  0.4075  0.1611 -1.2223
  108MOL   C13538869   2.122   4.636   6.243  0.1671 -0.1034 -0.1808
  108MOL   H13638870   1.409   4.447   6.129 -1.0284 -2.0537 -0.0181
  108MOL   H13738871   1.551   4.472   6.029  1.7809 -0.1051  1.0488
  108MOL   H13838872   1.551   4.235   6.215 -1.5316  0.5952  1.1130
  108MOL   H13938873   1.980   4.384   6.199 -0.7952 -1.2015 -1.6825
  108MOL   H14038874   1.940   4.501   6.077  2.7129  3.0941  0.7428
  108MOL   H14138875   1.926   4.697   6.216  0.1104  0.3713 -0.3021
  108MOL   H14238876   1.955   4.578   6.355  0.3054 -2.3631 -1.8597
  108MOL   H14338877   2.171   4.664   6.149 -1.9413  0.7576 -1.0445
  108MOL   H14438878   2.185   4.554   6.277 -0.9326 -1.3601 -1.1133
  108MOL   H14538879   2.150   4.716   6.312 -0.5603 -0.7588  0.8800
  108MOL   C14638880   1.551   4.404   6.342  0.0212 -0.0504 -0.1214
  108MOL   C14738881   1.599   4.323   6.463 -0.4172 -0.0572 -0.6943
  108MOL   C14838882   1.638   4.421   6.577 -1.0290  0.0839 -0.2061
  108MOL   O14938883   1.569   4.443   6.681 -0.1805  0.2968  0.1199
  108MOL   O15038884   1.756   4.474   6.555  0.3976 -0.6934 -0.1414
  108MOL   C15138885   1.803   4.572   6.645 -0.8254  0.2903  0.0707
  108MOL   C15238886   1.720   4.707   6.641 -0.1286 -0.5269 -0.1958
  108MOL   C15338887   1.714   4.777   6.509 -0.1248  0.5491 -0.2185
  108MOL   H15438888   1.443   4.407   6.354  0.1128 -1.9436  1.3516
  108MOL   H15538889   1.588   4.506   6.330  2.1162 -0.7666  0.0505
  108MOL   H15638890   1.690   4.265   6.447  0.5057  0.0365  3.6769
  108MOL   H15738891   1.798   4.536   6.748 -0.1902 -1.7093 -0.5807
  108MOL   H15838892   1.907   4.592   6.618 -1.5126  1.8685 -1.5076
  108MOL   H15938893   1.616   4.691   6.671 -0.5596  0.3277 -1.2060
  108MOL   H16038894   1.761   4.773   6.718 -1.9016 -1.3834  1.5432
  108MOL   H16138895   1.672   4.711   6.433  0.8649 -0.0608 -0.2410
  108MOL   H16238896   1.812   4.818   6.484 -0.7972  2.6301  0.4306
  108MOL   H16338897   1.658   4.870   6.516 -0.8138  0.2999 -2.0873
  108MOL   C16438898   1.503   4.208   6.511 -0.2719 -0.0104  0.1724
  108MOL   C16538899   1.569   4.084   6.584  0.4901  0.0546  0.1872
  108MOL   C16638900   1.671   4.015   6.490 -0.3468 -0.2314  0.2996
  108MOL   O16738901   1.790   4.017   6.511 -1.0561  0.4398 -0.0977
  108MOL   O16838902   1.622   3.970   6.377 -0.3562 -0.0150 -0.4730
  108MOL   C16938903   1.709   3.922   6.273  0.0645  0.2846 -0.1609
  108MOL   C17038904   1.621   3.830   6.182 -0.3182 -0.2823  0.3503
  108MOL   C17138905   1.489   3.883   6.132  0.3026 -0.1997 -0.1191
  108MOL   H17238906   1.445   4.177   6.425 -2.5420  2.7093  0.6633
  108MOL   H17338907   1.428   4.236   6.585  0.7980 -2.5826  2.3625
  108MOL   H17438908   1.497   4.002   6.583  3.2001 -2.4585 -3.3865
  108MOL   H17538909   1.743   4.012   6.223 -1.0480  0.4531 -0.6313
  108MOL   H17638910   1.789   3.861   6.315  1.1992  0.8289 -1.5268
  108MOL   H17738911   1.680   3.791   6.099  0.6666 -0.6503  1.2134
  108MOL   H17838912   1.594   3.746   6.247 -0.0521 -1.3044 -0.8234
  108MOL   H17938913   1.449   3.814   6.057 -0.0696 -2.2597  1.9335
  108MOL   H18038914   1.511   3.980   6.086  1.8956 -0.4025  0.1982
  108MOL   H18138915   1.409   3.894   6.205  0.9765 -0.6536  0.6888
  108MOL   C18238916   1.638   4.116   6.723 -0.1621 -1.0013  0.5415
  108MOL   C18338917   1.544   4.146   6.845 -0.4402  0.1039  0.1599
  108MOL   C18438918   1.451   4.028   6.862  0.1513  0.5566  0.4377
  108MOL   O18538919   1.328   4.044   6.858  0.1828 -0.5199 -0.7916
  108MOL   O18638920   1.514   3.906   6.882  0.5205 -0.0777 -0.8758
  108MOL   C18738921   1.435   3.785   6.890 -0.2201 -0.0464 -0.0255
  108MOL   C18838922   1.454   3.706   6.759 -0.5598  0.1445  0.5195
  108MOL   C18938923   1.596   3.664   6.726  0.1221  0.3037 -0.3664
  108MOL   H19038924   1.712   4.193   6.702 -2.6215  0.9927 -1.0592
  108MOL   H19138925   1.700   4.029   6.747  1.2098 -0.5802 -1.3368
  108MOL   H19238926   1.496   4.241   6.825  0.3302  0.0171 -2.3557
  108MOL   H19338927   1.463   3.727   6.978  0.0493  0.3579  0.1594
  108MOL   H19438928   1.336   3.815   6.925  0.6559  2.2957  0.5810
  108MOL   H19538929   1.389   3.620   6.775  0.3864 -0.5998  0.4599
  108MOL   H19638930   1.416   3.765   6.676  0.9627  0.2431 -0.1246
  108MOL   H19738931   1.657   3.753   6.710 -0.8725  1.4831  2.1324
  108MOL   H19838932   1.605   3.618   6.628 -1.2892  1.0538 -0.8615
  108MOL   H19938933   1.637   3.603   6.807  1.3896  0.4964 -0.8428
  108MOL   C20038934   1.622   4.157   6.978 -0.1132 -0.2370 -0.0057
  108MOL   C20138935   1.700   4.291   6.980  0.5651  0.9493 -0.2478
  108MOL   C20238936   1.608   4.413   7.014  0.1637  0.1959 -0.3658
  108MOL   O20338937   1.490   4.397   7.047 -0.5540  0.3369 -0.8428
  108MOL   O20438938   1.676   4.529   7.014  0.8663  0.2855 -0.7644
  108MOL   C20538939   1.602   4.647   7.046 -0.1957  0.3117 -0.3646
  108MOL   C20638940   1.708   4.760   7.073  0.5555 -0.2116  0.3554
  108MOL   C20738941   1.642   4.891   7.110  0.1261  0.0466  0.0171
  108MOL   H20838942   1.686   4.069   6.983 -0.3430 -0.3549  1.2201
  108MOL   H20938943   1.552   4.149   7.062  0.8652  3.3953  1.2775
  108MOL   H21038944   1.746   4.313   6.884 -0.2525  1.7214 -0.4660
  108MOL   H21138945   1.527   4.684   6.977 -0.8760  1.0728  0.7649
  108MOL   H21238946   1.554   4.628   7.143 -2.6218 -0.1377 -1.6131
  108MOL   H21338947   1.781   4.729   7.148  0.2575  2.7328  1.8993
  108MOL   H21438948   1.758   4.773   6.977 -0.1869 -2.0207 -0.3150
  108MOL   H21538949   1.694   4.934   7.195 -0.2482  4.7217 -1.9842
  108MOL   H21638950   1.541   4.869   7.146  1.1303 -2.6710  1.2811
  108MOL   H21738951   1.634   4.960   7.026 -1.3003  1.6846  1.4691
  108MOL   C21838952   1.813   4.284   7.088 -0.4001  0.0432 -0.1330
  108MOL   C21938953   1.954   4.310   7.038 -0.0739  0.1819 -0.2177
  108MOL   C22038954   1.991   4.211   6.927 -0.1829  0.9134  0.1745
  108MOL   O22138955   1.990   4.090   6.957 -0.0045  0.0278  0.3961
  108MOL   O22238956   2.019   4.273   6.810  0.2947 -0.0998 -0.2338
  108MOL   C22338957   2.034   4.189   6.692  0.0503 -0.0451 -0.2671
  108MOL   C22438958   2.105   4.273   6.581 -0.0142  0.4318  0.2278
  108MOL   C22538959   2.105   4.207   6.438  0.7460 -0.4391 -0.2403
  108MOL   H22638960   1.819   4.187   7.139  0.0389 -0.2120 -0.6658
  108MOL   H22738961   1.793   4.355   7.168 -2.3554 -1.3701  0.6753
  108MOL   H22838962   2.004   4.272   7.127  0.3261 -2.1351 -1.4020
  108MOL   H22938963   2.106   4.109   6.714 -3.5101 -3.5482 -0.7969
  108MOL   H23038964   1.938   4.148   6.660 -0.1049 -2.1543  2.6637
  108MOL   H23138965   2.040   4.359   6.567  1.5064  1.3642 -1.2436
  108MOL   H23238966   2.203   4.304   6.616 -0.3599  0.1170  1.5094
  108MOL   H23338967   2.004   4.175   6.411 -0.5208  1.7462  1.6564
  108MOL   H23438968   2.178   4.127   6.441  0.8773 -0.2625  2.0867
  108MOL   H23538969   2.126   4.281   6.360 -0.1606 -1.4359 -1.4461
  108MOL   C23638970   1.974   4.465   7.014  0.0822  0.0884  0.4515
  108MOL   C23738971   2.115   4.506   6.976  0.1347 -0.0805 -0.2203
  108MOL   C23838972   2.123   4.660   6.943 -0.2618  0.4360  0.4358
  108MOL   O23938973   2.185   4.738   7.015  0.0082 -0.4684  0.4004
  108MOL   O24038974   2.055   4.685   6.836  0.3643  0.2440  0.1669
  108MOL   C24138975   2.048   4.818   6.788  0.8378  0.2100 -0.1448
  108MOL   C24238976   2.107   4.812   6.646  0.6032 -0.0324 -0.2429
  108MOL   C24338977   2.127   4.956   6.597 -0.2059  0.4435  0.1495
  108MOL   H24438978   1.937   4.536   7.088  0.2868  1.2307 -0.5231
  108MOL   H24538979   1.903   4.490   6.935  0.7464  1.0016  0.1366
  108MOL   H24638980   2.150   4.469   6.879  0.9485 -2.8532  1.0953
  108MOL   H24738981   1.949   4.862   6.792 -0.1698 -1.9822 -0.0327
  108MOL   H24838982   2.100   4.893   6.848  1.6080 -1.0758  0.8221
  108MOL   H24938983   2.211   4.779   6.650  0.9685  1.2455  1.2031
  108MOL   H25038984   2.051   4.738   6.589 -1.8463  0.5569  1.3550
  108MOL   H25138985   2.157   5.020   6.680 -1.0888  2.5146 -1.0936
  108MOL   H25238986   2.041   5.012   6.560 -0.2718 -0.3517 -0.9420
  108MOL   H25338987   2.199   4.973   6.516  0.1322 -0.4585  0.2577
  108MOL   C25438988   2.218   4.467   7.082 -0.3669  0.1286  0.0353
  108MOL   C25538989   2.289   4.325   7.067 -0.1873 -0.0258  0.4442
  108MOL   C25638990   2.373   4.313   6.937 -0.3261  0.2758  0.2868
  108MOL   O25738991   2.348   4.235   6.844 -0.4938 -0.2707  0.3859
  108MOL   O25838992   2.476   4.399   6.925 -1.3369 -0.0602  0.2709
  108MOL   C25938993   2.545   4.409   6.799 -0.5320 -0.0602 -0.7051
  108MOL   C26038994   2.487   4.510   6.706  0.3174 -0.5034  0.4150
  108MOL   C26138995   2.499   4.657   6.750  0.0939 -0.2369 -0.1244
  108MOL   H26238996   2.165   4.478   7.176  0.5269  1.1429  0.4366
  108MOL   H26338997   2.294   4.545   7.079  0.2458 -0.4267  0.6813
  108MOL   H26438998   2.214   4.246   7.062  1.1003 -1.1245 -2.4510
  108MOL   H26538999   2.644   4.439   6.833 -1.2831  2.5827 -0.7443
  108MOL   H26639000   2.569   4.311   6.759  0.9142  0.1450 -0.3665
  108MOL   H26739001   2.541   4.494   6.613  2.0895 -3.0806  1.8149
  108MOL   H26839002   2.383   4.488   6.683  0.1702 -1.4292  1.9034
  108MOL   H26939003   2.456   4.672   6.849 -0.8816  1.6267 -0.8158
  108MOL   H27039004   2.450   4.720   6.676 -1.4188 -1.7226 -0.4310
  108MOL   H27139005   2.605   4.678   6.760  0.3035 -1.1923 -0.2913
  108MOL   C27239006   2.376   4.273   7.191  0.4099 -0.3821 -0.2028
  108MOL   C27339007   2.281   4.229   7.316  0.1898 -0.5379  0.0378
  108MOL   C27439008   2.181   4.115   7.287  0.1559  0.2199 -0.5569
  108MOL   O27539009   2.059   4.119   7.315  0.3286  0.0593  0.2691
  108MOL   O27639010   2.246   4.012   7.240  0.6943  0.4842 -0.2120
  108MOL   C27739011   2.166   3.901   7.188  0.0804  0.3408 -0.2446
  108MOL   C27839012   2.250   3.800   7.108 -0.7977 -0.2014 -0.2217
  108MOL   C27939013   2.292   3.849   6.972 -0.4290  0.3540  0.3228
  108MOL   H28039014   2.453   4.348   7.208  0.8448 -1.0295  0.7897
  108MOL   H28139015   2.430   4.181   7.168  2.1136  0.9269 -1.5271
  108MOL   H28239016   2.228   4.323   7.332  0.2773 -0.2811 -1.0948
  108MOL   H28339017   2.125   3.854   7.278 -1.1606  0.3003 -0.8240
  108MOL   H28439018   2.088   3.936   7.121 -0.3533 -1.9614 -0.9725
  108MOL   H28539019   2.328   3.770   7.179  1.8997  0.1913 -2.8986
  108MOL   H28639020   2.187   3.713   7.097  0.7369 -1.1252 -1.8987
  108MOL   H28739021   2.326   3.951   6.959  0.9108 -0.1971 -0.5814
  108MOL   H28839022   2.230   3.844   6.882  1.7663  2.1400 -1.3345
  108MOL   H28939023   2.371   3.781   6.942 -1.7610 -2.3750  2.7127
  108MOL   C29039024   2.347   4.208   7.450 -0.4509  0.1819  0.1762
  108MOL   C29139025   2.252   4.226   7.575  0.2993  0.4130  0.2334
  108MOL   C29239026   2.312   4.170   7.707 -0.3434 -0.5227  0.3394
  108MOL   O29339027   2.429   4.134   7.725 -0.1704 -0.0556 -0.6271
  108MOL   O29439028   2.220   4.156   7.802 -0.5453  0.2136 -0.2212
  108MOL   C29539029   2.249   4.101   0.046  0.2928  0.0171 -0.4125
  108MOL   C29639030   2.291   4.210   0.150  0.4107 -0.1049  0.4041
  108MOL   C29739031   2.168   4.279   0.213 -0.9820 -0.1493  0.7480
  108MOL   H29839032   2.429   4.279   7.453 -0.0761 -0.2509  0.1244
  108MOL   H29939033   2.394   4.110   7.456 -0.1840  0.3733  1.3227
  108MOL   H30039034   2.167   4.159   7.563 -1.4606  2.7356 -0.5517
  108MOL   H30139035   2.175   4.034   0.089  0.4189  1.2966  1.8737
  108MOL   H30239036   2.325   4.026   0.026  1.4108  1.3458 -1.2409
  108MOL   H30339037   2.349   4.158   0.225 -3.2643 -0.6567  2.9762
  108MOL   H30439038   2.356   4.281   0.099 -0.2796  0.5025  0.3540
  108MOL   H30539039   2.196   4.366   0.272 -2.0908  0.1112  0.9185
  108MOL   H30639040   2.114   4.213   0.281  0.8471 -1.5612  0.8390
  108MOL   H30739041   2.104   4.292   0.126 -2.5422  0.1251  1.9070
  108MOL   C30839042   2.185   4.359   7.591 -0.4104  0.5573 -0.0121
  108MOL   C30939043   2.281   4.478   7.617 -0.0466  0.9391 -0.6536
  108MOL   C31039044   2.310   4.567   7.494  0.0670  0.2596  0.7221
  108MOL   O31139045   2.413   4.554   7.425 -0.0536  0.0063 -0.0660
  108MOL   O31239046   2.207   4.653   7.465  0.0774 -0.0960  0.2160
  108MOL   C31339047   2.217   4.741   7.353 -0.3136 -0.0803  0.0468
  108MOL   C31439048   2.315   4.853   7.375  0.0349 -0.7481 -0.0802
  108MOL   C31539049   2.288   4.947   7.493  0.2760 -0.5050  0.8577
  108MOL   H31639050   2.111   4.357   7.671  1.3160 -1.1159  1.5784
  108MOL   H31739051   2.127   4.386   7.503 -2.7192 -1.6992  0.7892
  108MOL   H31839052   2.378   4.434   7.639 -0.4297  1.0599  1.3833
  108MOL   H31939053   2.249   4.681   7.268  0.2861  0.6278 -0.2296
  108MOL   H32039054   2.118   4.773   7.320 -1.0665  0.3540  2.6416
  108MOL   H32139055   2.419   4.820   7.373  0.2028 -0.2097 -0.3409
  108MOL   H32239056   2.306   4.915   7.286 -0.4190 -0.0411  0.4532
  108MOL   H32339057   2.183   4.972   7.501  0.1497  0.0853 -2.1056
  108MOL   H32439058   2.298   4.895   7.588  0.2683 -1.4475  0.3558
  108MOL   H32539059   2.355   5.033   7.492  0.3224 -0.5473 -0.5774
  108MOL   C32639060   2.242   4.557   7.746  0.3547 -0.1236 -0.7948
  108MOL   C32739061   2.345   4.658   7.800 -0.9983  0.2417  0.0140
  108MOL   C32839062   2.277   4.753   0.021 -0.5327 -0.1962 -0.1224
  108MOL   O32939063   2.304   4.738   0.143 -0.1941  0.2485  0.4925
  108MOL   O33039064   2.177   4.834   7.857 -0.0697  0.0480  0.7866
  108MOL   C33139065   2.107   4.911   0.074  0.1511  0.6552 -0.8091
  108MOL   C33239066   1.980   4.969   0.015 -0.9938  0.6346  0.3010
  108MOL   C33339067   1.903   5.068   0.095  0.2978 -1.1747 -0.0647
  108MOL   H33439068   2.195   4.507   7.831  3.4011  2.1350  2.4159
  108MOL   H33539069   2.167   4.626   7.709  1.6065  1.7266  0.0385
  108MOL   H33639070   2.378   4.725   7.721 -2.7316  0.2261 -0.7474
  108MOL   H33739071   2.083   4.862   0.169 -2.4020  1.6731 -0.8771
  108MOL   H33839072   2.174   4.984   0.120  0.8495 -0.9247  0.7526
  108MOL   H33939073   2.018   5.011   7.803  0.9514 -0.1621  0.7051
  108MOL   H34039074   1.921   4.885   7.860 -1.7489  0.9979  0.6845
  108MOL   H34139075   1.841   5.022   0.171 -1.4166  1.9793  0.4978
  108MOL   H34239076   1.971   5.128   0.155 -0.9863  0.1093  0.1024
  108MOL   H34339077   1.839   5.138   0.042 -1.1533 -0.6748  2.2890
  108MOL   C34439078   2.460   4.578   7.866 -0.1693 -0.1793  0.0143
  108MOL   C34539079   2.595   4.656   7.869 -0.5089 -0.0745  0.3393
  108MOL   C34639080   2.657   4.662   7.725 -0.8352  0.4297  0.1391
  108MOL   O34739081   2.664   4.770   7.670  0.5426  0.1343  0.0326
  108MOL   O34839082   2.688   4.546   7.668 -0.5072 -0.3255  0.3700
  108MOL   C34939083   2.708   4.537   7.527 -0.7206  0.0185 -0.9742
  108MOL   C35039084   2.867   4.540   7.516  0.5422  0.1732 -0.4844
  108MOL   C35139085   2.914   4.548   7.375 -0.4656 -0.4742  0.3397
  108MOL   H35239086   2.478   4.496   7.796  2.1939 -0.5787  1.0370
  108MOL   H35339087   2.437   4.524   0.077  0.7078  0.8575  0.8575
  108MOL   H35439088   2.672   4.619   0.056 -0.3055  0.3613  0.3472
  108MOL   H35539089   2.658   4.448   7.489 -0.6680  0.6045 -2.4651
  108MOL   H35639090   2.660   4.623   7.480  1.7389  1.9101 -0.1342
  108MOL   H35739091   2.906   4.629   7.566  2.2403 -0.7823 -0.0641
  108MOL   H35839092   2.906   4.447   7.558 -0.3791 -0.3070 -0.6810
  108MOL   H35939093   2.885   4.458   7.320 -1.0969  0.9694 -1.7520
  108MOL   H36039094   2.870   4.635   7.324  1.4966  1.5635  2.0384
  108MOL   H36139095   3.022   4.550   7.365 -0.5283 -0.6331 -0.4444
  108MOL   H36239096   2.572   4.757   0.024 -1.4448 -0.1196 -0.1216
  109MOL     C139097   6.785   2.230   3.769  0.2075 -0.3190 -0.0566
  109MOL     C239098   6.647   2.190   3.719 -0.4331 -1.2820  1.0990
  109MOL     C339099   6.605   2.063   3.787 -0.1090  0.7461  0.1989
  109MOL     O439100   6.551   2.069   3.898 -0.0972 -0.3190  0.7323
  109MOL     O539101   6.638   1.955   3.716 -0.0403 -0.0311 -0.3796
  109MOL     C639102   6.602   1.826   3.766  0.6334 -0.2362  0.9472
  109MOL     C739103   6.479   1.774   3.688  0.5425 -0.5948  0.5623
  109MOL     C839104   6.505   1.742   3.546 -0.4525  0.0568  0.3402
  109MOL     H939105   6.784   2.271   3.870 -1.7001 -0.9405  0.1941
  109MOL    H1039106   6.854   2.145   3.772 -0.0791 -0.5896 -1.0129
  109MOL    H1139107   6.655   2.164   3.613  1.2428 -0.7965  1.0862
  109MOL    H1239108   6.687   1.759   3.759  2.3852  2.0078  0.2620
  109MOL    H1339109   6.582   1.835   3.873 -0.6568  2.6901  0.4860
  109MOL    H1439110   6.431   1.690   3.739 -1.1815 -0.3265 -0.5836
  109MOL    H1539111   6.396   1.841   3.707  0.6913 -0.7561  1.8494
  109MOL    H1639112   6.440   1.797   3.478  1.1276  1.2842 -0.2006
  109MOL    H1739113   6.609   1.749   3.513 -0.3555 -1.2565  0.3596
  109MOL    H1839114   6.474   1.641   3.520  0.8956  0.3096 -2.5109
  109MOL    H1939115   6.829   2.302   3.701 -0.7740  1.9302  1.6345
  109MOL    C2039116   6.553   2.310   3.742  0.2356  0.8566 -0.4050
  109MOL    C2139117   6.438   2.324   3.640  0.6358 -0.1785  0.3829
  109MOL    C2239118   6.484   2.357   3.499  0.5480  0.3790  0.9175
  109MOL    O2339119   6.454   2.282   3.405 -0.3708  0.2919  0.2411
  109MOL    O2439120   6.567   2.458   3.496  0.4525  0.4092  0.1758
  109MOL    C2539121   6.618   2.508   3.374 -0.3625 -0.6208  0.7579
  109MOL    C2639122   6.762   2.479   3.366 -0.4259 -0.0835 -0.2002
  109MOL    C2739123   6.843   2.539   3.480 -0.4654 -0.5026 -0.2089
  109MOL    H2839124   6.607   2.403   3.727  0.6421  0.7982  0.7209
  109MOL    H2939125   6.513   2.314   3.843  2.6542  1.1912  0.5610
  109MOL    H3039126   6.383   2.413   3.671 -1.5099 -1.8273  1.4470
  109MOL    H3139127   6.564   2.474   3.286  1.3094 -0.3485 -0.4130
  109MOL    H3239128   6.609   2.617   3.381  1.6976 -0.4317  0.6971
  109MOL    H3339129   6.769   2.371   3.353  0.6352 -0.0557  0.1264
  109MOL    H3439130   6.809   2.520   3.276 -0.1017  0.5783  0.2689
  109MOL    H3539131   6.834   2.647   3.484 -1.2000 -0.5217 -1.0446
  109MOL    H3639132   6.947   2.512   3.464 -0.4732 -1.1427  0.7539
  109MOL    H3739133   6.815   2.492   3.574  1.6348 -1.0249  0.1704
  109MOL    C3839134   6.355   2.198   3.641 -0.0219  0.4168  0.4692
  109MOL    C3939135   6.215   2.207   3.574 -0.3627 -1.2297  0.7967
  109MOL    C4039136   6.168   2.076   3.511 -0.2855 -0.3937 -0.1467
  109MOL    O4139137   6.168   2.066   3.392 -0.3866  0.4855 -0.5065
  109MOL    O4239138   6.146   1.985   3.597  0.1477  0.1985  0.4485
  109MOL    C4339139   6.118   1.850   3.558  0.4444 -0.1835  0.5069
  109MOL    C4439140   6.028   1.797   3.677 -0.2624  0.1269 -0.0101
  109MOL    C4539141   5.887   1.869   3.692 -0.1527  0.6354 -0.5979
  109MOL    H4639142   6.336   2.156   3.740 -0.0654 -2.1671 -0.6004
  109MOL    H4739143   6.422   2.124   3.599  1.4443  3.6707 -3.2599
  109MOL    H4839144   6.230   2.275   3.490  0.0975 -0.2279  1.6691
  109MOL    H4939145   6.062   1.849   3.464  0.7652 -0.2725  0.3148
  109MOL    H5039146   6.208   1.790   3.554  1.7253  1.6681  1.0281
  109MOL    H5139147   6.016   1.691   3.658  1.8494 -0.3105  0.9462
  109MOL    H5239148   6.091   1.803   3.765  1.0396  1.1106 -0.9771
  109MOL    H5339149   5.811   1.807   3.741  0.3826  0.3764 -0.0972
  109MOL    H5439150   5.829   1.889   3.602 -0.9336 -0.6344 -0.3899
  109MOL    H5539151   5.902   1.957   3.755 -1.3520  0.9336 -0.7156
  109MOL    C5639152   6.106   2.267   3.661 -0.5514  0.4112  0.5902
  109MOL    C5739153   6.035   2.381   3.590 -0.2741  0.1646 -0.1254
  109MOL    C5839154   6.124   2.508   3.570 -0.0721  0.6312 -0.6707
  109MOL    O5939155   6.158   2.555   3.462  0.2258  0.1781 -0.0364
  109MOL    O6039156   6.165   2.567   3.683  0.4231 -0.0171 -0.6166
  109MOL    C6139157   6.218   2.694   3.681  0.1523 -0.2642  0.3479
  109MOL    C6239158   6.219   2.750   3.821  0.6515  0.4124 -0.7488
  109MOL    C6339159   6.322   2.678   3.911  0.2040  0.1165 -0.4108
  109MOL    H6439160   6.139   2.310   3.756 -0.3282  0.6570  0.4011
  109MOL    H6539161   6.037   2.189   3.695 -0.1488  0.2639  1.0764
  109MOL    H6639162   5.956   2.404   3.662 -0.2670 -2.2325  0.6908
  109MOL    H6739163   6.321   2.683   3.647  0.0208  0.3282 -0.2566
  109MOL    H6839164   6.160   2.760   3.617 -1.1065 -2.7297 -1.1632
  109MOL    H6939165   6.242   2.857   3.822  0.0990  0.5378 -1.2236
  109MOL    H7039166   6.119   2.740   3.863  1.6628 -0.7136  1.4483
  109MOL    H7139167   6.419   2.709   3.873  0.9608 -0.6220  0.8408
  109MOL    H7239168   6.293   2.573   3.908 -2.0292  0.5982  2.2410
  109MOL    H7339169   6.319   2.722   4.011 -3.3613  0.6409 -0.6947
  109MOL    C7439170   5.949   2.343   3.462 -0.0692 -0.2459  0.3178
  109MOL    C7539171   5.825   2.241   3.474 -0.6563 -0.0348 -0.0025
  109MOL    C7639172   5.743   2.283   3.593  0.6887 -0.6573 -0.5549
  109MOL    O7739173   5.716   2.402   3.611 -0.4649  0.1363  0.4047
  109MOL    O7839174   5.680   2.176   3.653 -0.3079 -0.5855 -0.1419
  109MOL    C7939175   5.573   2.203   3.741 -0.2216 -0.3532 -0.9478
  109MOL    C8039176   5.435   2.157   3.688 -1.3149 -0.4450  0.2024
  109MOL    C8139177   5.377   2.230   3.565 -0.5425  0.1108 -0.3386
  109MOL    H8239178   6.018   2.305   3.387 -2.9015 -1.3417 -1.8197
  109MOL    H8339179   5.910   2.435   3.418  0.9490 -0.8579 -1.9187
  109MOL    H8439180   5.857   2.140   3.501  1.5099  0.6524  0.0817
  109MOL    H8539181   5.585   2.142   3.830  0.6366  1.4044  0.1865
  109MOL    H8639182   5.580   2.309   3.766  1.1628 -1.0379  1.7148
  109MOL    H8739183   5.443   2.049   3.672  1.6442 -0.3311  0.6738
  109MOL    H8839184   5.379   2.166   3.782 -0.6641 -2.4153  0.7958
  109MOL    H8939185   5.279   2.187   3.547 -0.8420 -0.9547  3.3227
  109MOL    H9039186   5.447   2.227   3.481  1.9868 -0.9389  1.7241
  109MOL    H9139187   5.363   2.337   3.583  3.7325  0.4701  1.5395
  109MOL    C9239188   5.745   2.217   3.342  0.9644 -0.7668  0.1021
  109MOL    C9339189   5.826   2.160   3.223  0.3832  0.2981 -0.7766
  109MOL    C9439190   5.833   2.008   3.233  0.1244  0.3360 -0.7421
  109MOL    O9539191   5.747   1.938   3.281  0.2008  0.2840 -0.1325
  109MOL    O9639192   5.942   1.959   3.172 -0.1647  0.6407  0.4191
  109MOL    C9739193   5.965   1.823   3.143  0.1440 -0.0065  0.2092
  109MOL    C9839194   6.109   1.780   3.144 -0.5386  0.3343 -0.5709
  109MOL    C9939195   6.136   1.634   3.082 -0.2027  0.8443  0.9349
  109MOL   H10039196   5.701   2.312   3.312  0.6407  0.0054  2.9157
  109MOL   H10139197   5.662   2.158   3.379 -1.0642  1.6512 -0.4571
  109MOL   H10239198   5.927   2.202   3.224  1.1160 -1.4679 -0.2661
  109MOL   H10339199   5.909   1.759   3.211  1.9949  0.7417  2.4913
  109MOL   H10439200   5.920   1.812   3.044  0.6666  0.4004 -0.0798
  109MOL   H10539201   6.169   1.846   3.081  0.5796  1.6416  1.8000
  109MOL   H10639202   6.152   1.782   3.245 -2.3610  0.3415  0.2185
  109MOL   H10739203   6.078   1.620   2.991  1.3016 -0.3556  0.1525
  109MOL   H10839204   6.098   1.559   3.152  2.3504 -1.6837 -0.3098
  109MOL   H10939205   6.239   1.607   3.059  0.3264  2.6903  1.0557
  109MOL   C11039206   5.773   2.213   3.091  0.5048  0.9060  0.4301
  109MOL   C11139207   5.629   2.171   3.048  0.4124  0.6687 -0.1781
  109MOL   C11239208   5.515   2.230   3.133  0.0628 -0.1465  0.4925
  109MOL   O11339209   5.441   2.159   3.195 -0.5119 -0.3465 -0.2945
  109MOL   O11439210   5.503   2.363   3.116 -0.2413 -0.3600 -0.3251
  109MOL   C11539211   5.406   2.435   3.180  0.0591  0.0499  0.1175
  109MOL   C11639212   5.453   2.489   3.317  0.2412 -1.1102 -0.0887
  109MOL   C11739213   5.554   2.602   3.306  0.0257  0.0544 -0.7384
  109MOL   H11839214   5.841   2.164   3.021 -1.2780  0.3104 -0.9056
  109MOL   H11939215   5.780   2.322   3.094  1.1692  0.8617  0.4849
  109MOL   H12039216   5.627   2.062   3.050  1.5049  0.5626 -2.8916
  109MOL   H12139217   5.397   2.520   3.111 -0.6805 -0.3563 -0.2954
  109MOL   H12239218   5.321   2.371   3.204 -0.1385 -0.1216 -1.0006
  109MOL   H12339219   5.369   2.532   3.371  2.3485  0.3460  2.1647
  109MOL   H12439220   5.507   2.409   3.367  0.1173 -0.4117  1.1648
  109MOL   H12539221   5.641   2.560   3.255  1.1320  0.8782  0.4352
  109MOL   H12639222   5.575   2.635   3.408  0.3164 -1.4474 -0.2964
  109MOL   H12739223   5.526   2.690   3.249  0.1498  0.4976 -0.1265
  109MOL   C12839224   5.606   2.206   2.905 -0.9406  0.6667 -0.2109
  109MOL   C12939225   5.576   2.085   2.812 -0.5915 -1.1062 -0.6960
  109MOL   C13039226   5.454   1.997   2.841 -0.4046  0.0688  0.0742
  109MOL   O13139227   5.467   1.872   2.855 -0.3840 -0.5148  0.3645
  109MOL   O13239228   5.337   2.063   2.829 -1.2203 -0.2254 -0.6395
  109MOL   C13339229   5.212   1.994   2.862  0.6051 -0.2578 -0.0470
  109MOL   C13439230   5.161   2.030   3.007  0.1388  0.3450 -0.3662
  109MOL   C13539231   5.138   2.181   3.044  0.1827 -0.2934 -0.7767
  109MOL   H13639232   5.690   2.258   2.859 -0.7828  2.4011  1.9855
  109MOL   H13739233   5.527   2.281   2.898 -2.5406 -1.0524 -1.1073
  109MOL   H13839234   5.667   2.025   2.804  0.5328  0.5143 -0.2486
  109MOL   H13939235   5.135   2.015   2.788  0.7922 -1.4297 -0.5895
  109MOL   H14039236   5.234   1.887   2.851 -1.1856 -0.9761  2.7788
  109MOL   H14139237   5.069   1.973   3.018  0.4013 -0.1808 -0.8813
  109MOL   H14239238   5.231   1.986   3.078  0.6833  4.0811  1.5964
  109MOL   H14339239   5.035   2.215   3.029  0.2260  0.1305 -0.1582
  109MOL   H14439240   5.203   2.248   2.989 -0.7760  0.7201 -0.7072
  109MOL   H14539241   5.150   2.187   3.153 -1.8294 -3.3669 -0.3352
  109MOL   C14639242   5.576   2.123   2.664  0.2376  0.1477  0.6421
  109MOL   C14739243   5.598   2.002   2.561 -0.5686 -0.2327  0.3101
  109MOL   C14839244   5.517   2.020   2.436  0.5397 -0.4367 -0.7553
  109MOL   O14939245   5.408   2.072   2.441  0.1227 -1.2152 -0.3964
  109MOL   O15039246   5.574   1.957   2.323 -0.3446 -0.8972  0.0413
  109MOL   C15139247   5.520   1.977   2.198 -0.2651  0.7962 -0.3021
  109MOL   C15239248   5.612   1.931   2.087 -0.3549  0.1152 -0.6654
  109MOL   C15339249   5.563   1.948   1.944 -0.4822 -0.3330 -0.0615
  109MOL   H15439250   5.658   2.193   2.645  2.7760 -2.4609  1.7146
  109MOL   H15539251   5.482   2.175   2.641  0.1028 -0.7272 -0.8527
  109MOL   H15639252   5.553   1.913   2.606 -2.1459  0.1775 -0.4478
  109MOL   H15739253   5.425   1.924   2.200 -0.2398  0.8047  0.9970
  109MOL   H15839254   5.509   2.085   2.190  0.6496  1.0006  1.0647
  109MOL   H15939255   5.704   1.988   2.096  0.5398 -1.2053 -1.2395
  109MOL   H16039256   5.642   1.827   2.097  1.0153  0.4352 -1.3380
  109MOL   H16139257   5.561   2.055   1.924 -1.8955 -0.0347  1.5669
  109MOL   H16239258   5.460   1.915   1.934  0.2125 -2.5517 -0.1967
  109MOL   H16339259   5.631   1.897   1.876  0.3457 -1.1452  1.3512
  109MOL   C16439260   5.751   1.976   2.546 -0.3950 -0.7107  0.2291
  109MOL   C16539261   5.784   1.835   2.500 -0.0403  0.3724  0.0303
  109MOL   C16639262   5.913   1.833   2.415 -0.0464 -0.8507 -0.0234
  109MOL   O16739263   5.903   1.782   2.299  0.0280  0.3886 -0.1646
  109MOL   O16839264   6.024   1.862   2.479 -0.3431 -0.1809  0.1952
  109MOL   C16939265   6.147   1.824   2.424  0.7062 -0.1054  0.2152
  109MOL   C17039266   6.202   1.708   2.513 -0.5185 -0.0237 -0.1608
  109MOL   C17139267   6.233   1.761   2.656  0.1487 -0.2146  0.2369
  109MOL   H17239268   5.782   1.973   2.651 -2.3802  1.0576  0.8918
  109MOL   H17339269   5.808   2.053   2.494 -1.3654 -1.3216 -1.7792
  109MOL   H17439270   5.711   1.804   2.425  0.5345 -1.2715  0.1365
  109MOL   H17539271   6.141   1.807   2.317 -1.3050  0.7687  0.1660
  109MOL   H17639272   6.221   1.905   2.430  1.6161 -0.6891 -2.5386
  109MOL   H17739273   6.131   1.627   2.497 -1.8243  0.7718  1.4612
  109MOL   H17839274   6.297   1.686   2.463 -0.7638 -0.0282 -0.6311
  109MOL   H17939275   6.304   1.843   2.645  2.1072 -2.1597 -2.4215
  109MOL   H18039276   6.279   1.679   2.711  3.4502 -0.3767 -2.5450
  109MOL   H18139277   6.143   1.789   2.710 -0.2913 -1.7109  0.2910
  109MOL   C18239278   5.782   1.737   2.617 -0.1308  0.7405 -0.8510
  109MOL   C18339279   5.815   1.586   2.594 -0.5848 -1.0785 -1.2399
  109MOL   C18439280   5.815   1.514   2.727  0.1842  0.0856 -0.4401
  109MOL   O18539281   5.927   1.483   2.773 -0.3379  0.0289 -0.1427
  109MOL   O18639282   5.694   1.496   2.783 -0.0854  0.3868 -0.0390
  109MOL   C18739283   5.682   1.409   2.888 -0.2253  0.7920  0.1533
  109MOL   C18839284   5.537   1.356   2.886 -0.2333 -0.6044 -0.1693
  109MOL   C18939285   5.530   1.236   2.779  0.2361  0.2920  0.1205
  109MOL   H19039286   5.680   1.743   2.654  0.0277 -0.1462 -0.2497
  109MOL   H19139287   5.839   1.784   2.697 -0.5882  0.5563 -0.4185
  109MOL   H19239288   5.919   1.583   2.561 -0.7140  0.7552 -1.8395
  109MOL   H19339289   5.751   1.325   2.875 -2.7827 -1.0955 -1.6883
  109MOL   H19439290   5.700   1.469   2.977 -1.2064  1.0764  0.1651
  109MOL   H19539291   5.497   1.311   2.977 -0.3780 -1.9980 -0.9085
  109MOL   H19639292   5.471   1.434   2.847  0.2849  0.7674  1.6294
  109MOL   H19739293   5.615   1.168   2.783 -0.9885 -1.4032 -2.0610
  109MOL   H19839294   5.536   1.289   2.684  0.5876  3.0835  1.6489
  109MOL   H19939295   5.437   1.180   2.785 -0.4024  1.2010 -1.1492
  109MOL   C20039296   5.722   1.509   2.497  0.0193  0.4925  0.0574
  109MOL   C20139297   5.765   1.365   2.446 -0.0109 -0.2453  0.3070
  109MOL   C20239298   5.650   1.283   2.395  0.2757  1.1458  0.4316
  109MOL   O20339299   5.598   1.318   2.288 -0.3533 -0.1806 -0.4154
  109MOL   O20439300   5.624   1.168   2.464  0.3109  0.0075  0.1662
  109MOL   C20539301   5.531   1.082   2.417  0.2724  0.9435 -0.0981
  109MOL   C20639302   5.440   1.021   2.527  0.2679 -0.9809  0.2189
  109MOL   C20739303   5.503   0.912   2.625 -0.0059 -0.1952 -0.2171
  109MOL   H20839304   5.700   1.573   2.411  1.9277 -1.6251 -2.1048
  109MOL   H20939305   5.630   1.488   2.552  1.0775 -0.9955  1.2942
  109MOL   H21039306   5.808   1.316   2.533  0.7359 -0.0421  0.0582
  109MOL   H21139307   5.465   1.131   2.345  0.6755  0.7453 -0.6092
  109MOL   H21239308   5.568   1.010   2.345 -0.3515  1.4569 -0.9490
  109MOL   H21339309   5.387   1.104   2.574  0.4287 -0.2301 -0.9243
  109MOL   H21439310   5.358   0.975   2.471  1.6111 -3.1126 -0.0836
  109MOL   H21539311   5.586   0.942   2.688  0.0283 -1.7797  0.5185
  109MOL   H21639312   5.540   0.836   2.556  0.1322  0.7785 -1.2258
  109MOL   H21739313   5.431   0.846   2.673  0.4115 -0.0790  0.5710
  109MOL   C21839314   5.877   1.394   2.340  0.5793 -0.3744 -0.7155
  109MOL   C21939315   5.956   1.267   2.297  0.7543 -0.1661 -0.9691
  109MOL   C22039316   5.888   1.186   2.183  0.1534  0.1389 -0.6426
  109MOL   O22139317   5.869   1.067   2.206  0.3671  0.0380 -0.4344
  109MOL   O22239318   5.847   1.253   2.073 -0.2307 -0.1114 -0.4513
  109MOL   C22339319   5.770   1.188   1.974 -0.2261  0.0076  0.0268
  109MOL   C22439320   5.668   1.298   1.947 -0.5248 -0.3614 -0.4904
  109MOL   C22539321   5.717   1.416   1.872 -1.0439 -0.9392  0.1472
  109MOL   H22639322   5.948   1.458   2.393 -3.0474  2.7755  0.4963
  109MOL   H22739323   5.836   1.455   2.260  0.4672 -0.3184 -0.6156
  109MOL   H22839324   5.959   1.202   2.385 -1.2209  1.7641  0.5701
  109MOL   H22939325   5.821   1.169   1.879 -1.2054  0.7592 -0.6734
  109MOL   H23039326   5.721   1.095   2.001  0.3294 -1.7568 -4.5891
  109MOL   H23139327   5.587   1.253   1.890 -0.3306 -1.5111  0.1131
  109MOL   H23239328   5.620   1.331   2.039 -1.5295  2.8811 -2.1235
  109MOL   H23339329   5.814   1.451   1.909  0.9469 -1.4369 -4.2168
  109MOL   H23439330   5.652   1.502   1.883 -0.7235 -0.7168  0.3243
  109MOL   H23539331   5.736   1.398   1.766 -1.7598  2.2156 -0.5512
  109MOL   C23639332   6.107   1.305   2.259  0.2622 -0.5039 -0.6198
  109MOL   C23739333   6.208   1.281   2.372  0.4038 -0.3690 -0.4917
  109MOL   C23839334   6.244   1.129   2.384  0.6335 -0.9490 -0.1459
  109MOL   O23939335   6.216   1.072   2.494  0.1484 -0.2375 -0.0420
  109MOL   O24039336   6.273   1.068   2.268 -0.1310  0.0554  0.0523
  109MOL   C24139337   6.287   0.928   2.287  0.1849  0.1669 -0.0243
  109MOL   C24239338   6.317   0.855   2.154 -0.7449 -0.1402  0.5820
  109MOL   C24339339   6.187   0.835   2.077  0.2787  0.1176  1.0433
  109MOL   H24439340   6.117   1.411   2.235 -0.2653 -0.2338  0.3504
  109MOL   H24539341   6.147   1.264   2.166  1.9217  2.4536 -1.2577
  109MOL   H24639342   6.156   1.308   2.464  1.2254 -4.2642  1.2066
  109MOL   H24739343   6.364   0.905   2.360  0.8930  2.1088 -0.1113
  109MOL   H24839344   6.201   0.878   2.331  1.4234 -2.0473 -0.0955
  109MOL   H24939345   6.389   0.908   2.091 -2.4105  0.1859 -1.0907
  109MOL   H25039346   6.362   0.759   2.180  1.1028  0.7367  0.7685
  109MOL   H25139347   6.116   0.777   2.136 -0.1280 -2.0670 -1.4758
  109MOL   H25239348   6.203   0.786   1.980 -0.3071  1.3688  0.3098
  109MOL   H25339349   6.128   0.924   2.056 -0.3729 -0.1807  1.5757
  109MOL   C25439350   6.332   1.365   2.364 -0.3186  0.4239 -0.7418
  109MOL   C25539351   6.437   1.338   2.479 -0.2676 -0.3829  0.5256
  109MOL   C25639352   6.567   1.420   2.448  0.1865 -0.4704 -0.9035
  109MOL   O25739353   6.604   1.519   2.512 -0.5439 -0.2983  0.5902
  109MOL   O25839354   6.627   1.366   2.344  0.1360 -0.1037 -0.0101
  109MOL   C25939355   6.757   1.408   2.291 -0.0408  0.2184 -0.4647
  109MOL   C26039356   6.868   1.323   2.342  0.1744  0.0838 -0.6074
  109MOL   C26139357   7.007   1.365   2.288  0.6187  0.3174 -0.0953
  109MOL   H26239358   6.298   1.468   2.364 -0.7394  0.2855 -0.7678
  109MOL   H26339359   6.387   1.353   2.271  0.0774  0.9750 -0.5772
  109MOL   H26439360   6.466   1.234   2.463 -1.6136 -0.9647  1.7984
  109MOL   H26539361   6.762   1.403   2.182  0.0235 -3.0278 -0.3455
  109MOL   H26639362   6.788   1.510   2.318 -0.0942 -0.3039  1.6179
  109MOL   H26739363   6.873   1.329   2.451  0.8319 -2.4772 -0.4558
  109MOL   H26839364   6.837   1.222   2.314  0.3099  0.1343 -0.9436
  109MOL   H26939365   7.028   1.321   2.191  1.4509 -1.4124  0.8455
  109MOL   H27039366   7.092   1.321   2.340  1.2611  0.6106 -0.8904
  109MOL   H27139367   7.013   1.474   2.292 -2.1898  0.5891 -1.8271
  109MOL   C27239368   6.383   1.360   2.621 -0.7203 -0.1562 -0.2333
  109MOL   C27339369   6.484   1.345   2.749  0.2932  0.4090 -0.0921
  109MOL   C27439370   6.419   1.390   2.883  0.2169  0.4726 -0.4636
  109MOL   O27539371   6.451   1.499   2.934  0.5679  0.1322  0.2586
  109MOL   O27639372   6.330   1.307   2.928  0.2500  0.4549  0.4623
  109MOL   C27739373   6.255   1.315   3.049  0.7965 -0.1355 -0.0852
  109MOL   C27839374   6.265   1.179   3.126 -0.1051 -0.6122 -0.0421
  109MOL   C27939375   6.402   1.134   3.168 -0.4469 -0.3149 -0.1158
  109MOL   H28039376   6.316   1.278   2.645 -1.2618  0.1413 -0.7294
  109MOL   H28139377   6.320   1.449   2.627  0.9313  1.1674 -1.8321
  109MOL   H28239378   6.564   1.419   2.737  2.2838 -1.7085 -0.2911
  109MOL   H28339379   6.288   1.399   3.111  0.2808  0.2424 -0.3123
  109MOL   H28439380   6.148   1.329   3.031  0.8420  0.7874  0.3087
  109MOL   H28539381   6.195   1.189   3.209 -1.1263  0.5930 -1.0333
  109MOL   H28639382   6.228   1.090   3.076  0.8945 -0.1582 -1.6016
  109MOL   H28739383   6.393   1.039   3.221  2.6453 -0.1264  0.8885
  109MOL   H28839384   6.447   1.212   3.229  0.6596  1.6579 -3.3288
  109MOL   H28939385   6.469   1.129   3.082  0.0051 -0.2951  0.2292
  109MOL   C29039386   6.552   1.203   2.755  0.1709 -0.1890  0.4134
  109MOL   C29139387   6.690   1.198   2.835 -0.6964  0.0311  0.3261
  109MOL   C29239388   6.732   1.049   2.831 -0.3108  0.3912  0.0862
  109MOL   O29339389   6.682   0.965   2.906 -0.3756 -0.4226  0.3222
  109MOL   O29439390   6.835   1.013   2.741 -0.0959  0.2409  0.2711
  109MOL   C29539391   6.876   0.876   2.739 -0.2029  0.3075  0.0828
  109MOL   C29639392   6.988   0.837   2.838 -0.1419 -0.0602  0.0526
  109MOL   C29739393   7.015   0.691   2.854  0.2939  0.6803 -0.1473
  109MOL   H29839394   6.575   1.160   2.657  1.1634  1.5260 -0.1112
  109MOL   H29939395   6.475   1.135   2.793 -0.9827  1.0652  0.3202
  109MOL   H30039396   6.673   1.225   2.939  1.2663  0.3968  0.5670
  109MOL   H30139397   6.795   0.804   2.747  0.3152 -0.2958 -0.0717
  109MOL   H30239398   6.913   0.873   2.637 -0.5924  0.4680 -0.0655
  109MOL   H30339399   7.078   0.894   2.817 -0.1300  0.1998  0.8000
  109MOL   H30439400   6.963   0.872   2.938 -1.5001  2.9118 -1.2559
  109MOL   H30539401   7.017   0.641   2.758 -1.3483  1.0756 -0.4063
  109MOL   H30639402   6.939   0.654   2.923 -0.0979  0.6426 -0.5961
  109MOL   H30739403   7.110   0.681   2.906  0.3579 -1.5717 -0.6768
  109MOL   C30839404   6.792   1.303   2.784  0.8580  0.5800 -0.4165
  109MOL   C30939405   6.930   1.302   2.869 -0.5829 -0.6627  0.6630
  109MOL   C31039406   7.059   1.301   2.774  0.7736  0.5749  0.0897
  109MOL   O31139407   7.129   1.198   2.773  0.6179  0.4903 -0.1422
  109MOL   O31239408   7.075   1.405   2.700  0.6696 -0.1619 -0.2614
  109MOL   C31339409   7.200   1.418   2.638 -0.1290 -0.0145  0.7995
  109MOL   C31439410   7.206   1.559   2.566 -0.6455 -0.5163 -0.5995
  109MOL   C31539411   7.210   1.679   2.664 -0.1548 -0.4898 -0.4859
  109MOL   H31639412   6.761   1.407   2.769 -1.2148 -0.0788 -0.8009
  109MOL   H31739413   6.820   1.276   2.682 -1.7872 -0.0552 -1.0029
  109MOL   H31839414   6.928   1.213   2.932  2.1459 -1.5234 -0.3972
  109MOL   H31939415   7.279   1.396   2.710  0.6494 -2.9644 -0.8642
  109MOL   H32039416   7.211   1.343   2.560  1.0101  1.1838 -0.2215
  109MOL   H32139417   7.287   1.562   2.494 -1.0603  0.3756 -1.0344
  109MOL   H32239418   7.111   1.568   2.513 -0.9602  0.2463  0.0822
  109MOL   H32339419   7.305   1.671   2.717 -0.3869  1.2409  0.1998
  109MOL   H32439420   7.207   1.783   2.632  1.6407 -0.8558 -1.9059
  109MOL   H32539421   7.133   1.647   2.734 -0.0647 -3.5493 -1.6693
  109MOL   C32639422   6.937   1.421   2.961  0.3474  0.0598  0.2503
  109MOL   C32739423   7.017   1.403   3.094  0.1907  0.3495  0.0855
  109MOL   C32839424   6.965   1.305   3.204  0.0150 -0.6289 -0.3157
  109MOL   O32939425   6.876   1.338   3.281  0.1867 -0.4341 -0.0873
  109MOL   O33039426   7.021   1.178   3.194  0.5095 -0.2985 -0.1589
  109MOL   C33139427   6.990   1.077   3.294 -0.3389  0.0124  0.2497
  109MOL   C33239428   6.874   0.983   3.256  0.4109  0.6580  0.3231
  109MOL   C33339429   6.727   1.037   3.239 -0.8484 -0.0407 -0.1519
  109MOL   H33439430   6.839   1.465   2.979 -1.2197 -2.6773 -1.3861
  109MOL   H33539431   6.976   1.507   2.906  0.0317 -0.1210 -0.2476
  109MOL   H33639432   7.011   1.503   3.138  0.2970 -0.6030  2.2748
  109MOL   H33739433   7.080   1.020   3.314 -0.3402 -1.1103 -2.6492
  109MOL   H33839434   6.966   1.129   3.387 -1.9443  0.0418 -0.1657
  109MOL   H33939435   6.903   0.950   3.156  0.8492 -1.9726  1.2746
  109MOL   H34039436   6.879   0.899   3.325 -1.9794  0.2535  0.0327
  109MOL   H34139437   6.657   0.955   3.220 -0.1941 -0.7968  0.6635
  109MOL   H34239438   6.698   1.107   3.317  0.1907 -0.7605  0.8865
  109MOL   H34339439   6.710   1.102   3.152 -0.0801 -1.2471 -1.2247
  109MOL   C34439440   7.170   1.377   3.066  0.0343  0.3846 -0.7758
  109MOL   C34539441   7.267   1.404   3.193  0.4520 -0.4813 -0.1268
  109MOL   C34639442   7.284   1.551   3.222 -0.6937  0.3623 -0.1598
  109MOL   O34739443   7.290   1.590   3.341 -0.5396 -0.0491 -0.4912
  109MOL   O34839444   7.289   1.622   3.113 -0.2336 -0.2373  0.3035
  109MOL   C34939445   7.279   1.761   3.126  0.0094 -0.0087  0.2173
  109MOL   C35039446   7.145   1.828   3.128  0.3983  0.5998  0.4567
  109MOL   C35139447   7.072   1.810   2.989  0.3713 -0.5132  0.0946
  109MOL   H35239448   7.200   1.441   2.983 -1.2095  1.6379 -0.2744
  109MOL   H35339449   7.200   1.279   3.030  0.9402  0.2693  0.2502
  109MOL   H35439450   7.371   1.372   3.180  0.8781  0.8366 -0.0449
  109MOL   H35539451   7.333   1.796   3.214  0.4090 -1.3596  0.5216
  109MOL   H35639452   7.348   1.801   3.051  1.2675 -1.4906  0.5676
  109MOL   H35739453   7.084   1.786   3.209  1.3666 -0.7044  0.5204
  109MOL   H35839454   7.159   1.936   3.130 -1.0302  0.9311 -2.9034
  109MOL   H35939455   6.971   1.851   2.993  0.5974 -0.0640  1.1907
  109MOL   H36039456   7.126   1.850   2.902 -0.0349  1.1707  0.5999
  109MOL   H36139457   7.067   1.706   2.956 -2.1702 -0.1805 -0.6862
  109MOL   H36239458   7.234   1.352   3.283  0.0933  2.3220  1.4097
  110MOL     C139459   1.456   7.268   7.776  0.7324 -0.8764 -0.0357
  110MOL     C239460   1.502   7.115   7.776  0.1072  0.6165  0.1169
  110MOL     C339461   1.432   7.042   7.660  0.4548 -0.0852 -0.5310
  110MOL     O439462   1.319   6.991   7.672 -0.0929  0.3224 -0.2818
  110MOL     O539463   1.504   7.041   7.550 -0.4455 -0.3553  0.3907
  110MOL     C639464   1.456   6.973   7.434  0.1238  0.3029 -0.5619
  110MOL     C739465   1.557   6.969   7.327 -0.4266  0.2874  0.9484
  110MOL     C839466   1.596   7.112   7.279 -0.9002 -0.4804 -0.4183
  110MOL     H939467   1.375   7.290   7.707  1.4130  0.4657 -0.4227
  110MOL    H1039468   1.429   7.292   7.879 -0.1523  1.1349 -0.7178
  110MOL    H1139469   1.464   7.072   7.869  3.1943  1.1868  1.7180
  110MOL    H1239470   1.427   6.874   7.468  2.2397 -0.6816 -1.5581
  110MOL    H1339471   1.367   7.017   7.391 -0.4456 -0.6945 -0.4237
  110MOL    H1439472   1.656   6.934   7.356  0.9830  1.9310 -1.7952
  110MOL    H1539473   1.524   6.908   7.243 -0.8783 -0.7365  1.8410
  110MOL    H1639474   1.652   7.114   7.186 -0.9780 -1.5399 -0.4976
  110MOL    H1739475   1.505   7.167   7.253  0.0504  0.0972 -2.5645
  110MOL    H1839476   1.644   7.168   7.359 -1.1819 -0.3709 -0.3221
  110MOL    H1939477   1.544   7.329   7.756  1.0078 -0.9476  0.9251
  110MOL    C2039478   1.649   7.097   7.786  0.1770 -0.1192 -1.2071
  110MOL    C2139479   1.708   7.160   0.033 -0.2580  0.1640  0.5128
  110MOL    C2239480   1.698   7.067   0.156 -0.0358  0.2248  1.0334
  110MOL    O2339481   1.624   6.967   0.153  0.2263  0.8053 -0.3960
  110MOL    O2439482   1.774   7.104   0.259 -0.0284 -0.5549  0.3064
  110MOL    C2539483   1.769   7.024   0.377  0.2701  0.0528  0.3850
  110MOL    C2639484   1.869   7.083   0.476  0.2182  0.4724 -0.1746
  110MOL    C2739485   1.919   6.991   0.589 -0.4780  0.7887 -0.2579
  110MOL    H2839486   1.697   7.140   7.698  1.9406  1.8441  0.6421
  110MOL    H2939487   1.671   6.991   7.781 -1.7105 -0.7257  2.1293
  110MOL    H3039488   1.645   7.242   0.068 -0.0019  0.0018  1.3710
  110MOL    H3139489   1.670   7.029   0.423 -0.0531 -1.8321 -0.0488
  110MOL    H3239490   1.801   6.922   0.354  2.4440  0.3348  2.0390
  110MOL    H3339491   1.952   7.117   0.413 -0.3704  1.1174 -0.6002
  110MOL    H3439492   1.825   7.173   0.520 -2.6331 -1.2995  0.6831
  110MOL    H3539493   1.956   6.896   0.549 -1.8593  0.0034  0.2814
  110MOL    H3639494   1.833   6.965   0.650 -1.9383 -0.0209 -2.5954
  110MOL    H3739495   1.988   7.053   0.646 -2.6459  0.7038  2.5859
  110MOL    C3839496   1.849   7.211   7.878  0.8508  0.7654 -0.0686
  110MOL    C3939497   1.863   7.334   7.784 -0.2812  1.1563 -0.2120
  110MOL    C4039498   1.804   7.453   7.858  0.7420 -0.9621  0.3540
  110MOL    O4139499   1.790   7.461   0.101 -0.4465 -0.1404 -0.2291
  110MOL    O4239500   1.759   7.544   7.774 -0.2898  0.3898 -0.0269
  110MOL    C4339501   1.676   7.650   7.824 -0.8417 -0.1200  0.0519
  110MOL    C4439502   1.758   7.764   0.001 -0.0257  0.8730 -0.5763
  110MOL    C4539503   1.674   0.016   7.880  0.5504  0.6848  0.9155
  110MOL    H4639504   1.894   7.122   7.833 -1.1457 -0.8662  1.0893
  110MOL    H4739505   1.909   7.227   0.087 -1.0903 -0.2082  1.4472
  110MOL    H4839506   1.810   7.323   7.690  1.7053 -0.5689 -1.1571
  110MOL    H4939507   1.624   7.686   7.735  0.1325 -2.4397 -1.4881
  110MOL    H5039508   1.600   7.614   0.014 -1.1241 -1.6814 -1.0387
  110MOL    H5139509   1.803   7.743   0.098 -1.0488  0.1974 -0.2346
  110MOL    H5239510   1.837   7.774   7.808  1.4461 -0.6223  0.7792
  110MOL    H5339511   1.668   0.077   7.790 -0.8835  0.2544  0.7109
  110MOL    H5439512   1.725   0.084   0.067  0.0242 -0.2593  2.3053
  110MOL    H5539513   1.577   7.878   0.046  0.8667 -2.9535  0.3352
  110MOL    C5639514   2.008   7.366   7.738 -0.1555  0.0801  0.2006
  110MOL    C5739515   2.057   7.255   7.643  0.8440 -0.5077 -0.3072
  110MOL    C5839516   1.969   7.252   7.509 -0.1494  0.6344 -0.9748
  110MOL    O5939517   1.904   7.159   7.470  0.4101 -0.2301  0.0680
  110MOL    O6039518   1.973   7.370   7.444 -0.0881 -0.2128  0.0280
  110MOL    C6139519   1.915   7.386   7.316  0.4236  0.0811  0.5397
  110MOL    C6239520   1.989   7.326   7.205 -0.7467  0.2794  1.0041
  110MOL    C6339521   1.924   7.307   7.073 -0.1562 -0.7663  0.2912
  110MOL    H6439522   2.086   7.370   7.815 -1.2968  0.6340  1.3424
  110MOL    H6539523   2.025   7.467   7.701 -0.5753  0.8283  2.0262
  110MOL    H6639524   2.049   7.152   7.677  0.1516 -0.9624 -1.8265
  110MOL    H6739525   1.820   7.333   7.313  1.0491 -1.0258 -0.3168
  110MOL    H6839526   1.893   7.492   7.298  0.3597 -0.5126 -3.3787
  110MOL    H6939527   2.073   7.391   7.181 -0.8543 -0.8652 -2.9310
  110MOL    H7039528   2.042   7.233   7.228  0.4690  0.9283  0.8902
  110MOL    H7139529   1.971   7.222   7.025 -1.3107 -0.2965 -1.7394
  110MOL    H7239530   1.924   7.392   7.005 -1.6159 -0.0673  1.1242
  110MOL    H7339531   1.819   7.277   7.072  0.3839 -2.7855  0.9991
  110MOL    C7439532   2.212   7.271   7.595 -0.3092 -0.3774  0.4020
  110MOL    C7539533   2.333   7.256   7.694 -0.7874  0.1712 -0.5553
  110MOL    C7639534   2.297   7.178   7.818 -0.0814 -0.9151  0.1832
  110MOL    O7739535   2.288   7.236   0.048  0.5455  0.4322 -0.2376
  110MOL    O7839536   2.273   7.042   7.788  0.3766  0.4441  0.0192
  110MOL    C7939537   2.207   6.962   0.006  0.0569 -0.4213  0.2768
  110MOL    C8039538   2.324   6.858   0.041  0.3696 -0.0592 -0.1023
  110MOL    C8139539   2.435   6.905   0.134 -0.0676 -0.4402  0.0732
  110MOL    H8239540   2.201   7.375   7.566  0.6358 -0.0594  1.1594
  110MOL    H8339541   2.223   7.219   7.499  1.7712  0.1616  0.3136
  110MOL    H8439542   2.353   7.358   7.729  1.6383 -0.7592  0.9323
  110MOL    H8539543   2.160   7.017   0.088  2.6950 -0.7318  2.0706
  110MOL    H8639544   2.122   6.915   7.838 -0.6203  0.9172  0.1260
  110MOL    H8739545   2.275   6.776   0.094  0.2474  0.6588  0.9237
  110MOL    H8839546   2.368   6.805   7.837  2.5056 -1.4928  1.8559
  110MOL    H8939547   2.402   6.973   0.212 -0.6641 -1.4817  0.7317
  110MOL    H9039548   2.511   6.965   0.083 -1.5944  1.3600 -0.1216
  110MOL    H9139549   2.492   6.830   0.188 -1.2202  0.0615  2.0103
  110MOL    C9239550   2.461   7.198   7.618  0.6166 -0.3749  0.6840
  110MOL    C9339551   2.532   7.307   7.531  0.4466 -0.0254 -0.4069
  110MOL    C9439552   2.610   7.408   7.613 -0.2929 -0.3707 -0.4133
  110MOL    O9539553   2.565   7.520   7.633  0.0338 -0.0389 -0.4291
  110MOL    O9639554   2.720   7.356   7.669 -0.2613 -0.2555 -0.1916
  110MOL    C9739555   2.799   7.433   7.755 -0.5004  0.2718  0.5119
  110MOL    C9839556   2.784   7.363   0.015 -0.1117 -0.0942 -0.0402
  110MOL    C9939557   2.878   7.405   0.132 -0.4291 -0.5065  0.4269
  110MOL   H10039558   2.442   7.112   7.553 -1.2493  0.5998 -0.1274
  110MOL   H10139559   2.542   7.164   7.681  0.1228  0.4569  1.7958
  110MOL   H10239560   2.450   7.360   7.483 -0.0604 -0.1664  0.2932
  110MOL   H10339561   2.897   7.441   7.707  0.6077 -3.5314  1.9460
  110MOL   H10439562   2.761   7.536   7.760 -0.8725  0.1221  0.7765
  110MOL   H10539563   2.676   7.359   0.032 -0.6895  1.4319 -3.0401
  110MOL   H10639564   2.810   7.259   7.877  1.7615  0.1451  1.1446
  110MOL   H10739565   2.978   7.440   0.104 -1.1409 -0.3254 -2.0576
  110MOL   H10839566   2.895   7.318   0.195  0.5225 -1.3070 -0.9039
  110MOL   H10939567   2.823   7.463   0.205 -2.1708 -2.9427  1.1371
  110MOL   C11039568   2.606   7.241   7.419  0.6059 -0.1665 -0.1103
  110MOL   C11139569   2.633   7.329   7.293 -0.2762 -0.4010 -0.6753
  110MOL   C11239570   2.760   7.286   7.219  0.1395  0.1096  0.3384
  110MOL   O11339571   2.863   7.352   7.231 -0.1016  0.2020 -0.0010
  110MOL   O11439572   2.747   7.176   7.132 -0.1838 -0.5801  0.4780
  110MOL   C11539573   2.863   7.113   7.071 -0.2584 -0.0978  0.3949
  110MOL   C11639574   2.944   7.035   7.176  0.5509  0.1124 -0.2060
  110MOL   C11739575   2.863   6.914   7.239 -0.5793  0.4436 -0.1230
  110MOL   H11839576   2.553   7.151   7.386 -1.6101  0.1995  2.2202
  110MOL   H11939577   2.697   7.196   7.458  0.2892  1.5822  2.8189
  110MOL   H12039578   2.653   7.433   7.317 -0.9102 -0.3713 -0.2619
  110MOL   H12139579   2.830   7.044   6.993  1.5663  0.5855 -0.9856
  110MOL   H12239580   2.927   7.190   7.029 -0.4545  0.6555  1.4513
  110MOL   H12339581   3.032   6.997   7.125 -0.1010 -3.0193  0.8333
  110MOL   H12439582   2.966   7.103   7.258  0.0414 -0.8728  0.7725
  110MOL   H12539583   2.778   6.937   7.302  0.0921  0.6131  0.7231
  110MOL   H12639584   2.933   6.863   7.305 -0.3512 -0.1528 -0.8071
  110MOL   H12739585   2.835   6.843   7.161 -1.1485 -0.7510  1.1453
  110MOL   C12839586   2.508   7.314   7.197 -0.3049 -0.4543 -0.3132
  110MOL   C12939587   2.491   7.417   7.087  0.1640 -1.2355  0.2152
  110MOL   C13039588   2.378   7.378   6.993  0.5827 -0.3840  0.2466
  110MOL   O13139589   2.303   7.279   7.013 -0.3325 -0.1812 -0.4313
  110MOL   O13239590   2.359   7.466   6.894  0.0540  0.3483 -0.5360
  110MOL   C13339591   2.266   7.437   6.790 -0.1852  0.0764 -0.7149
  110MOL   C13439592   2.330   7.427   6.649 -0.5153 -0.0673  0.4193
  110MOL   C13539593   2.231   7.399   6.534 -0.5078  0.2199  0.6142
  110MOL   H13639594   2.418   7.330   7.255 -0.0471 -0.6028  0.1334
  110MOL   H13739595   2.507   7.209   7.168  0.6880 -0.3155 -0.8953
  110MOL   H13839596   2.579   7.425   7.023  1.4091  0.7448  2.0872
  110MOL   H13939597   2.218   7.339   6.797 -0.8201  0.1816 -3.1394
  110MOL   H14039598   2.194   7.519   6.790  0.0897  0.4358  3.5608
  110MOL   H14139599   2.384   7.515   6.615  1.3008 -0.6444  1.7691
  110MOL   H14239600   2.397   7.342   6.645 -1.3999 -0.7214 -0.6083
  110MOL   H14339601   2.170   7.312   6.555  1.1196 -0.8913  0.8510
  110MOL   H14439602   2.282   7.362   6.445 -0.2954 -1.8137  1.5566
  110MOL   H14539603   2.174   7.488   6.509 -0.3156 -0.1395 -1.2362
  110MOL   C14639604   2.470   7.558   7.139  1.1303 -1.0661 -0.1914
  110MOL   C14739605   2.585   7.652   7.109  0.8036  0.5795 -0.3535
  110MOL   C14839606   2.612   7.673   6.955  0.5770  0.2066 -0.4137
  110MOL   O14939607   2.546   7.752   6.886  0.2032 -0.7785  0.5793
  110MOL   O15039608   2.705   7.582   6.907  0.2565  0.7253  0.0296
  110MOL   C15139609   2.735   7.565   6.770  0.1334 -0.2836  0.1882
  110MOL   C15239610   2.702   7.421   6.734  0.4605 -0.5018  0.3175
  110MOL   C15339611   2.809   7.333   6.804  0.0781 -0.1160 -0.0700
  110MOL   H15439612   2.439   7.571   7.242 -0.5508 -0.0949 -0.7914
  110MOL   H15539613   2.379   7.602   7.098  0.6357 -0.3774  1.5934
  110MOL   H15639614   2.672   7.598   7.149 -1.3552 -1.6444  1.5104
  110MOL   H15739615   2.685   7.646   6.716  1.2967  1.3469  1.4954
  110MOL   H15839616   2.838   7.595   6.747 -0.0487 -0.9473 -1.6201
  110MOL   H15939617   2.597   7.397   6.750  0.0432  2.2039  2.0647
  110MOL   H16039618   2.716   7.417   6.626  0.8267 -0.0282  0.3468
  110MOL   H16139619   2.803   7.336   6.913 -0.4162 -0.2009 -0.0929
  110MOL   H16239620   2.911   7.362   6.779  0.6116 -1.3325  0.6439
  110MOL   H16339621   2.811   7.229   6.771  1.8495  0.0342 -0.4656
  110MOL   C16439622   2.566   7.782   7.180 -0.5365 -0.2055  0.4796
  110MOL   C16539623   2.698   7.843   7.253  0.3038  0.0446  0.5189
  110MOL   C16639624   2.743   7.758   7.369 -0.7834 -0.5295  0.2689
  110MOL   O16739625   2.692   7.649   7.406 -0.5077 -0.2836 -0.3656
  110MOL   O16839626   2.842   7.824   7.437 -0.1950  0.1295 -0.0932
  110MOL   C16939627   2.873   7.776   7.559 -0.9548  0.3262  0.0065
  110MOL   C17039628   2.939   0.009   7.638 -0.7429  0.1505 -1.2098
  110MOL   C17139629   3.091   0.020   7.612 -0.0140  0.2936  0.0086
  110MOL   H17239630   2.485   7.794   7.252 -0.6126  0.4271  0.2911
  110MOL   H17339631   2.540   7.858   7.107 -2.3684 -0.8927  0.3768
  110MOL   H17439632   2.671   0.056   7.301  0.4387  0.6065 -0.4840
  110MOL   H17539633   2.782   7.752   7.614 -1.4999  0.4581 -0.8336
  110MOL   H17639634   2.927   7.681   7.554  0.7592  1.2790  0.0868
  110MOL   H17739635   2.892   0.106   7.621 -1.3112  0.0624 -0.1611
  110MOL   H17839636   2.938   7.872   7.746  0.0268 -0.5216 -1.3043
  110MOL   H17939637   3.132   0.085   7.689  0.1226 -0.1386  0.3002
  110MOL   H18039638   3.102   0.050   7.507  0.0559  1.6751  0.4118
  110MOL   H18139639   3.137   7.801   7.610 -1.0959 -0.2223  0.1409
  110MOL   C18239640   2.813   7.869   7.144 -0.1038 -0.1804 -0.0203
  110MOL   C18339641   2.775   0.092   7.038  1.0262  0.7554 -0.4181
  110MOL   C18439642   2.810   0.229   7.097  0.8547  0.2726 -1.1278
  110MOL   O18539643   2.925   0.262   7.088  0.4353  0.4506 -0.1850
  110MOL   O18639644   2.707   0.283   7.160 -0.4133 -0.5390 -0.1202
  110MOL   C18739645   2.719   0.397   7.246  0.2142  0.0172 -0.5463
  110MOL   C18839646   2.764   0.344   7.384 -0.1644 -0.3783  0.5717
  110MOL   C18939647   2.801   0.460   7.484 -0.1285 -0.0267  0.5490
  110MOL   H19039648   2.850   7.782   7.090  1.3203  0.0886  0.5131
  110MOL   H19139649   2.905   0.012   7.197  0.6156 -2.8361 -0.0086
  110MOL   H19239650   2.667   0.097   7.024  0.6549 -1.0800  1.4746
  110MOL   H19339651   2.788   0.470   7.207 -0.4602  0.8013 -0.2917
  110MOL   H19439652   2.623   0.448   7.255 -0.0063 -0.6131  0.8897
  110MOL   H19539653   2.683   0.285   7.426 -2.3920  0.7211 -2.0104
  110MOL   H19639654   2.857   0.288   7.374 -0.2963 -0.2604 -1.5540
  110MOL   H19739655   2.877   0.527   7.444 -1.2972  0.2437 -1.2700
  110MOL   H19839656   2.842   0.416   7.575 -0.3492  0.2802  0.7955
  110MOL   H19939657   2.716   0.520   7.517 -1.2294 -1.5748  0.5875
  110MOL   C20039658   2.850   0.068   6.903  0.0802  0.1313  0.0425
  110MOL   C20139659   2.836   0.179   6.788 -0.1737  0.5105  0.6368
  110MOL   C20239660   2.964   0.200   6.710  0.6772  0.5692  0.5436
  110MOL   O20339661   3.016   0.306   6.707 -0.0196 -0.4569  0.2968
  110MOL   O20439662   3.009   0.088   6.658  1.1615  0.7430  0.3152
  110MOL   C20539663   3.137   0.097   6.594 -0.3467 -0.1523  0.5051
  110MOL   C20639664   3.237   7.877   6.646  0.8592 -0.2331  0.0266
  110MOL   C20739665   3.240   0.014   6.800 -0.1770  0.6188 -0.0256
  110MOL   H20839666   2.820   7.853   6.859  1.4169 -0.5051  0.4814
  110MOL   H20939667   2.956   0.059   6.925 -0.1916  0.2340  1.4608
  110MOL   H21039668   2.829   0.280   6.829 -2.7286  1.0344 -0.9733
  110MOL   H21139669   3.112   0.083   6.489  1.9711 -0.7249 -0.0011
  110MOL   H21239670   3.186   0.192   6.614 -0.1201  0.1485 -1.3968
  110MOL   H21339671   3.192   7.784   6.611  0.2624 -0.0888  0.4092
  110MOL   H21439672   3.328   0.012   6.588 -0.4520 -0.2151 -2.0783
  110MOL   H21539673   3.332   7.855   6.843  0.7793  2.5125 -0.2781
  110MOL   H21639674   3.154   7.844   6.844  0.6507 -0.4269  0.4124
  110MOL   H21739675   3.245   0.122   6.819 -1.9080  0.8779 -0.9198
  110MOL   C21839676   2.717   0.132   6.702  0.0730  0.0287 -0.2400
  110MOL   C21939677   2.658   0.226   6.598 -0.4341  0.3272 -0.2011
  110MOL   C22039678   2.573   0.156   6.491  0.0104  0.1656  0.1686
  110MOL   O22139679   2.459   0.196   6.469 -0.0281 -0.1614 -0.5631
  110MOL   O22239680   2.635   0.058   6.423 -0.1429  0.0010 -0.3860
  110MOL   C22339681   2.570   7.859   6.322  0.2003  0.7572 -0.4692
  110MOL   C22439682   2.502   7.738   6.384  0.4893 -0.0409 -0.6745
  110MOL   C22539683   2.410   7.665   6.285  0.2295 -0.0158 -0.6078
  110MOL   H22639684   2.635   0.116   6.773 -1.0640 -1.4715 -1.8447
  110MOL   H22739685   2.745   0.040   6.652 -0.6799 -0.1596 -0.3218
  110MOL   H22839686   2.745   0.258   6.541  0.1714 -0.0049  0.5267
  110MOL   H22939687   2.491   0.040   6.277  0.2390  0.2436 -1.2500
  110MOL   H23039688   2.635   7.821   6.243  1.5181  1.4979  0.2369
  110MOL   H23139689   2.582   7.679   6.428  0.0494 -0.4512 -0.4353
  110MOL   H23239690   2.446   7.776   6.469 -0.2349  0.5745 -1.4263
  110MOL   H23339691   2.353   7.596   6.348 -4.2557  3.9963  0.0432
  110MOL   H23439692   2.470   7.615   6.209 -1.5444 -1.1069 -1.3257
  110MOL   H23539693   2.335   7.725   6.232  0.2302 -0.7158 -1.4160
  110MOL   C23639694   2.575   0.341   6.675  0.2540  0.0820 -0.2024
  110MOL   C23739695   2.600   0.482   6.609 -0.3023  0.4314 -0.6403
  110MOL   C23839696   2.543   0.582   6.716  0.0629 -0.7832 -0.1046
  110MOL   O23939697   2.427   0.618   6.715  0.2476  0.2951  0.1819
  110MOL   O24039698   2.634   0.613   6.817  0.2760 -0.0321 -0.5580
  110MOL   C24139699   2.584   0.712   6.902  0.0418 -0.1972  0.3224
  110MOL   C24239700   2.660   0.715   7.035 -0.1983  0.3797 -0.0682
  110MOL   C24339701   2.808   0.741   7.019  0.5015 -0.3789 -0.4414
  110MOL   H24439702   2.594   0.331   6.781  0.9699 -0.2211 -0.3585
  110MOL   H24539703   2.468   0.319   6.664  0.6041 -0.5915 -2.5633
  110MOL   H24639704   2.528   0.479   6.527 -1.1732  3.0686 -0.0071
  110MOL   H24739705   2.594   0.810   6.856  2.7178 -0.4909  0.2267
  110MOL   H24839706   2.478   0.698   6.924  0.3812 -1.7292  1.0768
  110MOL   H24939707   2.610   0.791   7.094 -0.7171 -0.3496  0.4516
  110MOL   H25039708   2.638   0.631   7.102  1.1932 -0.2681 -0.4041
  110MOL   H25139709   2.865   0.674   6.954 -0.4795 -0.7514 -0.9166
  110MOL   H25239710   2.863   0.761   7.111 -2.2315  0.1812  1.1121
  110MOL   H25339711   2.816   0.837   6.968 -2.0246 -0.9154 -1.9130
  110MOL   C25439712   2.747   0.525   6.571  0.7825  0.0183  0.0598
  110MOL   C25539713   2.761   0.531   6.416 -0.2496  0.1437 -0.4704
  110MOL   C25639714   2.657   0.611   6.337  0.3175  0.5360  0.2040
  110MOL   O25739715   2.588   0.553   6.259  0.7633  0.9584  0.3125
  110MOL   O25839716   2.651   0.745   6.366 -0.0436 -0.1406  0.5608
  110MOL   C25939717   2.576   0.836   6.283 -0.0886  0.3353  0.7619
  110MOL   C26039718   2.431   0.837   6.335 -0.3383 -0.4046 -0.2556
  110MOL   C26139719   2.321   0.918   6.258 -0.4088 -0.0107 -0.3816
  110MOL   H26239720   2.813   0.445   6.607  1.0819 -0.3806 -1.3334
  110MOL   H26339721   2.780   0.617   6.620 -0.1007  1.2150 -1.5776
  110MOL   H26439722   2.753   0.429   6.377  2.9587  0.2010 -1.5075
  110MOL   H26539723   2.615   0.938   6.286  0.4721  0.1458  0.0742
  110MOL   H26639724   2.573   0.808   6.177 -0.5376 -1.7910  1.3129
  110MOL   H26739725   2.388   0.737   6.335 -0.2096 -0.4973  2.5612
  110MOL   H26839726   2.421   0.871   6.438 -2.3773 -2.7588  0.3706
  110MOL   H26939727   2.227   0.906   6.312  0.9026 -2.6380  1.4761
  110MOL   H27039728   2.310   0.875   6.159  1.7525 -0.3702 -0.4870
  110MOL   H27139729   2.348   1.023   6.249 -1.7233  0.3341 -0.3737
  110MOL   C27239730   2.901   0.582   6.388 -1.0308  0.1970  0.8071
  110MOL   C27339731   3.021   0.487   6.403 -0.4948 -0.6260  0.0233
  110MOL   C27439732   3.028   0.378   6.297 -0.2950 -0.0586 -0.0995
  110MOL   O27539733   3.007   0.258   6.328 -0.3989  0.6585  0.2999
  110MOL   O27639734   3.045   0.419   6.173  0.1898 -0.2043  0.0913
  110MOL   C27739735   3.021   0.334   6.072 -0.3019 -0.0839  0.0124
  110MOL   C27839736   2.880   0.361   6.023 -0.1634  0.0967 -0.1650
  110MOL   C27939737   2.847   0.272   5.905  0.2018  0.3949  0.4611
  110MOL   H28039738   2.926   0.672   6.443  2.2548  0.6388 -1.2756
  110MOL   H28139739   2.903   0.611   6.283  0.4704 -0.4204  0.6605
  110MOL   H28239740   3.002   0.448   6.503  1.4464 -0.2133  0.5742
  110MOL   H28339741   3.092   0.349   5.990 -1.1444  1.0137 -0.5298
  110MOL   H28439742   3.036   0.227   6.090 -0.3325 -0.4044 -1.7420
  110MOL   H28539743   2.803   0.335   6.096  0.7474 -0.8181  0.4823
  110MOL   H28639744   2.871   0.469   6.008  2.0245  0.1200 -1.4920
  110MOL   H28739745   2.742   0.288   5.881  0.2887  0.5440  0.1708
  110MOL   H28839746   2.861   0.167   5.930  0.4937 -0.0043 -1.2725
  110MOL   H28939747   2.897   0.304   5.813  2.8880 -0.7308  1.5026
  110MOL   C29039748   3.151   0.572   6.408 -0.2709 -1.0160 -0.3230
  110MOL   C29139749   3.281   0.503   6.436  0.0877 -0.0838 -0.0631
  110MOL   C29239750   3.367   0.477   6.308  0.1317  0.3927  0.8293
  110MOL   O29339751   3.365   0.552   6.211  0.5360 -0.2704  0.2680
  110MOL   O29439752   3.440   0.361   6.319  0.5623  0.1593  0.3142
  110MOL   C29539753   3.525   0.319   6.210  0.7793  0.4969 -0.7604
  110MOL   C29639754   3.442   0.219   6.133 -0.6737  0.0743  0.9429
  110MOL   C29739755   3.391   0.107   6.225  0.5455 -0.5736 -0.6945
  110MOL   H29839756   3.128   0.641   6.490  0.9773 -0.1108 -0.7219
  110MOL   H29939757   3.160   0.635   6.320  2.1291  1.4997  1.6158
  110MOL   H30039758   3.263   0.402   6.471 -1.5024  0.5478  0.9790
  110MOL   H30139759   3.545   0.401   6.142  4.3070 -0.2501 -0.7226
  110MOL   H30239760   3.618   0.274   6.246 -0.8434 -1.8993  0.5751
  110MOL   H30339761   3.364   0.269   6.075 -1.6651 -0.4747  1.8003
  110MOL   H30439762   3.511   0.167   6.066 -1.3813 -0.7154  0.8151
  110MOL   H30539763   3.474   0.097   6.295 -0.0236  4.4072  0.8637
  110MOL   H30639764   3.383   0.013   6.171 -3.5465 -1.0098  0.4820
  110MOL   H30739765   3.289   0.120   6.261  0.3274  0.2063 -1.5785
  110MOL   C30839766   3.364   0.586   6.540 -0.3141 -0.6594 -0.4182
  110MOL   C30939767   3.459   0.704   6.496  0.6628 -0.5489  0.0092
  110MOL   C31039768   3.391   0.810   6.412 -0.0657  0.0555  0.1946
  110MOL   O31139769   3.274   0.854   6.428 -0.4725  0.2409  0.2085
  110MOL   O31239770   3.477   0.856   6.320 -0.0369 -0.7850  0.8994
  110MOL   C31339771   3.429   0.913   6.203  0.0333 -0.7143 -0.0917
  110MOL   C31439772   3.424   1.071   6.223 -0.0914  0.7473 -0.6536
  110MOL   C31539773   3.555   1.121   6.281  1.0209  0.2516  0.0685
  110MOL   H31639774   3.446   0.522   6.574 -0.4904 -0.1495  0.9708
  110MOL   H31739775   3.300   0.620   6.621  1.1576 -0.0690  0.5100
  110MOL   H31839776   3.527   0.656   6.426  1.6423  0.2881  0.3735
  110MOL   H31939777   3.503   0.890   6.126 -1.5444 -0.4695 -1.7179
  110MOL   H32039778   3.334   0.864   6.183 -1.7796  1.7438  2.1276
  110MOL   H32139779   3.409   1.115   6.124  0.2268  2.1876 -0.0773
  110MOL   H32239780   3.345   1.099   6.293  1.0988 -0.1976  1.0996
  110MOL   H32339781   3.602   1.081   6.371 -0.6951 -0.5911  0.6155
  110MOL   H32439782   3.644   1.122   6.217  2.6411  2.1251  2.2631
  110MOL   H32539783   3.530   1.223   6.310 -0.5692  0.5850 -2.2940
  110MOL   C32639784   3.541   0.767   6.616  0.2457 -0.6803 -0.1548
  110MOL   C32739785   3.690   0.722   6.632 -0.1346 -0.3964  0.4623
  110MOL   C32839786   3.766   0.762   6.504 -0.9131 -0.4802  0.7672
  110MOL   O32939787   3.804   0.679   6.426  0.1081 -0.4026  0.8371
  110MOL   O33039788   3.779   0.893   6.493 -0.2849  0.0641  0.4626
  110MOL   C33139789   3.874   0.950   6.399 -0.3647 -0.0106 -0.1833
  110MOL   C33239790   3.954   1.062   6.464 -0.1099 -0.2051 -0.1074
  110MOL   C33339791   4.058   1.025   6.573 -0.2214 -0.0625 -0.0581
  110MOL   H33439792   3.489   0.747   6.709 -0.3926  0.6304 -0.2196
  110MOL   H33539793   3.536   0.875   6.605  0.1352 -0.6493  0.2275
  110MOL   H33639794   3.672   0.615   6.638 -2.1188 -0.1409 -0.4760
  110MOL   H33739795   3.937   0.876   6.350 -0.4465 -0.2736  0.1039
  110MOL   H33839796   3.807   0.995   6.326  0.9798  4.0776  0.9578
  110MOL   H33939797   3.992   1.120   6.380 -1.7580 -1.1003 -1.5051
  110MOL   H34039798   3.887   1.129   6.519  0.1656  1.2597 -1.5252
  110MOL   H34139799   4.021   0.935   6.622  0.5928 -0.5057 -0.2339
  110MOL   H34239800   4.152   1.002   6.522 -0.1459 -1.5243  0.7274
  110MOL   H34339801   4.082   1.107   6.640 -0.5735 -1.7030  2.1213
  110MOL   C34439802   3.744   0.777   6.766 -0.0932 -0.2907 -0.5429
  110MOL   C34539803   3.882   0.730   6.815  0.6584  0.2374 -1.0651
  110MOL   C34639804   3.915   0.760   6.964 -0.0101  0.3209 -0.0660
  110MOL   O34739805   3.980   0.681   7.026 -0.4027  0.1027 -0.0309
  110MOL   O34839806   3.884   0.879   7.010  0.3455 -0.3554  0.6330
  110MOL   C34939807   3.927   0.917   7.138  0.2346 -0.4304  0.3382
  110MOL   C35039808   3.902   1.072   7.159  0.3836 -0.3308 -0.4583
  110MOL   C35139809   3.960   1.118   7.291 -0.1286  0.2973 -0.4173
  110MOL   H35239810   3.668   0.762   6.842  0.9808  0.0940  0.6198
  110MOL   H35339811   3.750   0.886   6.771  0.7819 -0.4434  2.4425
  110MOL   H35439812   3.961   0.781   6.760  2.6770  0.6149  2.0554
  110MOL   H35539813   3.876   0.846   7.203  0.9373 -1.2130  0.0287
  110MOL   H35639814   4.035   0.908   7.142  0.0340 -2.8684  0.6495
  110MOL   H35739815   3.950   1.111   7.070  0.7747  0.9032  0.2938
  110MOL   H35839816   3.794   1.090   7.158  0.5378  0.5371 -1.2971
  110MOL   H35939817   4.067   1.097   7.293 -0.0738  0.5704 -0.3775
  110MOL   H36039818   3.951   1.227   7.289  1.2127  0.4125 -0.9834
  110MOL   H36139819   3.918   1.079   7.383 -0.2155 -0.9997 -1.0016
  110MOL   H36239820   3.893   0.621   6.814 -0.4178  0.1324 -1.2582
  111MOL     C139821   2.894   6.086   0.352  0.2709  0.7320  0.0481
  111MOL     C239822   2.985   6.006   0.452  0.4882 -0.3505  0.4167
  111MOL     C339823   2.917   6.003   0.589 -0.0816 -0.0853 -0.6179
  111MOL     O439824   2.881   5.895   0.638  0.4653 -0.3386 -0.4798
  111MOL     O539825   2.907   6.119   0.653  0.4036  0.2320 -0.6818
  111MOL     C639826   2.875   6.122   0.796  0.1387  0.5220 -0.0428
  111MOL     C739827   2.725   6.138   0.816  0.0080 -0.6488  0.1213
  111MOL     C839828   2.681   6.273   0.757  0.1902 -0.6023  0.6325
  111MOL     H939829   2.837   6.167   0.400  0.6372  1.1496 -0.2197
  111MOL    H1039830   2.962   6.124   0.277  0.3623 -1.7097 -1.1426
  111MOL    H1139831   3.078   6.059   0.471  0.0185  0.6471 -0.0482
  111MOL    H1239832   2.912   6.042   0.859 -1.7727 -1.9868 -2.0187
  111MOL    H1339833   2.922   6.214   0.831  2.2629 -0.2854 -0.7048
  111MOL    H1439834   2.675   6.064   0.753 -0.2502 -0.7397  0.4384
  111MOL    H1539835   2.691   6.137   0.919  0.9444 -1.4398  0.4372
  111MOL    H1639836   2.573   6.290   0.766  0.2500  0.1794  0.0116
  111MOL    H1739837   2.733   6.356   0.805  0.8857 -1.1120  0.7569
  111MOL    H1839838   2.701   6.276   0.649  2.6326  0.0027  1.0834
  111MOL    H1939839   2.817   6.022   0.309  0.1667 -0.0412  1.3536
  111MOL    C2039840   3.004   5.864   0.391 -0.3235 -0.5609 -0.0914
  111MOL    C2139841   3.101   5.848   0.264 -0.9226 -0.1687 -0.4356
  111MOL    C2239842   3.235   5.917   0.287  0.0883 -0.2598  0.6462
  111MOL    O2339843   3.287   5.907   0.397 -0.0316 -0.5564  0.1447
  111MOL    O2439844   3.287   5.976   0.174 -0.8693  0.3227  0.4685
  111MOL    C2539845   3.393   6.069   0.202 -0.0342  0.5541  0.0777
  111MOL    C2639846   3.418   6.172   0.095 -0.6331  0.7964  0.2170
  111MOL    C2739847   3.519   6.127   7.868 -0.5522  0.9824 -0.4091
  111MOL    H2839848   2.903   5.827   0.375 -0.4280 -0.4499  0.3196
  111MOL    H2939849   3.039   5.797   0.469 -1.4593 -1.5587 -0.4276
  111MOL    H3039850   3.050   5.911   0.191 -0.6237 -0.0133 -0.5121
  111MOL    H3139851   3.382   6.118   0.299  0.6757  1.4470 -0.2831
  111MOL    H3239852   3.479   6.003   0.211 -0.3224  0.2195  0.4260
  111MOL    H3339853   3.325   6.205   0.048 -1.9231 -1.1632  1.3065
  111MOL    H3439854   3.454   6.267   0.135  0.0884 -0.2480  2.1292
  111MOL    H3539855   3.550   6.205   7.797  1.9711 -0.5359 -1.0398
  111MOL    H3639856   3.471   6.053   7.805  0.4928  0.8801 -1.1009
  111MOL    H3739857   3.603   6.084   0.042 -1.2706 -0.2573 -0.2570
  111MOL    C3839858   3.116   5.698   0.220  0.2964 -0.3728 -0.2258
  111MOL    C3939859   3.151   5.680   0.069  0.2199  0.1583  0.1940
  111MOL    C4039860   3.304   5.700   0.039 -0.2913  0.6551  0.1777
  111MOL    O4139861   3.390   5.688   0.128 -0.3916  0.4286  0.8294
  111MOL    O4239862   3.327   5.722   7.786  0.5730 -0.2153 -0.7017
  111MOL    C4339863   3.449   5.749   7.729  0.2391 -0.2470  0.7158
  111MOL    C4439864   3.510   5.620   7.677  0.5354  0.1129  0.7562
  111MOL    C4539865   3.648   5.641   7.607 -0.4631  0.2342  0.0317
  111MOL    H4639866   3.017   5.656   0.235  0.5400 -0.4550  1.2183
  111MOL    H4739867   3.177   5.651   0.297  1.0694 -1.1169 -1.2598
  111MOL    H4839868   3.097   5.753   0.010  0.2669 -0.1360 -0.2173
  111MOL    H4939869   3.435   5.819   7.646  1.9777 -0.8330 -0.0957
  111MOL    H5039870   3.513   5.804   7.799 -0.7966  0.7714  0.8758
  111MOL    H5139871   3.515   5.546   7.757  1.3672 -0.7255 -0.0597
  111MOL    H5239872   3.444   5.576   7.603  0.6958  1.3399 -0.1383
  111MOL    H5339873   3.703   5.551   7.577  1.4675  1.1748  0.6639
  111MOL    H5439874   3.709   5.689   7.683  1.3705 -0.5536 -0.9010
  111MOL    H5539875   3.648   5.715   7.527  3.2733  0.9758  0.6396
  111MOL    C5639876   3.104   5.541   0.019  0.6606 -0.8388  0.5793
  111MOL    C5739877   2.956   5.543   7.850  0.4173 -0.4463  0.7732
  111MOL    C5839878   2.927   5.644   7.733  0.2867 -0.1790 -0.1624
  111MOL    O5939879   2.880   5.756   7.766  0.5130  0.5210  0.3330
  111MOL    O6039880   2.972   5.611   7.616 -0.6023 -0.4817 -0.0494
  111MOL    C6139881   2.962   5.699   7.503  0.7585 -0.8411  0.8879
  111MOL    C6239882   3.038   5.650   7.378 -0.6942  0.6767  0.0199
  111MOL    C6339883   3.186   5.661   7.390  0.0810 -0.5321 -0.5654
  111MOL    H6439884   3.121   5.469   0.099 -0.3948 -1.6761  0.0720
  111MOL    H6539885   3.169   5.500   7.822 -2.2484 -1.6790 -1.5426
  111MOL    H6639886   2.895   5.577   0.053 -2.4782 -1.2256 -0.9442
  111MOL    H6739887   2.856   5.707   7.476  1.0564  0.5547  0.1095
  111MOL    H6839888   2.992   5.801   7.525  2.2895 -1.0084 -0.3361
  111MOL    H6939889   3.016   5.544   7.366  2.4513 -0.1227  0.9307
  111MOL    H7039890   2.996   5.711   7.298 -0.4861  2.1705  1.0279
  111MOL    H7139891   3.219   5.761   7.418 -1.8671  0.0898 -0.3923
  111MOL    H7239892   3.232   5.644   7.293 -1.8181  1.5107 -1.8831
  111MOL    H7339893   3.220   5.585   7.461 -1.0671 -0.3678  0.1678
  111MOL    C7439894   2.910   5.397   7.810  0.8940 -0.2328 -0.6124
  111MOL    C7539895   2.909   5.288   0.037 -0.0563  0.2561 -0.1251
  111MOL    C7639896   2.801   5.317   0.140  0.5280 -0.3630  0.2264
  111MOL    O7739897   2.683   5.294   0.123 -0.0098 -0.5204  0.4276
  111MOL    O7839898   2.856   5.361   0.251  0.0631 -0.0768 -0.1507
  111MOL    C7939899   2.778   5.408   0.358  0.5735  0.5754 -0.0213
  111MOL    C8039900   2.872   5.462   0.471 -0.1526  0.1106 -0.5592
  111MOL    C8139901   2.795   5.550   0.562 -0.2471 -0.1932  0.5741
  111MOL    H8239902   2.973   5.364   7.727  0.1951 -2.8488 -0.1547
  111MOL    H8339903   2.813   5.411   7.761 -0.5142 -1.7416  1.6558
  111MOL    H8439904   3.005   5.278   0.087  0.3880 -1.9526 -1.3256
  111MOL    H8539905   2.701   5.476   0.322  1.5336  1.3404 -0.6766
  111MOL    H8639906   2.721   5.323   0.396 -1.0237  2.1681  1.1826
  111MOL    H8739907   2.922   5.380   0.523 -1.2816 -0.0145  0.3499
  111MOL    H8839908   2.950   5.520   0.421  1.4049 -0.9152  0.6156
  111MOL    H8939909   2.860   5.563   0.648 -0.0904  2.8134  0.0516
  111MOL    H9039910   2.698   5.504   0.583 -1.4660  3.0917  2.5113
  111MOL    H9139911   2.778   5.643   0.508 -2.4913 -0.0492  1.5030
  111MOL    C9239912   2.872   5.151   7.855 -0.8835  0.2538  0.2449
  111MOL    C9339913   2.995   5.081   7.786 -0.3247  0.4904  0.9360
  111MOL    C9439914   3.072   4.995   0.004  0.3141  0.9505 -0.5731
  111MOL    O9539915   3.195   5.004   0.023  0.3790  0.0200 -0.1922
  111MOL    O9639916   2.994   4.898   0.052  0.3486 -0.2471 -0.4197
  111MOL    C9739917   3.039   4.804   0.144 -0.8253 -0.5427 -0.8090
  111MOL    C9839918   2.940   4.680   0.143  0.2897  0.3170  0.0923
  111MOL    C9939919   2.993   4.555   0.221 -0.3023 -0.5709  0.4604
  111MOL   H10039920   2.797   5.153   7.776  0.1747 -0.1580 -0.7816
  111MOL   H10139921   2.833   5.078   0.045  1.0517  0.6223  1.7679
  111MOL   H10239922   3.063   5.159   7.752  0.7560 -0.7117  0.3161
  111MOL   H10339923   3.135   4.769   0.109 -1.0976  0.0332 -2.1505
  111MOL   H10439924   3.051   4.847   0.244 -0.5750 -0.0524 -1.0481
  111MOL   H10539925   2.844   4.716   0.179 -0.0295  0.9038 -1.3018
  111MOL   H10639926   2.930   4.668   0.035 -0.0170 -0.2455  0.1840
  111MOL   H10739927   2.933   4.468   0.196 -2.1369  0.5704  0.7023
  111MOL   H10839928   2.982   4.567   0.329 -1.0891 -1.0462  0.4403
  111MOL   H10939929   3.098   4.544   0.196  0.0416 -0.6064  1.8472
  111MOL   C11039930   2.956   4.996   7.662 -0.7392 -0.5892 -0.4300
  111MOL   C11139931   2.903   5.074   7.540 -1.0125 -0.1141 -0.5479
  111MOL   C11239932   2.999   5.181   7.490  0.2780 -0.8448 -0.0384
  111MOL   O11339933   2.974   5.299   7.504  0.2832 -0.5166  0.1514
  111MOL   O11439934   3.105   5.125   7.420  0.0401  0.3544 -0.1605
  111MOL   C11539935   3.188   5.214   7.346 -0.2482 -0.3319 -0.7953
  111MOL   C11639936   3.298   5.258   7.437 -0.4962  0.2043 -0.5105
  111MOL   C11739937   3.409   5.350   7.369 -0.7410 -0.2259  0.4230
  111MOL   H11839938   2.875   4.928   7.689 -0.1495 -1.7090 -1.4363
  111MOL   H11939939   3.039   4.935   7.629  1.7645  1.6425  1.5079
  111MOL   H12039940   2.812   5.127   7.569 -0.8878 -1.2881  2.0700
  111MOL   H12139941   3.241   5.151   7.274 -0.0462  0.7507 -1.6216
  111MOL   H12239942   3.144   5.300   7.295  1.9758  0.2643 -1.7774
  111MOL   H12339943   3.270   5.334   7.510  1.4248 -1.3009  1.8883
  111MOL   H12439944   3.330   5.171   7.494 -1.5080 -0.3422 -0.7809
  111MOL   H12539945   3.477   5.407   7.431 -1.7214 -0.0458  1.3537
  111MOL   H12639946   3.351   5.427   7.318 -0.2384  1.3425  2.1692
  111MOL   H12739947   3.467   5.293   7.297 -0.0520 -0.9974  1.5788
  111MOL   C12839948   2.857   4.989   7.423  0.4506  0.7627 -0.5020
  111MOL   C12939949   2.778   5.062   7.314  0.4960  0.1140  0.4365
  111MOL   C13039950   2.737   4.964   7.200  0.1247 -0.0811 -0.2666
  111MOL   O13139951   2.780   4.978   7.085  0.8381 -0.6916  0.1816
  111MOL   O13239952   2.649   4.866   7.231  0.3614 -0.2943  0.5227
  111MOL   C13339953   2.579   4.797   7.126 -0.2840 -0.4115 -0.1248
  111MOL   C13439954   2.627   4.646   7.122  0.1960  1.1178  0.4141
  111MOL   C13539955   2.760   4.640   7.046 -0.5364  0.4095 -0.3550
  111MOL   H13639956   2.786   4.917   7.466  1.4656  0.3985  0.5604
  111MOL   H13739957   2.942   4.937   7.379 -1.0748 -2.2739 -0.0402
  111MOL   H13839958   2.851   5.132   7.273  1.6135 -1.2893 -0.0033
  111MOL   H13939959   2.473   4.796   7.149 -0.5354 -4.0603 -1.1146
  111MOL   H14039960   2.584   4.852   7.031 -1.9520 -0.6890 -0.3827
  111MOL   H14139961   2.659   4.602   7.217  2.3868 -0.8642 -1.1813
  111MOL   H14239962   2.558   4.574   7.078  1.3942 -0.1165  0.5243
  111MOL   H14339963   2.810   4.544   7.052 -0.2771  0.4406 -1.9040
  111MOL   H14439964   2.824   4.712   7.098 -1.9472 -0.6155  2.9144
  111MOL   H14539965   2.761   4.676   6.943  1.0372 -0.8098 -0.7758
  111MOL   C14639966   2.661   5.143   7.366  0.4397 -0.0265  0.1973
  111MOL   C14739967   2.572   5.220   7.266 -0.2083 -0.0385 -0.6958
  111MOL   C14839968   2.430   5.245   7.322 -1.0354 -0.1942  0.0713
  111MOL   O14939969   2.416   5.305   7.432  0.7262  0.8259  0.2300
  111MOL   O15039970   2.339   5.204   7.232  0.5051  0.4500 -0.3108
  111MOL   C15139971   2.199   5.226   7.245  0.0461 -0.4156 -0.8388
  111MOL   C15239972   2.125   5.204   7.112 -0.4645  0.5446 -0.4166
  111MOL   C15339973   2.136   5.058   7.065 -0.0401  0.3367 -0.4492
  111MOL   H15439974   2.693   5.221   7.436 -3.5813  1.8888  0.0439
  111MOL   H15539975   2.597   5.084   7.432  1.8832 -1.0914  0.6912
  111MOL   H15639976   2.555   5.157   7.179  0.5542 -2.3057  0.7460
  111MOL   H15739977   2.156   5.160   7.322  0.8485 -0.4156 -0.3900
  111MOL   H15839978   2.178   5.328   7.277  0.7465 -0.5850  0.1943
  111MOL   H15939979   2.022   5.236   7.126 -0.2888  1.2316 -0.7189
  111MOL   H16039980   2.166   5.274   7.039 -0.8787  0.9636 -0.2407
  111MOL   H16139981   2.121   4.992   7.150  0.9015  1.3468  0.5133
  111MOL   H16239982   2.232   5.032   7.021 -2.2194 -3.3110 -3.3086
  111MOL   H16339983   2.062   5.038   6.988  0.5433 -2.5723 -0.3157
  111MOL   C16439984   2.632   5.357   7.209  0.1289 -0.5704 -0.1133
  111MOL   C16539985   2.719   5.338   7.083  1.1948  0.4867  0.4857
  111MOL   C16639986   2.634   5.348   6.952 -0.1611 -0.3897 -0.4188
  111MOL   O16739987   2.633   5.451   6.884  0.4802 -0.1133  0.3732
  111MOL   O16839988   2.561   5.240   6.929 -0.1973  0.7002 -0.5738
  111MOL   C16939989   2.487   5.222   6.807  0.7912 -0.0971  0.2477
  111MOL   C17039990   2.489   5.071   6.782 -0.1519  0.7303  0.1005
  111MOL   C17139991   2.613   5.021   6.736 -0.6842  0.2657  0.2423
  111MOL   H17239992   2.697   5.404   7.284  0.5601 -1.5368  0.1206
  111MOL   H17339993   2.548   5.423   7.189 -0.1534 -0.6780  0.7077
  111MOL   H17439994   2.763   5.238   7.089 -2.2632 -1.0976  0.3801
  111MOL   H17539995   2.382   5.248   6.821  0.5784  0.0679 -1.5867
  111MOL   H17639996   2.540   5.265   6.722  2.4147  2.2164  2.3721
  111MOL   H17739997   2.472   5.018   6.875  1.5196 -0.2667 -0.1313
  111MOL   H17839998   2.401   5.047   6.722  0.9334 -3.5299  0.0873
  111MOL   H17939999   2.667   5.084   6.664  0.1843 -1.4956 -0.6959
  111MOL   H18040000   2.612   4.917   6.703  1.2894 -0.0195  1.0053
  111MOL   H18140001   2.681   5.033   6.820  0.7410  2.1700 -1.1330
  111MOL   C18240002   2.841   5.435   7.079  0.2704  0.2242 -0.3577
  111MOL   C18340003   2.952   5.411   6.970  0.3761  0.1075 -0.2941
  111MOL   C18440004   3.045   5.527   6.943 -0.7950 -0.1895 -0.2900
  111MOL   O18540005   3.099   5.597   7.032  0.2520  0.7627 -0.3691
  111MOL   O18640006   3.061   5.560   6.806 -0.3710  0.5736  0.1087
  111MOL   C18740007   3.178   5.632   6.770 -0.2372 -0.0535  0.0591
  111MOL   C18840008   3.157   5.649   6.619  0.9147 -0.1825  0.1696
  111MOL   C18940009   3.272   5.728   6.565  0.1317 -0.1368 -0.0558
  111MOL   H19040010   2.886   5.426   7.178  0.8634 -2.3428 -0.8212
  111MOL   H19140011   2.805   5.538   7.083  1.5260  0.6343  0.7597
  111MOL   H19240012   2.893   5.412   6.878 -0.3512  0.3850  0.1655
  111MOL   H19340013   3.178   5.730   6.816 -1.6197  0.5563 -1.1934
  111MOL   H19440014   3.266   5.570   6.787  0.4159  0.8398 -0.0486
  111MOL   H19540015   3.156   5.552   6.569  0.9031  1.3261 -2.8282
  111MOL   H19640016   3.060   5.698   6.615  0.7895 -0.3672  0.8890
  111MOL   H19740017   3.363   5.679   6.599 -1.6738 -3.1848  0.5073
  111MOL   H19840018   3.260   5.835   6.583 -1.1259  0.0270 -1.7360
  111MOL   H19940019   3.261   5.717   6.457 -0.6685  0.2787 -0.0198
  111MOL   C20040020   3.036   5.281   7.001 -0.0128 -0.3295  0.0035
  111MOL   C20140021   3.091   5.206   6.873 -0.3184 -0.2953  0.0863
  111MOL   C20240022   3.187   5.098   6.915  0.3404 -0.1332  0.2941
  111MOL   O20340023   3.305   5.105   6.886 -0.6764 -0.1717  0.7106
  111MOL   O20440024   3.129   5.005   6.988  1.1096  0.1842 -0.1776
  111MOL   C20540025   3.204   4.897   7.045 -0.7234 -0.4549 -0.1277
  111MOL   C20640026   3.113   4.781   7.089 -0.9778 -0.0006  0.4989
  111MOL   C20740027   3.102   4.692   6.968 -0.4201  0.1760 -0.9532
  111MOL   H20840028   2.969   5.212   7.052 -0.7515  0.6283  0.3278
  111MOL   H20940029   3.118   5.316   7.063  0.1142 -0.6817  0.0352
  111MOL   H21040030   3.146   5.277   6.812 -0.6458 -0.2948 -0.2066
  111MOL   H21140031   3.298   4.870   6.996  0.3254  1.2009  0.9106
  111MOL   H21240032   3.243   4.950   7.132  2.1676 -0.2102 -1.4990
  111MOL   H21340033   3.151   4.720   7.171  2.3035  1.9187  0.4692
  111MOL   H21440034   3.020   4.821   7.131 -2.1276 -1.7948 -0.2713
  111MOL   H21540035   3.192   4.653   6.921 -0.2343  2.0850 -2.2524
  111MOL   H21640036   3.051   4.748   6.889 -3.0320  0.2971  0.7336
  111MOL   H21740037   3.034   4.608   6.984 -0.0728 -0.1300 -1.0802
  111MOL   C21840038   2.986   5.145   6.768  0.5372 -0.1707  0.5614
  111MOL   C21940039   3.036   5.115   6.627  0.5247 -0.0922  0.5403
  111MOL   C22040040   2.950   5.015   6.549 -0.8955  0.1628  0.1661
  111MOL   O22140041   2.852   5.052   6.486  0.0546 -0.3472  0.0025
  111MOL   O22240042   2.983   4.887   6.565 -0.3179  0.0660 -0.8746
  111MOL   C22340043   2.922   4.787   6.493 -0.2665  0.4294  0.3091
  111MOL   C22440044   2.873   4.669   6.568 -0.1105 -0.2029 -0.0203
  111MOL   C22540045   2.812   4.567   6.476  0.5501  0.2721  0.0850
  111MOL   H22640046   2.897   5.208   6.766  2.0718  2.0254 -1.3537
  111MOL   H22740047   2.951   5.048   6.802  1.4557  0.2507  2.7975
  111MOL   H22840048   3.129   5.060   6.645 -0.1583 -1.4699 -0.0284
  111MOL   H22940049   2.831   4.821   6.443 -0.4133  0.9387  0.9107
  111MOL   H23040050   2.990   4.754   6.415  0.2160  3.0216 -0.4324
  111MOL   H23140051   2.950   4.615   6.623  1.5124 -0.2358 -2.2638
  111MOL   H23240052   2.796   4.711   6.632  1.2136  0.6355  1.0497
  111MOL   H23340053   2.755   4.608   6.392  0.4412  1.5630  0.7668
  111MOL   H23440054   2.744   4.499   6.528  0.0481  0.8702  0.2321
  111MOL   H23540055   2.883   4.495   6.436 -0.9963 -1.3964  0.2924
  111MOL   C23640056   3.061   5.252   6.551  0.0739  0.1619  0.3179
  111MOL   C23740057   3.138   5.250   6.414  0.3311 -0.6438  0.3516
  111MOL   C23840058   3.281   5.190   6.426  0.1325  0.5954  0.3784
  111MOL   O23940059   3.309   5.086   6.374 -1.2361  0.3793 -0.0019
  111MOL   O24040060   3.357   5.256   6.518 -0.4376 -0.3548 -0.1889
  111MOL   C24140061   3.482   5.214   6.555 -0.3376  0.1672  0.2074
  111MOL   C24240062   3.523   5.277   6.691 -0.2086  0.7047 -0.3402
  111MOL   C24340063   3.531   5.425   6.662  0.3092 -0.2113  0.1779
  111MOL   H24440064   3.110   5.328   6.612  1.0089  1.9806 -2.5927
  111MOL   H24540065   2.969   5.305   6.524  1.1335  1.5383 -0.6936
  111MOL   H24640066   3.167   5.350   6.383  0.9611 -0.3729  1.8012
  111MOL   H24740067   3.487   5.106   6.571 -0.2456 -0.2107 -2.2578
  111MOL   H24840068   3.554   5.239   6.477 -2.8661  2.3677 -1.5082
  111MOL   H24940069   3.458   5.261   6.777 -0.9809  2.1000 -0.6512
  111MOL   H25040070   3.619   5.230   6.711 -0.1009  1.6914  1.4649
  111MOL   H25140071   3.593   5.486   6.729 -1.5998  1.8528  0.1254
  111MOL   H25240072   3.433   5.473   6.661 -0.8447 -2.4601  0.7956
  111MOL   H25340073   3.585   5.441   6.569  0.8617 -1.0953  0.3436
  111MOL   C25440074   3.043   5.189   6.298 -0.7947  0.3382  0.1230
  111MOL   C25540075   3.089   5.221   6.155  0.2358  0.4868 -0.6918
  111MOL   C25640076   3.017   5.136   6.054 -0.6892  0.2142 -0.3863
  111MOL   O25740077   3.080   5.076   5.968 -0.3943 -0.3953 -0.7227
  111MOL   O25840078   2.879   5.148   6.058 -0.2365 -0.1378  0.4970
  111MOL   C25940079   2.799   5.064   5.975 -0.0001  0.0259  0.0210
  111MOL   C26040080   2.690   5.148   5.914 -0.7784  0.1368 -0.8850
  111MOL   C26140081   2.600   5.194   6.028 -0.3997  0.7001  0.3265
  111MOL   H26240082   2.945   5.235   6.307  0.3203  2.5817  1.1807
  111MOL   H26340083   3.032   5.080   6.304  0.1676  0.1819 -0.7966
  111MOL   H26440084   3.185   5.169   6.154 -1.3219 -2.5039 -2.0692
  111MOL   H26540085   2.851   5.016   5.892  0.4922  0.4523  0.0825
  111MOL   H26640086   2.751   4.988   6.037 -1.6556  2.5699  1.9366
  111MOL   H26740087   2.739   5.233   5.865 -1.2824  1.0517  0.1676
  111MOL   H26840088   2.644   5.085   5.838  1.6693 -1.0521 -1.4510
  111MOL   H26940089   2.549   5.109   6.073 -1.9021  1.3200 -0.1733
  111MOL   H27040090   2.536   5.262   5.972  1.3362  2.0950 -0.0206
  111MOL   H27140091   2.638   5.266   6.101 -2.5855  1.2389  0.9683
  111MOL   C27240092   3.093   5.366   6.125  0.0391 -0.2586 -0.7216
  111MOL   C27340093   2.964   5.443   6.131 -0.1071 -0.3858  0.5039
  111MOL   C27440094   2.953   5.517   6.265 -1.1772  0.3895 -0.0478
  111MOL   O27540095   3.046   5.579   6.310 -0.3446 -0.1517  0.6245
  111MOL   O27640096   2.846   5.493   6.334  0.0110  0.1519 -0.1283
  111MOL   C27740097   2.819   5.563   6.453 -0.2520 -0.1514 -0.1782
  111MOL   C27840098   2.694   5.490   6.518 -0.1089 -0.0060  0.2006
  111MOL   C27940099   2.563   5.482   6.447  0.1954 -0.4369 -0.4915
  111MOL   H28040100   3.127   5.383   6.023 -2.0072  1.1226 -1.2080
  111MOL   H28140101   3.177   5.408   6.180  1.3927  0.6025 -3.4142
  111MOL   H28240102   2.882   5.372   6.135 -0.3093 -0.1745  0.1073
  111MOL   H28340103   2.905   5.544   6.518 -0.3836  1.5661  0.5191
  111MOL   H28440104   2.797   5.668   6.435 -0.1529 -0.1665 -0.3897
  111MOL   H28540105   2.732   5.388   6.531  3.1508  0.8395 -2.1241
  111MOL   H28640106   2.686   5.533   6.618  1.1778 -2.3555  1.3778
  111MOL   H28740107   2.495   5.419   6.504 -1.0966  0.1632 -1.3556
  111MOL   H28840108   2.577   5.429   6.352  0.5637 -1.7867  0.3116
  111MOL   H28940109   2.512   5.579   6.439  1.2413  0.2658  1.0817
  111MOL   C29040110   2.940   5.550   6.019  0.2370  0.3421  0.2257
  111MOL   C29140111   3.053   5.655   6.001  0.1187 -0.6937 -0.0923
  111MOL   C29240112   3.166   5.607   5.909 -0.0894 -0.0597 -1.0777
  111MOL   O29340113   3.286   5.621   5.939  0.1095  0.1722 -0.0717
  111MOL   O29440114   3.128   5.546   5.800  0.2542  0.1398  0.6864
  111MOL   C29540115   3.224   5.487   5.719  0.1631  0.8681  0.1188
  111MOL   C29640116   3.277   5.352   5.772 -0.0280 -0.1728 -0.0050
  111MOL   C29740117   3.366   5.283   5.675  0.3522  0.3086 -0.1750
  111MOL   H29840118   2.845   5.597   6.044  0.7255  1.5971 -0.2388
  111MOL   H29940119   2.927   5.500   5.923  2.2041  0.4932 -0.1363
  111MOL   H30040120   3.108   5.668   6.094  1.1548  2.0014 -1.0359
  111MOL   H30140121   3.178   5.476   5.621  0.0836 -1.3404  0.3792
  111MOL   H30240122   3.309   5.554   5.704  1.7520 -1.1450 -0.0089
  111MOL   H30340123   3.318   5.366   5.872  0.0450  1.1761 -0.2086
  111MOL   H30440124   3.188   5.293   5.794 -1.3678  2.2888  1.5339
  111MOL   H30540125   3.311   5.267   5.582  0.6606  0.5519 -0.4012
  111MOL   H30640126   3.390   5.185   5.716  1.0922  0.4697 -0.2175
  111MOL   H30740127   3.452   5.347   5.654  0.9486 -0.3332  0.2727
  111MOL   C30840128   3.001   5.800   5.964  0.1761 -0.0161 -0.4749
  111MOL   C30940129   3.062   5.910   6.056  0.7344 -0.8422 -0.2507
  111MOL   C31040130   3.215   5.924   6.039  0.2687  0.4732 -0.4529
  111MOL   O31140131   3.292   5.911   6.135  0.1900  0.4926 -0.1643
  111MOL   O31240132   3.253   5.944   5.909  0.1805 -0.2343  0.4085
  111MOL   C31340133   3.387   5.966   5.871 -0.3531  0.2606  0.4997
  111MOL   C31440134   3.448   6.091   5.938 -0.8405  0.9263 -0.1350
  111MOL   C31540135   3.597   6.099   5.890 -0.0863  0.6193  0.7057
  111MOL   H31640136   2.893   5.808   5.951  0.3492  1.7221 -1.0110
  111MOL   H31740137   3.026   5.823   5.861  1.7819 -0.9036 -0.2955
  111MOL   H31840138   3.052   5.879   6.160  1.4907  1.5566  0.5473
  111MOL   H31940139   3.444   5.883   5.913 -0.9095  0.6768  2.1276
  111MOL   H32040140   3.401   5.972   5.763 -0.3704  0.9881  0.5305
  111MOL   H32140141   3.396   6.184   5.915  0.1999  1.8633  1.1975
  111MOL   H32240142   3.440   6.080   6.046  3.0205  2.3643  0.3641
  111MOL   H32340143   3.631   6.134   5.793 -1.9039  1.0671  0.2107
  111MOL   H32440144   3.647   6.163   5.963 -1.0897  0.4332  1.5676
  111MOL   H32540145   3.646   6.004   5.912 -2.4681 -0.1265  3.0909
  111MOL   C32640146   2.996   6.050   6.046 -0.9624 -0.4135  1.1204
  111MOL   C32740147   2.844   6.048   6.064 -0.2040  0.8572 -0.5057
  111MOL   C32840148   2.805   5.977   6.190 -0.7023 -0.1893  0.5414
  111MOL   O32940149   2.747   5.869   6.188 -0.0040  0.0508 -0.3770
  111MOL   O33040150   2.844   6.040   6.297  0.7875 -0.2433  0.0341
  111MOL   C33140151   2.805   5.993   6.428 -0.6876 -0.1587  0.5770
  111MOL   C33240152   2.735   6.114   6.501 -0.0449 -0.2597  0.0876
  111MOL   C33340153   2.836   6.230   6.507  1.5282  0.2788  0.2465
  111MOL   H33440154   3.012   6.098   5.949 -1.3758 -0.2596  1.1303
  111MOL   H33540155   3.039   6.124   6.113 -1.5140  0.7299  0.2286
  111MOL   H33640156   2.790   5.989   5.991 -1.0538  2.0629 -0.8699
  111MOL   H33740157   2.728   5.915   6.431  0.7704 -1.6336  0.5374
  111MOL   H33840158   2.893   5.949   6.475 -1.1125 -0.6068  0.9632
  111MOL   H33940159   2.655   6.144   6.433 -0.6454 -0.4676  0.6994
  111MOL   H34040160   2.686   6.102   6.597  0.3083  0.9839  0.4334
  111MOL   H34140161   2.843   6.268   6.405  0.6395 -0.4871 -0.1107
  111MOL   H34240162   2.812   6.316   6.570  1.6931 -0.3577  1.1792
  111MOL   H34340163   2.933   6.192   6.538  0.3126 -2.2241  1.0785
  111MOL   C34440164   2.787   6.191   6.048  0.2159  1.1362 -0.1883
  111MOL   C34540165   2.642   6.195   6.005  0.4347 -0.5359 -0.3167
  111MOL   C34640166   2.593   6.327   5.954 -0.5868 -0.7190  0.4145
  111MOL   O34740167   2.511   6.392   6.020  0.3484  0.2319 -0.2627
  111MOL   O34840168   2.642   6.349   5.831  0.7159 -0.5652  0.3303
  111MOL   C34940169   2.597   6.471   5.765 -0.5291  0.3706 -0.4822
  111MOL   C35040170   2.720   6.564   5.740  0.0151  0.6323 -0.0201
  111MOL   C35140171   2.828   6.500   5.651  0.0741 -0.7723 -0.0327
  111MOL   H35240172   2.846   6.235   5.967  0.1572  0.4138 -0.6281
  111MOL   H35340173   2.825   6.250   6.131  0.5072  0.0662  0.4482
  111MOL   H35440174   2.582   6.162   6.090  1.8568 -0.8343  0.5887
  111MOL   H35540175   2.559   6.444   5.667  1.4869 -2.8829 -0.4520
  111MOL   H35640176   2.515   6.518   5.819 -0.3352  1.7731 -1.3917
  111MOL   H35740177   2.681   6.652   5.690 -1.6991  0.5781  1.1446
  111MOL   H35840178   2.766   6.589   5.836 -1.0450 -0.3026  0.7514
  111MOL   H35940179   2.915   6.559   5.625 -0.1099 -1.0929 -1.4239
  111MOL   H36040180   2.864   6.414   5.707  0.2093 -1.0193 -0.4931
  111MOL   H36140181   2.781   6.469   5.558  0.1593  0.0240 -0.3416
  111MOL   H36240182   2.619   6.125   5.924  0.1606 -1.6402  0.6991
  112MOL     C140183   2.349   7.410   2.864 -0.0922  0.0712  0.1230
  112MOL     C240184   2.432   7.288   2.912  0.5589  0.0721  0.2093
  112MOL     C340185   2.396   7.239   3.055 -1.0390  0.0895  0.6978
  112MOL     O440186   2.280   7.221   3.096  0.1823 -0.4541  0.4016
  112MOL     O540187   2.508   7.231   3.133  0.3268 -0.6040 -0.3319
  112MOL     C640188   2.495   7.231   3.276  0.1412  0.1235  0.2483
  112MOL     C740189   2.521   7.089   3.333  0.1481  0.0991  0.5834
  112MOL     C840190   2.408   6.987   3.284  0.4403 -0.3866  0.1494
  112MOL     H940191   2.389   7.445   2.769  1.1505 -1.8054 -0.0799
  112MOL    H1040192   2.243   7.384   2.856  0.2983 -1.2466 -1.2726
  112MOL    H1140193   2.538   7.313   2.914  1.3615 -3.1104  1.0165
  112MOL    H1240194   2.570   7.299   3.315  0.0063  0.2046  0.3651
  112MOL    H1340195   2.408   7.278   3.322 -0.5823  0.0296 -0.9916
  112MOL    H1440196   2.616   7.042   3.308  0.1585  0.8287 -0.8324
  112MOL    H1540197   2.519   7.096   3.441  1.0240 -1.0096  0.6803
  112MOL    H1640198   2.306   7.019   3.307  0.9844  1.2250  0.4325
  112MOL    H1740199   2.406   6.971   3.177  0.4257  0.6080 -0.0046
  112MOL    H1840200   2.427   6.884   3.314 -0.4625 -0.5785  0.0854
  112MOL    H1940201   2.350   7.486   2.942 -1.1952  0.4335 -0.2008
  112MOL    C2040202   2.433   7.164   2.807  0.1749  0.0207 -0.2596
  112MOL    C2140203   2.522   7.195   2.680 -0.2441  0.1073  0.8448
  112MOL    C2240204   2.666   7.239   2.714 -0.5523  0.7022  0.2491
  112MOL    O2340205   2.736   7.198   2.810  0.3473  0.5129 -0.5328
  112MOL    O2440206   2.720   7.321   2.617 -0.0357 -0.3860 -0.2824
  112MOL    C2540207   2.860   7.364   2.626  0.5020 -0.3071  0.1411
  112MOL    C2640208   2.868   7.498   2.699  0.4140  0.4264  0.8067
  112MOL    C2740209   2.807   7.614   2.621 -0.2498 -0.7238 -0.1278
  112MOL    H2840210   2.329   7.138   2.788  0.5278  0.2084 -2.6334
  112MOL    H2940211   2.473   7.077   2.859  2.9532  1.3864 -0.0059
  112MOL    H3040212   2.484   7.280   2.623  0.5053  0.2364  0.5310
  112MOL    H3140213   2.917   7.288   2.679 -1.0016  0.1095  2.4368
  112MOL    H3240214   2.886   7.364   2.520  0.0614  0.6098  0.0337
  112MOL    H3340215   2.826   7.496   2.800  0.2269 -0.0819  0.7194
  112MOL    H3440216   2.974   7.518   2.709  0.4151  0.9686 -0.1886
  112MOL    H3540217   2.698   7.612   2.635 -0.3443 -1.2464 -0.9344
  112MOL    H3640218   2.835   7.629   2.517  0.7591  0.9423  0.3729
  112MOL    H3740219   2.842   7.709   2.663 -0.0505 -0.9628  0.2481
  112MOL    C3840220   2.519   7.079   2.578  0.2631 -0.1263 -0.3668
  112MOL    C3940221   2.385   7.034   2.514  0.2980 -0.1307  0.1652
  112MOL    C4040222   2.321   7.140   2.419  1.2313  0.2563 -0.3810
  112MOL    O4140223   2.369   7.171   2.314  0.5367  0.2760 -0.0826
  112MOL    O4240224   2.201   7.191   2.480 -0.1864 -0.6951  0.5290
  112MOL    C4340225   2.109   7.272   2.418  0.0370  0.3754  0.9979
  112MOL    C4440226   2.067   7.394   2.492 -0.6154 -0.5231  0.2903
  112MOL    C4540227   2.038   7.357   2.638 -0.2086 -0.9869 -1.4217
  112MOL    H4640228   2.548   6.989   2.633 -1.1403  0.2955  1.0901
  112MOL    H4740229   2.592   7.085   2.498  1.0523  1.1963  0.4483
  112MOL    H4840230   2.321   7.006   2.597 -0.7035 -0.4636 -0.7124
  112MOL    H4940231   2.140   7.296   2.316 -0.2881 -0.5333  0.6780
  112MOL    H5040232   2.025   7.203   2.416  1.3368 -1.1868 -0.6605
  112MOL    H5140233   2.150   7.464   2.487 -1.4212  0.5477  1.4158
  112MOL    H5240234   1.979   7.437   2.444 -0.8222 -0.6242  0.5770
  112MOL    H5340235   2.056   7.442   2.704  0.0205 -2.4211  0.3674
  112MOL    H5440236   2.091   7.270   2.675  0.5673 -0.2394 -0.7478
  112MOL    H5540237   1.931   7.342   2.656  0.1987 -0.7026  1.4877
  112MOL    C5640238   2.410   6.908   2.433  0.5616  0.7204 -0.0132
  112MOL    C5740239   2.286   6.824   2.381 -0.0159  0.4030 -0.1208
  112MOL    C5840240   2.332   6.697   2.298  0.4059  0.0228  0.4303
  112MOL    O5940241   2.338   6.586   2.354 -0.2280  0.9119  0.0644
  112MOL    O6040242   2.375   6.727   2.171  0.0008  0.3789 -0.1195
  112MOL    C6140243   2.463   6.641   2.108  0.2763 -0.5256  0.3634
  112MOL    C6240244   2.604   6.707   2.125 -0.4309 -0.5282 -0.4459
  112MOL    C6340245   2.717   6.632   2.043 -0.1714  0.3540  0.2861
  112MOL    H6440246   2.459   6.835   2.497  1.2608  1.7717  0.6511
  112MOL    H6540247   2.473   6.930   2.346  0.7529 -2.1196 -0.6608
  112MOL    H6640248   2.236   6.878   2.300  0.7801 -2.6906 -2.8089
  112MOL    H6740249   2.460   6.541   2.152  0.0488 -1.2323 -1.2272
  112MOL    H6840250   2.429   6.634   2.004 -0.9503 -0.0922  0.7280
  112MOL    H6940251   2.589   6.801   2.072  1.1442  0.8317  1.4478
  112MOL    H7040252   2.629   6.718   2.230 -0.3944  0.9538 -0.6048
  112MOL    H7140253   2.694   6.605   1.940 -0.5294  1.2865  0.1220
  112MOL    H7240254   2.745   6.540   2.094  2.6832  0.0471 -1.7630
  112MOL    H7340255   2.807   6.692   2.051  0.5377 -0.4471 -1.4229
  112MOL    C7440256   2.188   6.784   2.494 -0.9242 -0.0351  0.3214
  112MOL    C7540257   2.057   6.862   2.515 -0.5641 -0.3556  0.0738
  112MOL    C7640258   1.971   6.865   2.386  0.3729  0.0285  0.1536
  112MOL    O7740259   1.947   6.973   2.327  0.2296  0.1245 -0.0787
  112MOL    O7840260   1.924   6.747   2.340  0.3760 -0.4087 -0.1645
  112MOL    C7940261   1.824   6.748   2.241  0.0812 -0.6796  0.2829
  112MOL    C8040262   1.733   6.627   2.262 -0.4376  0.4012 -0.8643
  112MOL    C8140263   1.657   6.624   2.403  0.1231 -0.3859  0.3480
  112MOL    H8240264   2.251   6.786   2.582  0.5578 -1.5419 -0.6574
  112MOL    H8340265   2.150   6.683   2.478 -0.5176 -0.3550  1.3271
  112MOL    H8440266   2.074   6.967   2.538  1.6915 -0.4178 -1.1903
  112MOL    H8540267   1.766   6.840   2.245  1.4780  0.2846 -1.1627
  112MOL    H8640268   1.876   6.761   2.146  0.5464 -0.1804  0.6047
  112MOL    H8740269   1.666   6.608   2.178 -1.1412 -1.6126  0.1250
  112MOL    H8840270   1.797   6.539   2.268 -0.5103  0.4191  0.5748
  112MOL    H8940271   1.589   6.538   2.407  1.0018 -1.2750 -2.3240
  112MOL    H9040272   1.600   6.714   2.424  1.7424  0.7733 -0.1685
  112MOL    H9140273   1.735   6.625   2.478  2.3873  3.1716 -1.8949
  112MOL    C9240274   1.972   6.800   2.633 -0.1613 -0.2615 -0.3254
  112MOL    C9340275   1.940   6.896   2.744  1.1229  0.4060  0.3870
  112MOL    C9440276   2.060   6.947   2.825  0.1116  0.1809  1.6823
  112MOL    O9540277   2.080   7.069   2.846 -0.0206  0.9930  0.4444
  112MOL    O9640278   2.147   6.852   2.860  0.6739  0.3869  0.1947
  112MOL    C9740279   2.263   6.867   2.940 -0.1383 -0.2940  0.2765
  112MOL    C9840280   2.373   6.777   2.882  0.0304 -0.1696  0.1056
  112MOL    C9940281   2.369   6.632   2.942  0.1609  0.0527 -0.9777
  112MOL   H10040282   2.021   6.714   2.678 -0.0107  0.9151  1.8226
  112MOL   H10140283   1.886   6.748   2.590  0.1827 -1.2087  0.1185
  112MOL   H10240284   1.870   6.837   2.805 -0.3004  2.9506  1.3094
  112MOL   H10340285   2.287   6.973   2.944 -1.4685  0.0461 -0.1754
  112MOL   H10440286   2.244   6.852   3.046  1.2339  0.2558  0.6091
  112MOL   H10540287   2.373   6.777   2.773 -0.4635  1.4167  0.0992
  112MOL   H10640288   2.467   6.814   2.923 -0.0194 -0.0730  0.1320
  112MOL   H10740289   2.470   6.591   2.946  1.3523  2.7644 -1.9785
  112MOL   H10840290   2.297   6.589   2.874 -0.3246  1.6257 -1.4783
  112MOL   H10940291   2.326   6.628   3.042 -0.0778 -0.6326 -1.1070
  112MOL   C11040292   1.845   7.008   2.698  0.3243  0.3305 -0.0481
  112MOL   C11140293   1.739   7.064   2.792 -0.4421  0.0749 -0.1028
  112MOL   C11240294   1.797   7.122   2.921  0.6037  0.4492  0.0243
  112MOL   O11340295   1.772   7.073   3.027  0.5382 -0.4438  0.2501
  112MOL   O11440296   1.876   7.231   2.903  0.3907  0.0486  0.4923
  112MOL   C11540297   1.940   7.302   3.005 -0.5140  0.0316  0.3052
  112MOL   C11640298   1.846   7.396   3.084  0.1310 -0.1274  0.0280
  112MOL   C11740299   1.758   7.494   3.001 -0.2695 -0.0709  0.4297
  112MOL   H11840300   1.799   6.975   2.605  0.6337  0.7484 -0.3539
  112MOL   H11940301   1.900   7.091   2.654 -2.1860  2.1895  0.2534
  112MOL   H12040302   1.664   6.995   2.831  0.2729 -1.0012 -0.6009
  112MOL   H12140303   1.996   7.229   3.064 -0.1240 -1.8700 -2.3325
  112MOL   H12240304   2.013   7.365   2.955 -0.1146  0.0715  0.9264
  112MOL   H12340305   1.778   7.326   3.133  0.0683 -1.6575 -2.1814
  112MOL   H12440306   1.893   7.449   3.167  0.5856 -1.0418  0.3519
  112MOL   H12540307   1.827   7.571   2.968 -0.9314  0.1827 -0.3861
  112MOL   H12640308   1.694   7.554   3.065  0.6772  1.7124 -0.2503
  112MOL   H12740309   1.713   7.445   2.915  1.4314 -1.5279  0.3447
  112MOL   C12840310   1.663   7.172   2.716 -0.6756 -0.2931 -0.1797
  112MOL   C12940311   1.571   7.129   2.598 -0.4114 -0.8384 -0.0675
  112MOL   C13040312   1.485   7.005   2.634 -0.3120 -0.4586 -0.5866
  112MOL   O13140313   1.537   6.897   2.630 -0.3876  0.0327  0.8435
  112MOL   O13240314   1.366   7.038   2.686 -0.1179 -0.4932 -0.2129
  112MOL   C13340315   1.276   6.939   2.734  0.4439 -0.8494 -0.0985
  112MOL   C13440316   1.157   6.908   2.644  0.5473  0.9767 -0.3721
  112MOL   C13540317   1.079   7.029   2.587 -0.3546 -0.6126  0.5219
  112MOL   H13640318   1.727   7.258   2.693  0.8741 -0.4331  3.3842
  112MOL   H13740319   1.599   7.212   2.795 -2.0508  0.3893 -1.6091
  112MOL   H13840320   1.632   7.086   2.519  1.0942 -1.0749  1.1846
  112MOL   H13940321   1.323   6.843   2.754 -0.7992 -1.7089 -1.2304
  112MOL   H14040322   1.229   6.976   2.825  0.6975 -0.7846  0.0072
  112MOL   H14140323   1.185   6.842   2.562 -0.1798 -0.5469  0.5757
  112MOL   H14240324   1.087   6.850   2.704  0.2766  0.9175 -0.7443
  112MOL   H14340325   1.060   7.101   2.667 -0.6198 -0.4517  0.3165
  112MOL   H14440326   0.993   6.995   2.528 -0.8753  3.0438 -0.9987
  112MOL   H14540327   1.153   7.072   2.520  0.1098  0.3919  1.6659
  112MOL   C14640328   1.489   7.245   2.534 -0.2486  0.1759 -0.2262
  112MOL   C14740329   1.571   7.361   2.469  0.4021 -0.0076  0.1899
  112MOL   C14840330   1.642   7.315   2.335  0.2951  0.6646 -0.0242
  112MOL   O14940331   1.763   7.317   2.329 -0.3930 -0.4693 -0.5248
  112MOL   O15040332   1.564   7.279   2.231  0.3514  0.2660  0.3035
  112MOL   C15140333   1.628   7.266   2.104  0.0325 -0.1088 -0.1813
  112MOL   C15240334   1.531   7.214   2.003  0.1699 -0.2465  0.5038
  112MOL   C15340335   1.408   7.296   1.968  0.4287  0.8486  0.4378
  112MOL   H15440336   1.424   7.286   2.611 -1.2379 -1.7669  0.0077
  112MOL   H15540337   1.423   7.193   2.464 -0.9808 -1.2518  1.4881
  112MOL   H15640338   1.652   7.390   2.535  0.5725  0.3571 -0.1762
  112MOL   H15740339   1.645   7.370   2.076 -2.6954  0.2479 -0.6380
  112MOL   H15840340   1.723   7.214   2.109 -0.3196 -0.9253 -1.5292
  112MOL   H15940341   1.584   7.198   1.909 -1.5046  1.0958 -0.7013
  112MOL   H16040342   1.494   7.120   2.043  0.4420 -0.5761 -0.0124
  112MOL   H16140343   1.350   7.322   2.056 -1.1874  1.1296 -0.6930
  112MOL   H16240344   1.346   7.241   1.897 -0.5837  0.2875  1.7254
  112MOL   H16340345   1.425   7.388   1.912 -0.3541  1.3220  0.9832
  112MOL   C16440346   1.478   7.483   2.440  0.7862  0.8020 -0.0589
  112MOL   C16540347   1.442   7.576   2.562  0.2829  0.1366  0.2476
  112MOL   C16640348   1.549   7.592   2.669 -0.6384 -0.1771 -0.2069
  112MOL   O16740349   1.530   7.551   2.784 -0.0663 -0.1384 -0.3264
  112MOL   O16840350   1.665   7.632   2.621  0.6177 -0.2195 -0.2807
  112MOL   C16940351   1.773   7.656   2.706  0.3431 -0.2279  0.3063
  112MOL   C17040352   1.883   7.744   2.645  0.2708 -0.7287  0.2898
  112MOL   C17140353   1.954   7.833   2.741  0.0053  0.4730  0.1521
  112MOL   H17240354   1.384   7.442   2.401 -0.7926  2.1363  2.2188
  112MOL   H17340355   1.512   7.547   2.359  3.3712  0.4956  0.7448
  112MOL   H17440356   1.367   7.519   2.616 -0.5636  0.2024 -0.8371
  112MOL   H17540357   1.728   7.681   2.802 -0.2414  0.4297 -0.1408
  112MOL   H17640358   1.814   7.557   2.728 -2.6174 -1.2564  1.4414
  112MOL   H17740359   1.957   7.690   2.585  1.4637  1.8082 -0.6106
  112MOL   H17840360   1.829   7.814   2.581  0.1743 -1.4490 -0.4340
  112MOL   H17940361   2.048   7.855   2.691 -1.1510 -0.3245 -2.4521
  112MOL   H18040362   1.958   7.794   2.843  2.1756  0.2030 -0.0093
  112MOL   H18140363   1.901   0.046   2.759  0.0950  0.2742  1.5276
  112MOL   C18240364   1.395   7.713   2.533  0.4561  0.0803 -0.4640
  112MOL   C18340365   1.246   7.722   2.488  0.4049  0.6170 -0.3731
  112MOL   C18440366   1.135   7.701   2.597 -0.4460 -0.5411 -0.7408
  112MOL   O18540367   1.062   7.787   2.641 -0.6234 -0.4938 -0.4883
  112MOL   O18640368   1.148   7.570   2.653 -0.1536  0.8438  0.4969
  112MOL   C18740369   1.037   7.514   2.721 -0.0778  0.3851  0.0090
  112MOL   C18840370   1.098   7.434   2.837 -0.6225 -0.5528 -0.5577
  112MOL   C18940371   0.995   7.355   2.916  0.0904  0.1419  0.3611
  112MOL   H19040372   1.468   7.757   2.465  0.6795  2.4305  1.2557
  112MOL   H19140373   1.412   7.779   2.618 -0.1767  0.8736 -0.9470
  112MOL   H19240374   1.221   7.646   2.413 -1.1463  0.3593  0.3893
  112MOL   H19340375   0.967   7.589   2.759  0.2462 -0.5864  2.6567
  112MOL   H19440376   0.986   7.453   2.647  0.0330  0.2757  0.0223
  112MOL   H19540377   1.190   7.381   2.815  0.5568  0.3542  1.9535
  112MOL   H19640378   1.128   7.514   2.905 -1.2280  0.7110 -1.7432
  112MOL   H19740379   1.024   7.331   3.018  1.6636 -0.2282 -0.1629
  112MOL   H19840380   0.956   7.266   2.866 -0.8300  0.0985  1.1389
  112MOL   H19940381   0.912   7.422   2.939  0.4862  0.4912  0.7704
  112MOL   C20040382   1.217   7.851   2.409 -0.5039 -0.1540 -0.1722
  112MOL   C20140383   1.298   7.872   2.275 -0.4663 -0.4246  0.0317
  112MOL   C20240384   1.256   7.766   2.170 -0.2099 -0.5781 -0.5064
  112MOL   O20340385   1.329   7.673   2.136 -0.0308 -0.5972 -0.2212
  112MOL   O20440386   1.130   7.790   2.125 -0.6860 -0.1391 -0.4423
  112MOL   C20540387   1.047   7.695   2.053  0.0076  0.3563  0.1825
  112MOL   C20640388   0.907   7.723   2.044  0.2508 -0.9696  0.2720
  112MOL   C20740389   0.889   7.850   1.960  0.4643 -0.0587  0.2176
  112MOL   H20840390   1.266   0.044   2.473  1.9790 -1.8568 -0.0612
  112MOL   H20940391   1.109   7.866   2.398 -0.8966 -1.7346  1.2784
  112MOL   H21040392   1.403   7.853   2.297 -0.4777 -2.1070 -1.2484
  112MOL   H21140393   1.093   7.685   1.955 -0.2022 -0.4223  0.1563
  112MOL   H21240394   1.070   7.598   2.097 -1.8908  0.8796  2.4298
  112MOL   H21340395   0.848   7.633   2.024 -1.3756 -0.3558  2.1279
  112MOL   H21440396   0.885   7.750   2.147  2.0926 -0.2084  0.4826
  112MOL   H21540397   0.905   7.839   1.853  4.9806 -0.1651  0.8089
  112MOL   H21640398   0.957   0.052   1.982  1.2696 -0.3155 -1.2803
  112MOL   H21740399   0.788   0.006   1.981  1.3585  3.1487 -0.8071
  112MOL   C21840400   1.287   0.142   2.227  0.4431 -1.3064  0.6837
  112MOL   C21940401   1.371   0.241   2.311  0.1024  0.0682  0.0419
  112MOL   C22040402   1.517   0.231   2.257 -0.8023  0.7097 -0.7410
  112MOL   O22140403   1.605   0.157   2.309  0.3514  0.0050  0.2290
  112MOL   O22240404   1.529   0.298   2.148 -0.4246  0.0628 -0.1970
  112MOL   C22340405   1.648   0.306   2.069  0.2393 -0.3839 -0.4727
  112MOL   C22440406   1.623   0.398   1.951  0.4380  0.0675  1.0411
  112MOL   C22540407   1.756   0.410   1.872 -0.2435 -0.4984 -0.5467
  112MOL   H22640408   1.179   0.154   2.227  0.7570  1.8352  0.0289
  112MOL   H22740409   1.323   0.141   2.124  2.8483  1.1204  1.4466
  112MOL   H22840410   1.381   0.226   2.418 -1.1137 -0.2485  0.1176
  112MOL   H22940411   1.735   0.324   2.132  0.9139 -0.1720 -1.4610
  112MOL   H23040412   1.659   0.206   2.027 -1.9100 -0.6944 -0.3384
  112MOL   H23140413   1.546   0.349   1.891  1.2626  0.3497 -0.2841
  112MOL   H23240414   1.588   0.498   1.977 -1.2960 -0.2375 -0.0464
  112MOL   H23340415   1.849   0.421   1.930 -0.6397  1.0298 -0.1806
  112MOL   H23440416   1.752   0.497   1.807  3.3245  3.7869  4.4870
  112MOL   H23540417   1.784   0.327   1.808  0.7728  0.5460 -1.4864
  112MOL   C23640418   1.303   0.379   2.316  0.5968  0.3555 -0.7799
  112MOL   C23740419   1.367   0.479   2.412  0.2351  0.5402  1.0919
  112MOL   C23840420   1.444   0.589   2.333  0.5217  0.5577  0.0350
  112MOL   O23940421   1.386   0.681   2.276 -0.6606 -1.1710 -0.4279
  112MOL   O24040422   1.577   0.564   2.332 -0.4875 -0.1684  0.2525
  112MOL   C24140423   1.658   0.638   2.245 -0.2104 -0.4160  0.8241
  112MOL   C24240424   1.779   0.684   2.327 -0.1785 -0.3078  0.4391
  112MOL   C24340425   1.881   0.760   2.254 -0.6695 -0.2795  0.0153
  112MOL   H24440426   1.199   0.367   2.348  0.5531  2.9974  0.1753
  112MOL   H24540427   1.299   0.421   2.215  1.1976 -0.8978 -1.3281
  112MOL   H24640428   1.451   0.429   2.460 -0.4818 -1.6600  0.1174
  112MOL   H24740429   1.694   0.571   2.166  1.5908  0.9597  0.4364
  112MOL   H24840430   1.617   0.732   2.207 -1.0863 -0.7091  1.0540
  112MOL   H24940431   1.742   0.747   2.407 -0.7821  1.3334 -1.0789
  112MOL   H25040432   1.822   0.599   2.381 -2.4997 -2.3468 -0.7999
  112MOL   H25140433   1.849   0.860   2.226 -0.3440  0.0991  0.9761
  112MOL   H25240434   1.916   0.702   2.168  0.2117  0.5916 -0.2221
  112MOL   H25340435   1.970   0.781   2.313 -0.6752 -0.6887  0.1765
  112MOL   C25440436   1.282   0.547   2.511  0.3024 -0.3658  0.8130
  112MOL   C25540437   1.230   0.448   2.624  0.8635  0.2127 -0.5302
  112MOL   C25640438   1.344   0.377   2.682 -0.5198  0.0938  0.3622
  112MOL   O25740439   1.355   0.255   2.669  0.1887  0.3692 -0.3065
  112MOL   O25840440   1.426   0.457   2.752  0.8357  0.0104  0.6610
  112MOL   C25940441   1.530   0.400   2.829 -0.2060  0.3589 -0.2598
  112MOL   C26040442   1.653   0.362   2.739 -0.3829 -0.1075 -0.4612
  112MOL   C26140443   1.775   0.326   2.824 -0.2113  0.2618  0.5863
  112MOL   H26240444   1.199   0.599   2.464  1.3755  1.1125  0.5255
  112MOL   H26340445   1.347   0.617   2.563  1.3121 -0.4709 -0.2705
  112MOL   H26440446   1.164   0.371   2.585  1.1462 -0.8743  1.0529
  112MOL   H26540447   1.558   0.464   2.912  2.1395 -1.0996  0.1159
  112MOL   H26640448   1.512   0.307   2.883  0.1712  0.3036 -0.2310
  112MOL   H26740449   1.629   0.280   2.671 -0.0208  0.7951 -1.6877
  112MOL   H26840450   1.670   0.451   2.678  0.7699  0.8760  1.2413
  112MOL   H26940451   1.787   0.397   2.905  0.1310  3.8284 -2.4764
  112MOL   H27040452   1.863   0.340   2.761 -0.1947 -0.9466  0.3248
  112MOL   H27140453   1.767   0.220   2.847  0.7704  0.1971  0.6432
  112MOL   C27240454   1.156   0.527   2.736  0.6913 -0.5476  0.3185
  112MOL   C27340455   1.056   0.451   2.830 -0.4772 -0.7520 -0.5571
  112MOL   C27440456   0.913   0.448   2.776 -0.7930 -0.0195  0.0241
  112MOL   O27540457   0.882   0.368   2.690  0.2934 -0.3434  0.0373
  112MOL   O27640458   0.834   0.538   2.827  0.1565 -0.2525 -0.8457
  112MOL   C27740459   0.704   0.561   2.791  0.2001  0.6981  0.5035
  112MOL   C27840460   0.616   0.514   2.902  0.1787  0.1884  0.2653
  112MOL   C27940461   0.644   0.596   3.022 -0.3128 -0.0153 -0.0252
  112MOL   H28040462   1.100   0.599   2.676 -1.8534 -1.0584  2.0050
  112MOL   H28140463   1.220   0.588   2.799 -2.8802  2.3724  1.2736
  112MOL   H28240464   1.052   0.511   2.921 -2.5160 -1.9777  0.1969
  112MOL   H28340465   0.693   0.668   2.777  0.2178  0.4981 -1.1361
  112MOL   H28440466   0.664   0.526   2.695  0.0437 -0.2533  0.9045
  112MOL   H28540467   0.510   0.517   2.874  0.3255 -1.5901 -0.5616
  112MOL   H28640468   0.639   0.409   2.919  2.6037  0.5177 -0.7589
  112MOL   H28740469   0.606   0.697   3.006 -2.3561 -0.5081  1.4979
  112MOL   H28840470   0.747   0.598   3.057  0.1082  2.2060 -1.2696
  112MOL   H28940471   0.599   0.554   3.112 -1.6133 -1.6687 -1.4149
  112MOL   C29040472   1.096   0.317   2.885 -0.4752  0.0766  0.1010
  112MOL   C29140473   1.020   0.252   3.006  0.0970 -0.2237  0.4927
  112MOL   C29240474   1.047   0.099   3.022  0.3951 -0.0032  1.0567
  112MOL   O29340475   0.947   0.025   3.019  0.6710  0.1459 -0.2054
  112MOL   O29440476   1.168   0.065   3.042  0.2088 -0.6196 -0.3708
  112MOL   C29540477   1.193   7.813   3.078  0.8285 -0.4259  0.8331
  112MOL   C29640478   1.290   7.769   2.964  0.2073  0.5784 -0.3213
  112MOL   C29740479   1.429   7.838   2.959 -0.3172 -0.3544 -0.3808
  112MOL   H29840480   1.201   0.323   2.915 -0.1520  0.6454 -1.1334
  112MOL   H29940481   1.105   0.240   2.808  2.5318  0.4724 -0.0121
  112MOL   H30040482   0.914   0.255   2.981  0.3682 -2.0317 -0.9801
  112MOL   H30140483   1.250   7.811   3.171  2.2834 -1.4275 -0.0591
  112MOL   H30240484   1.106   7.749   3.089 -0.6185  1.6107  1.5190
  112MOL   H30340485   1.319   7.664   2.975  1.0835  1.0368  1.9162
  112MOL   H30440486   1.246   7.785   2.865  0.7886 -0.0583 -0.6860
  112MOL   H30540487   1.420   0.065   2.942  0.5510  0.1789  2.2927
  112MOL   H30640488   1.492   7.789   2.885 -0.2725  1.2972 -1.4573
  112MOL   H30740489   1.476   7.838   3.057 -2.6063  1.1765  0.7728
  112MOL   C30840490   1.029   0.325   3.139 -0.4914 -0.3468  0.2211
  112MOL   C30940491   0.936   0.280   3.254  0.2284 -0.7112 -0.2767
  112MOL   C31040492   0.981   0.352   3.383 -0.2253 -0.5319  0.0282
  112MOL   O31140493   1.014   0.295   3.484 -0.5401  0.6332  0.3493
  112MOL   O31240494   0.963   0.482   3.378  0.3137  0.0162  0.0116
  112MOL   C31340495   0.977   0.578   3.486 -0.7978  0.4831 -0.1005
  112MOL   C31440496   0.846   0.615   3.551  0.1583 -0.3376 -0.1031
  112MOL   C31540497   0.765   0.694   3.451 -0.4898  0.5746 -0.2599
  112MOL   H31640498   1.011   0.432   3.125 -0.0428 -0.0319  1.9516
  112MOL   H31740499   1.135   0.327   3.166 -0.3441 -2.1912 -0.1722
  112MOL   H31840500   0.948   0.176   3.282  0.9641 -0.9070 -1.3190
  112MOL   H31940501   1.040   0.542   3.568 -1.5729 -0.6655 -0.0005
  112MOL   H32040502   1.021   0.670   3.447  0.3917 -0.1657 -0.3266
  112MOL   H32140503   0.780   0.537   3.589  0.0210  0.5408  1.4936
  112MOL   H32240504   0.857   0.679   3.639 -0.1988 -0.8447  0.3114
  112MOL   H32340505   0.742   0.619   3.376  0.9165 -0.0811 -0.0583
  112MOL   H32440506   0.690   0.752   3.505  2.7895  4.4784  0.3905
  112MOL   H32540507   0.822   0.768   3.395  0.1513 -0.0820 -0.4822
  112MOL   C32640508   0.792   0.306   3.220  0.3897 -0.7524 -0.6361
  112MOL   C32740509   0.685   0.218   3.292 -0.3806  0.8264  0.0623
  112MOL   C32840510   0.578   0.302   3.362 -0.2894  0.0847 -0.7478
  112MOL   O32940511   0.609   0.381   3.455  0.2541 -0.0421 -0.3321
  112MOL   O33040512   0.459   0.288   3.311 -0.1408  0.0328  0.2841
  112MOL   C33140513   0.350   0.349   3.373  0.1221  0.7026 -0.0213
  112MOL   C33240514   0.260   0.253   3.444 -0.6520 -0.3576 -0.3498
  112MOL   C33340515   0.180   0.153   3.363  0.2711  0.2510  0.5649
  112MOL   H33440516   0.762   0.293   3.116 -1.3771  1.4454 -0.4377
  112MOL   H33540517   0.778   0.412   3.238  1.5186 -0.2809 -2.3934
  112MOL   H33640518   0.742   0.181   3.377  4.7634  1.9880 -2.6592
  112MOL   H33740519   0.389   0.429   3.436  1.2190 -0.1987  0.4532
  112MOL   H33840520   0.293   0.403   3.297  2.8002  1.1571 -1.7862
  112MOL   H33940521   0.328   0.200   3.511  1.2981  1.3023 -0.9460
  112MOL   H34040522   0.200   0.303   3.520  1.8460  0.2759  1.2749
  112MOL   H34140523   0.130   0.083   3.431  1.1911 -0.3393  0.6391
  112MOL   H34240524   0.109   0.217   3.310 -1.9691 -2.3689  0.1996
  112MOL   H34340525   0.234   0.082   3.300  0.4498 -0.9882  2.0965
  112MOL   C34440526   0.628   0.103   3.206 -0.4975 -0.7501 -0.0374
  112MOL   C34540527   0.548   7.872   3.270  0.1099  0.4513  0.4561
  112MOL   C34640528   0.494   7.774   3.167 -0.0083 -0.3810 -0.7344
  112MOL   O34740529   0.373   7.760   3.138  0.1536 -0.7474  0.3072
  112MOL   O34840530   0.593   7.698   3.123  0.3861 -0.0081 -0.2442
  112MOL   C34940531   0.575   7.604   3.023  0.1901  1.5411 -0.7331
  112MOL   C35040532   0.678   7.624   2.916  0.9527 -0.2730  0.1732
  112MOL   C35140533   0.660   7.511   2.812  0.4522 -0.0001  0.8318
  112MOL   H35240534   0.709   0.057   3.150  0.3823  1.5238 -0.7209
  112MOL   H35340535   0.574   0.147   3.122 -1.9208  0.2498  1.3561
  112MOL   H35440536   0.463   0.029   3.328  0.1564 -1.8990  2.0836
  112MOL   H35540537   0.595   7.513   3.079  0.9499  1.9154 -0.3775
  112MOL   H35640538   0.474   7.607   2.982  0.7239  2.3204 -2.0392
  112MOL   H35740539   0.667   7.719   2.863 -2.6950  0.2646  1.7484
  112MOL   H35840540   0.772   7.619   2.971  1.9135  0.5127 -1.3798
  112MOL   H35940541   0.552   7.499   2.801  0.2944  0.7892  1.5218
  112MOL   H36040542   0.707   7.534   2.716 -0.7557 -1.4444 -0.1289
  112MOL   H36140543   0.718   7.424   2.843 -0.8038 -0.5494  1.6782
  112MOL   H36240544   0.615   7.812   3.331  0.5002 -1.6314 -1.9658
  113MOL     C140545   6.405   6.420   4.055  0.2886  0.1728  0.1441
  113MOL     C240546   6.271   6.445   4.126  0.0623  0.5949  0.1560
  113MOL     C340547   6.217   6.315   4.182  0.2112  0.4909  1.1815
  113MOL     O440548   6.290   6.224   4.214 -0.9973 -0.0329 -0.1075
  113MOL     O540549   6.078   6.307   4.174  0.0589 -0.2687  0.1600
  113MOL     C640550   6.016   6.188   4.201 -0.4371  0.2340 -0.8332
  113MOL     C740551   5.916   6.145   4.099 -0.0166 -0.6443 -0.7475
  113MOL     C840552   5.892   5.991   4.106 -0.0906  0.0178  0.1092
  113MOL     H940553   6.484   6.412   4.129  0.1555  0.8960  0.3714
  113MOL    H1040554   6.404   6.335   3.987  2.2376  1.4918 -1.6132
  113MOL    H1140555   6.200   6.477   4.050  0.0154  0.8723  0.3137
  113MOL    H1240556   6.080   6.103   4.226 -1.2200  0.2372  1.3624
  113MOL    H1340557   5.974   6.204   4.301 -0.5256 -1.0875 -0.6571
  113MOL    H1440558   5.817   6.188   4.116 -1.7927 -4.1843 -1.8090
  113MOL    H1540559   5.949   6.170   3.998  0.0602 -2.0592 -1.0719
  113MOL    H1640560   5.801   5.964   4.052 -0.2094  0.3415  0.1425
  113MOL    H1740561   5.969   5.929   4.060 -0.7251 -1.7827  1.4235
  113MOL    H1840562   5.870   5.974   4.211 -0.7069 -1.1571 -0.1950
  113MOL    H1940563   6.439   6.496   3.984 -1.3073  1.4353  0.6811
  113MOL    C2040564   6.271   6.550   4.237 -0.6241  0.8926 -0.0061
  113MOL    C2140565   6.139   6.601   4.295 -0.7568 -0.0385  0.2568
  113MOL    C2240566   6.147   6.604   4.450  0.1384 -0.3070  0.2431
  113MOL    O2340567   6.094   6.519   4.524 -0.7321  0.0293  0.6008
  113MOL    O2440568   6.229   6.700   4.494 -0.3603  0.6141  0.1345
  113MOL    C2540569   6.279   6.695   4.625  0.3495 -0.4654  0.3997
  113MOL    C2640570   6.189   6.772   4.717 -0.0308  0.1761 -0.4367
  113MOL    C2740571   6.165   6.916   4.673  0.2461 -0.4605 -1.0801
  113MOL    H2840572   6.332   6.636   4.207 -2.5268  1.6121 -1.9579
  113MOL    H2940573   6.328   6.505   4.318 -1.0542  3.6196  1.9025
  113MOL    H3040574   6.064   6.527   4.268  1.5935 -2.1045 -0.8550
  113MOL    H3140575   6.282   6.589   4.652  1.0005 -0.6635 -0.4316
  113MOL    H3240576   6.376   6.744   4.628 -0.8196  2.2189 -2.8308
  113MOL    H3340577   6.095   6.717   4.714  0.8793 -1.3649 -0.9531
  113MOL    H3440578   6.228   6.776   4.819  0.5923 -2.2408 -0.5565
  113MOL    H3540579   6.148   6.981   4.758  2.5086  1.8984 -2.3485
  113MOL    H3640580   6.077   6.924   4.609 -0.2458 -2.0205 -0.6132
  113MOL    H3740581   6.253   6.954   4.621  0.2875 -1.2122 -1.5723
  113MOL    C3840582   6.110   6.745   4.238 -0.7900  0.6832  0.2888
  113MOL    C3940583   6.103   6.744   4.078 -0.6151 -0.6463  0.3656
  113MOL    C4040584   5.983   6.659   4.028 -0.4114 -1.2532 -0.0760
  113MOL    O4140585   6.003   6.573   3.938 -0.0755 -0.6482  0.3933
  113MOL    O4240586   5.858   6.698   4.080  0.2059 -0.2701 -0.5171
  113MOL    C4340587   5.741   6.630   4.043  0.4239  0.0839 -0.2842
  113MOL    C4440588   5.734   6.493   4.117  0.2810 -0.4037  0.4510
  113MOL    C4540589   5.723   6.504   4.271 -0.4332  0.7088 -0.9396
  113MOL    H4640590   6.184   6.821   4.265 -0.3817  0.7505 -0.9895
  113MOL    H4740591   6.015   6.784   4.274 -1.6492 -0.2305 -0.9209
  113MOL    H4840592   6.200   6.701   4.049  1.3602  3.0992  1.1010
  113MOL    H4940593   5.653   6.690   4.069  0.3783  0.7342 -1.8754
  113MOL    H5040594   5.735   6.632   3.934 -1.0853  0.9315 -0.2072
  113MOL    H5140595   5.646   6.440   4.082  1.4814 -1.4038 -1.1495
  113MOL    H5240596   5.820   6.429   4.094  2.3376  2.6049 -0.4462
  113MOL    H5340597   5.823   6.512   4.314  0.3848 -2.4197 -2.0415
  113MOL    H5440598   5.698   6.400   4.295  0.3346  0.8302  0.4086
  113MOL    H5540599   5.650   6.561   4.327 -0.7131 -0.8133  0.2598
  113MOL    C5640600   6.111   6.884   4.016 -0.2659 -0.2423 -0.1362
  113MOL    C5740601   5.999   6.986   4.057 -0.9685 -0.0874  0.2714
  113MOL    C5840602   6.050   7.100   4.138 -0.1439 -0.0880 -0.3020
  113MOL    O5940603   6.121   7.188   4.096 -0.1842 -0.1967  0.9936
  113MOL    O6040604   6.011   7.082   4.273 -0.3660 -0.2956  0.0989
  113MOL    C6140605   6.041   7.194   4.357 -0.6801  0.4242 -0.3876
  113MOL    C6240606   5.945   7.217   4.463 -0.0331  0.0528 -0.1464
  113MOL    C6340607   5.977   7.336   4.556 -0.0030 -0.5657 -0.3302
  113MOL    H6440608   6.117   6.877   3.907  2.3753 -0.9971  0.0102
  113MOL    H6540609   6.210   6.915   4.049 -0.3593  1.2498 -1.2311
  113MOL    H6640610   5.932   6.934   4.126  0.4479 -0.7066  1.2087
  113MOL    H6740611   6.141   7.173   4.394 -1.7830 -1.9612  1.3691
  113MOL    H6840612   6.055   7.281   4.293  1.9047  1.1967  1.1349
  113MOL    H6940613   5.846   7.223   4.417  0.9801 -0.9123 -2.5272
  113MOL    H7040614   5.941   7.131   4.529  1.4707 -0.2670 -0.4642
  113MOL    H7140615   5.902   7.340   4.635 -0.6674 -0.6922 -0.9510
  113MOL    H7240616   5.993   7.431   4.504 -0.0990  0.3197  1.2371
  113MOL    H7340617   6.066   7.307   4.611  0.7410  0.1232 -1.1447
  113MOL    C7440618   5.903   7.030   3.950 -0.1289 -0.5700  0.5171
  113MOL    C7540619   5.764   7.067   3.994  0.7123 -0.0249 -0.3094
  113MOL    C7640620   5.751   7.212   4.047 -0.3321  0.2056 -0.4958
  113MOL    O7740621   5.720   7.238   4.162  0.0190  0.2005  0.4836
  113MOL    O7840622   5.778   7.303   3.953 -0.4018  0.0805 -0.5256
  113MOL    C7940623   5.770   7.439   3.984  0.0618 -0.1396 -0.3661
  113MOL    C8040624   5.913   7.478   4.025  0.2627 -0.2735 -0.0556
  113MOL    C8140625   6.013   7.469   3.912 -0.4110 -0.0951 -0.7623
  113MOL    H8240626   5.897   6.945   3.881 -1.6096 -1.5376  1.8099
  113MOL    H8340627   5.942   7.105   3.882 -0.9834 -1.7756 -1.3551
  113MOL    H8440628   5.730   7.004   4.077 -0.9241 -0.7726 -1.5195
  113MOL    H8540629   5.743   7.484   3.889  1.8713  0.3979 -0.6373
  113MOL    H8640630   5.689   7.457   4.055 -0.1605 -0.7699 -0.4554
  113MOL    H8740631   5.922   7.574   4.075  0.6098 -1.1782  1.6383
  113MOL    H8840632   5.934   7.401   4.099 -2.0614 -1.4437 -0.5955
  113MOL    H8940633   6.036   7.369   3.875  1.3123  0.1947 -0.5013
  113MOL    H9040634   6.110   7.513   3.933  0.4237 -1.8926 -0.7475
  113MOL    H9140635   5.977   7.538   3.836  2.1413 -0.6440 -2.5049
  113MOL    C9240636   5.677   7.034   3.874  0.5583 -0.1405 -0.4165
  113MOL    C9340637   5.517   7.059   3.884 -0.5780 -0.3878 -0.0155
  113MOL    C9440638   5.456   7.023   3.746 -1.3383  0.4385  0.8794
  113MOL    O9540639   5.511   6.942   3.675 -0.1020  0.4153  0.4402
  113MOL    O9640640   5.353   7.100   3.709 -0.0788  0.0338 -0.0692
  113MOL    C9740641   5.287   7.079   3.583 -0.7207  0.5689  0.1797
  113MOL    C9840642   5.220   7.219   3.543 -0.2889  0.0134  0.2211
  113MOL    C9940643   5.146   7.187   3.407  0.2819 -0.5061 -0.1205
  113MOL   H10040644   5.688   6.926   3.868  2.3845  0.0281 -0.5607
  113MOL   H10140645   5.710   7.072   3.778 -2.4462  1.5932 -0.8203
  113MOL   H10240646   5.482   7.160   3.904  2.9126  1.1265 -1.0434
  113MOL   H10340647   5.365   7.069   3.508 -1.0191 -2.1344  0.2008
  113MOL   H10440648   5.218   6.995   3.589 -0.6584  0.5612  0.8973
  113MOL   H10540649   5.154   7.256   3.620 -1.4038 -0.7394 -0.3544
  113MOL   H10640650   5.302   7.290   3.537  0.4088 -0.8484 -0.8097
  113MOL   H10740651   5.205   7.139   3.329  1.8426 -0.2583  0.8918
  113MOL   H10840652   5.111   7.288   3.386 -2.0044 -1.1816  0.3265
  113MOL   H10940653   5.061   7.121   3.425 -0.2385  0.3590  0.6137
  113MOL   C11040654   5.452   6.972   3.998 -0.0166 -0.4315 -0.4702
  113MOL   C11140655   5.399   7.058   4.120 -0.3254  0.0375 -0.0247
  113MOL   C11240656   5.282   7.148   4.077  0.0059  0.0230  0.2113
  113MOL   O11340657   5.178   7.102   4.034 -0.6152 -0.1925 -0.0242
  113MOL   O11440658   5.300   7.277   4.101  0.1005 -0.0728 -0.2806
  113MOL   C11540659   5.211   7.380   4.057 -0.2615 -0.1149 -0.0811
  113MOL   C11640660   5.271   7.459   3.942 -0.3714 -0.0510 -0.5514
  113MOL   C11740661   5.404   7.522   3.980  0.8322  0.0951 -0.3342
  113MOL   H11840662   5.518   6.894   4.036  0.3332 -1.3741 -2.9054
  113MOL   H11940663   5.368   6.930   3.942 -0.3185  0.6580 -0.8377
  113MOL   H12040664   5.484   7.117   4.155 -0.3940 -0.1542  0.4831
  113MOL   H12140665   5.113   7.339   4.032 -0.2249 -0.6426  0.6039
  113MOL   H12240666   5.189   7.444   4.143 -0.3351  1.0078 -0.9234
  113MOL   H12340667   5.268   7.401   3.850 -1.8731 -0.1717 -0.4385
  113MOL   H12440668   5.197   7.532   3.908  0.7171  0.8835 -0.9483
  113MOL   H12540669   5.396   7.598   4.058  0.9943  0.3148 -0.5278
  113MOL   H12640670   5.461   7.570   3.900  0.4620  2.3736  0.7254
  113MOL   H12740671   5.468   7.449   4.028 -0.3110 -0.2400  0.6910
  113MOL   C12840672   5.355   6.959   4.231  0.2704  0.6335 -0.8719
  113MOL   C12940673   5.403   6.999   4.375 -1.0880 -0.5202 -0.5194
  113MOL   C13040674   5.556   6.998   4.388 -0.9881 -0.2717 -0.3670
  113MOL   O13140675   5.620   7.105   4.404  0.0859 -0.3795  0.5294
  113MOL   O13240676   5.605   6.872   4.377 -0.2855  0.0410  0.0150
  113MOL   C13340677   5.748   6.859   4.383 -0.3744  0.1541  0.0437
  113MOL   C13440678   5.780   6.784   4.514  0.1889  0.2548 -0.4905
  113MOL   C13540679   5.754   6.864   4.643  0.6016 -0.4110  0.2429
  113MOL   H13640680   5.392   6.863   4.195 -0.7207  0.2495 -0.8853
  113MOL   H13740681   5.247   6.951   4.224  0.0341  2.8099 -0.0507
  113MOL   H13840682   5.363   6.925   4.445 -0.5696 -0.7146 -0.4310
  113MOL   H13940683   5.775   6.794   4.300 -0.4802  0.1565  0.0076
  113MOL   H14040684   5.801   6.950   4.355  1.2434 -0.4481  1.1068
  113MOL   H14140685   5.732   6.687   4.513 -0.3312  0.4618  1.6931
  113MOL   H14240686   5.884   6.750   4.510 -0.3870 -1.5992 -0.0929
  113MOL   H14340687   5.648   6.855   4.666  0.5831 -0.0953  0.2757
  113MOL   H14440688   5.775   6.967   4.614 -0.0538 -1.0163 -2.5303
  113MOL   H14540689   5.810   6.828   4.730  0.3498  0.6333  0.8472
  113MOL   C14640690   5.361   7.140   4.418  0.0126  0.3255  0.2245
  113MOL   C14740691   5.210   7.151   4.430 -0.9272  0.3572  0.0844
  113MOL   C14840692   5.157   7.057   4.541  0.6309 -0.2349 -0.3168
  113MOL   O14940693   5.105   6.949   4.518 -0.3240  0.2302 -0.8659
  113MOL   O15040694   5.172   7.106   4.662 -0.3034 -0.1644  0.5574
  113MOL   C15140695   5.139   7.018   4.768  0.4802 -0.1252 -0.3410
  113MOL   C15240696   5.256   6.922   4.784  0.0036 -0.0409 -0.3854
  113MOL   C15340697   5.394   6.986   4.792 -0.4980 -0.0844  0.2078
  113MOL   H15440698   5.393   7.217   4.348  1.3679 -0.0120  0.4638
  113MOL   H15540699   5.406   7.163   4.515  1.0595  1.3515 -0.5014
  113MOL   H15640700   5.160   7.121   4.337  1.5343 -1.4236 -0.7006
  113MOL   H15740701   5.117   7.085   4.851 -1.0452 -0.4219 -0.4922
  113MOL   H15840702   5.051   6.956   4.749  0.3209  0.8410 -2.9319
  113MOL   H15940703   5.231   6.873   4.878 -0.9067  2.7174  0.8644
  113MOL   H16040704   5.245   6.845   4.708 -0.5838  0.4812 -0.8414
  113MOL   H16140705   5.389   7.076   4.853  1.7051 -1.4386  2.5283
  113MOL   H16240706   5.434   7.013   4.695 -2.2035  0.5655 -0.3308
  113MOL   H16340707   5.468   6.921   4.840  0.5917 -0.6354 -2.1519
  113MOL   C16440708   5.160   7.297   4.437 -0.1118 -0.1897  0.4291
  113MOL   C16540709   5.010   7.322   4.430  0.2539  0.9674 -0.2196
  113MOL   C16640710   4.968   7.471   4.442 -0.0410  0.1395  0.6941
  113MOL   O16740711   5.053   7.557   4.421  0.0210 -0.1006 -0.3682
  113MOL   O16840712   4.837   7.487   4.473 -0.1467  0.1505  0.1584
  113MOL   C16940713   4.789   7.622   4.505  0.5909 -0.3558 -0.4003
  113MOL   C17040714   4.802   7.652   4.658  0.8006  0.4103  0.0759
  113MOL   C17140715   4.703   7.580   4.746 -0.3740 -0.0880 -0.0094
  113MOL   H17240716   5.209   7.351   4.356  0.7104  1.2100  1.8369
  113MOL   H17340717   5.212   7.333   4.526  0.3744 -0.4424  0.2481
  113MOL   H17440718   4.960   7.270   4.512 -1.9797 -0.1617 -2.2520
  113MOL   H17540719   4.843   7.697   4.448  2.4328  0.0098  1.7401
  113MOL   H17640720   4.686   7.645   4.477  1.0501  0.4067 -1.4847
  113MOL   H17740721   4.907   7.644   4.687  1.1683  0.3031 -1.2755
  113MOL   H17840722   4.783   7.758   4.677 -2.5214 -0.4585  2.0339
  113MOL   H17940723   4.722   7.476   4.770 -1.3494 -0.7467 -2.0122
  113MOL   H18040724   4.603   7.596   4.705 -0.0689  1.4500 -0.2127
  113MOL   H18140725   4.696   7.628   4.844 -1.7420 -0.1223 -0.0770
  113MOL   C18240726   4.935   7.263   4.296 -0.1101 -0.4579  0.0756
  113MOL   C18340727   4.873   7.133   4.337  0.4217 -0.2497 -0.6375
  113MOL   C18440728   4.736   7.160   4.402  0.0043  0.1205 -0.5184
  113MOL   O18540729   4.717   7.158   4.529 -0.3161 -0.3552 -0.0722
  113MOL   O18640730   4.640   7.186   4.316 -0.0378 -0.2470  0.4796
  113MOL   C18740731   4.508   7.227   4.355  0.4707 -0.1136  0.3956
  113MOL   C18840732   4.415   7.106   4.395 -0.1013  0.1224  0.9018
  113MOL   C18940733   4.388   7.006   4.275  0.1829  0.9939 -0.3040
  113MOL   H19040734   5.013   7.248   4.221 -0.4592 -0.8956 -0.1988
  113MOL   H19140735   4.870   7.339   4.253  2.9500  1.9009 -0.5703
  113MOL   H19240736   4.936   7.073   4.402 -0.3086  1.0925  1.3356
  113MOL   H19340737   4.505   7.311   4.424 -0.6446  0.0826  0.1196
  113MOL   H19440738   4.462   7.270   4.266 -1.9666  0.3143  1.8164
  113MOL   H19540739   4.450   7.052   4.482 -0.7952 -2.1094 -0.1598
  113MOL   H19640740   4.319   7.144   4.430 -1.3188  0.5539 -2.6740
  113MOL   H19740741   4.480   6.978   4.223 -0.3736  0.2590 -0.8814
  113MOL   H19840742   4.330   7.051   4.194  2.3103 -0.8531 -2.9424
  113MOL   H19940743   4.339   6.917   4.314 -0.1947  0.1097 -2.7000
  113MOL   C20040744   4.863   7.034   4.214  0.6670 -0.4377  0.7876
  113MOL   C20140745   4.791   6.901   4.223 -0.0997 -0.0463 -0.2307
  113MOL   C20240746   4.755   6.837   4.091  0.0754  0.1812  0.0422
  113MOL   O20340747   4.830   6.757   4.039 -0.5284 -0.0046  0.7473
  113MOL   O20440748   4.643   6.892   4.039  0.2317 -0.4779 -0.4920
  113MOL   C20540749   4.585   6.847   3.913  0.5968 -0.0007  0.4893
  113MOL   C20640750   4.433   6.872   3.907 -0.1587 -0.1674 -0.0951
  113MOL   C20740751   4.414   7.025   3.906  0.1876 -0.1286 -0.0876
  113MOL   H20840752   4.963   7.001   4.185  0.7445 -0.2292  0.8210
  113MOL   H20940753   4.809   7.092   4.138  1.9412  1.0099  0.9602
  113MOL   H21040754   4.693   6.921   4.268  1.3420  1.6838  2.2805
  113MOL   H21140755   4.634   6.889   3.825  1.2733 -0.2706  0.7364
  113MOL   H21240756   4.603   6.740   3.898  0.7669  0.3133 -1.6361
  113MOL   H21340757   4.403   6.819   3.816  2.8813 -0.2647 -1.0866
  113MOL   H21440758   4.383   6.835   3.997 -1.7841  0.2029 -0.8387
  113MOL   H21540759   4.441   7.057   3.805  0.3277 -1.6872 -0.5575
  113MOL   H21640760   4.481   7.081   3.972 -0.2848  0.3668 -0.0302
  113MOL   H21740761   4.317   7.062   3.937  1.3979  1.5497  1.8434
  113MOL   C21840762   4.863   6.795   4.316  0.1828 -0.5572  0.0593
  113MOL   C21940763   4.801   6.768   4.451  0.6007 -0.1004 -0.3501
  113MOL   C22040764   4.658   6.719   4.443 -0.0968  0.4145 -0.0965
  113MOL   O22140765   4.570   6.782   4.496 -0.3607  0.4660  0.6519
  113MOL   O22240766   4.648   6.604   4.378 -0.1218 -0.4429 -0.2528
  113MOL   C22340767   4.524   6.528   4.398  0.5980  0.2069 -0.4116
  113MOL   C22440768   4.490   6.440   4.277  0.0782 -0.1220 -0.0212
  113MOL   C22540769   4.388   6.337   4.320  0.1860 -0.2967 -0.0132
  113MOL   H22640770   4.965   6.827   4.337 -0.6375  1.2305  1.5930
  113MOL   H22740771   4.866   6.694   4.276  1.1955 -0.3426 -0.4151
  113MOL   H22840772   4.802   6.867   4.499 -1.2865 -1.0025  1.6242
  113MOL   H22940773   4.541   6.464   4.485  1.1245  0.6398 -0.1922
  113MOL   H23040774   4.442   6.591   4.432  0.1988  1.0194 -2.8218
  113MOL   H23140775   4.442   6.501   4.201  1.6770  0.7674 -0.3289
  113MOL   H23240776   4.573   6.391   4.227  0.3590  0.0053  0.3189
  113MOL   H23340777   4.348   6.297   4.228 -0.3524  0.5135 -0.1345
  113MOL   H23440778   4.303   6.377   4.374  1.0545  2.1952 -0.4306
  113MOL   H23540779   4.428   6.252   4.376 -1.1971 -0.5557  0.6101
  113MOL   C23640780   4.893   6.670   4.533 -0.3772  0.2051  0.3557
  113MOL   C23740781   4.841   6.649   4.674 -0.5396  0.5245 -0.0318
  113MOL   C23840782   4.880   6.514   4.727  0.3613  0.3264  0.9265
  113MOL   O23940783   4.816   6.407   4.705  0.1705 -0.5113 -0.0769
  113MOL   O24040784   5.003   6.510   4.785 -0.1709 -0.5440 -0.2970
  113MOL   C24140785   5.056   6.378   4.821  0.4018 -0.0412  0.6114
  113MOL   C24240786   5.185   6.381   4.906 -0.3485  0.2045 -0.4240
  113MOL   C24340787   5.168   6.476   5.019 -0.1026 -0.2585 -0.3363
  113MOL   H24440788   4.991   6.716   4.541 -0.2171  0.3547 -2.1371
  113MOL   H24540789   4.912   6.576   4.481  1.8854  0.7207  0.2104
  113MOL   H24640790   4.733   6.638   4.674 -0.4087 -0.8706 -1.6785
  113MOL   H24740791   4.984   6.317   4.876  1.8172  0.3862  2.9943
  113MOL   H24840792   5.066   6.318   4.730 -1.6268  1.8717 -0.9366
  113MOL   H24940793   5.208   6.280   4.939 -1.2072 -0.8613 -2.9329
  113MOL   H25040794   5.274   6.416   4.854  0.4588 -0.9312  0.1540
  113MOL   H25140795   5.151   6.577   4.982 -2.5790 -1.3823 -2.4275
  113MOL   H25240796   5.257   6.479   5.082 -0.7551  1.1690  0.5270
  113MOL   H25340797   5.095   6.450   5.096 -0.2674  1.1636 -0.0113
  113MOL   C25440798   4.855   6.773   4.766  0.8303 -0.1812  0.2505
  113MOL   C25540799   4.782   6.778   4.901  0.4648 -0.4567  0.0903
  113MOL   C25640800   4.631   6.742   4.895 -0.4320  0.0225 -0.5267
  113MOL   O25740801   4.595   6.625   4.889  0.2257 -0.5367  0.6130
  113MOL   O25840802   4.561   6.858   4.908 -1.0256 -0.3520 -0.1084
  113MOL   C25940803   4.425   6.859   4.922  0.2673 -0.4984  0.6748
  113MOL   C26040804   4.356   6.819   4.797  0.0625 -0.5701  0.7215
  113MOL   C26140805   4.349   6.922   4.685 -0.1877 -0.7583 -0.4667
  113MOL   H26240806   4.814   6.859   4.715  0.2252 -0.4507  0.2777
  113MOL   H26340807   4.958   6.784   4.799  1.6498 -0.3886 -2.1466
  113MOL   H26440808   4.784   6.884   4.926  0.3096 -0.8543  1.9122
  113MOL   H26540809   4.408   6.798   5.011 -0.3720 -0.0270  0.8761
  113MOL   H26640810   4.391   6.961   4.941 -1.3050 -0.6274 -1.2835
  113MOL   H26740811   4.401   6.726   4.762  0.1047  0.1079 -1.0754
  113MOL   H26840812   4.254   6.787   4.820  0.4021 -1.3442  1.1738
  113MOL   H26940813   4.280   6.894   4.606 -2.7107  1.6120  0.8156
  113MOL   H27040814   4.452   6.931   4.651 -0.0398 -1.9072 -0.3502
  113MOL   H27140815   4.307   7.017   4.717 -0.5098 -1.1918  0.4261
  113MOL   C27240816   4.850   6.695   5.011  0.3085 -0.1296 -0.1240
  113MOL   C27340817   4.833   6.769   5.144 -0.3514 -0.1989 -0.0808
  113MOL   C27440818   4.701   6.735   5.218 -0.0827 -0.3803 -0.1021
  113MOL   O27540819   4.610   6.820   5.221 -0.4574  0.5474 -0.0226
  113MOL   O27640820   4.691   6.611   5.258 -0.1340  0.1730 -0.0130
  113MOL   C27740821   4.567   6.565   5.312  0.3447  0.0735 -0.0368
  113MOL   C27840822   4.524   6.437   5.239 -0.1947  0.1704  0.2533
  113MOL   C27940823   4.624   6.324   5.236  0.2082 -0.4571 -0.5665
  113MOL   H28040824   4.953   6.685   4.979  0.2702  2.3873 -1.1728
  113MOL   H28140825   4.815   6.592   5.013 -2.2908  0.6350 -2.4217
  113MOL   H28240826   4.822   6.875   5.123  2.4411  0.0223 -0.6871
  113MOL   H28340827   4.572   6.540   5.418 -4.3293  1.2114  0.5435
  113MOL   H28440828   4.498   6.648   5.294 -1.5456 -1.9257 -2.2008
  113MOL   H28540829   4.424   6.408   5.269  0.4141  0.7765  2.9309
  113MOL   H28640830   4.521   6.461   5.132  1.4305 -0.6750  0.0019
  113MOL   H28740831   4.645   6.284   5.334 -0.6284  0.8096  0.1491
  113MOL   H28840832   4.709   6.370   5.186  1.0995 -1.0198  0.4253
  113MOL   H28940833   4.589   6.236   5.182 -0.2166 -2.3810  2.7685
  113MOL   C29040834   4.957   6.754   5.238 -0.0349  0.1411  0.2386
  113MOL   C29140835   5.078   6.835   5.183  0.3699  0.0127 -0.9339
  113MOL   C29240836   5.046   6.984   5.187 -0.0316  0.4551 -0.4574
  113MOL   O29340837   5.011   7.047   5.083  0.0913 -0.5504 -0.1180
  113MOL   O29440838   5.044   7.046   5.312 -0.1451  0.3136  0.0618
  113MOL   C29540839   5.020   7.191   5.314  0.3972  0.1425  0.6005
  113MOL   C29640840   4.952   7.213   5.454  0.0244  0.1152  0.5383
  113MOL   C29740841   5.039   7.165   5.568  0.0794 -0.3300  0.5419
  113MOL   H29840842   4.983   6.650   5.257  2.5308  0.5646 -0.6865
  113MOL   H29940843   4.932   6.798   5.335  3.4977 -0.0165  1.2886
  113MOL   H30040844   5.090   6.821   5.076  0.6703 -1.1239 -0.7599
  113MOL   H30140845   5.110   7.247   5.291 -1.3898  1.3695 -3.8622
  113MOL   H30240846   4.960   7.223   5.229  0.4190 -2.0821 -0.2950
  113MOL   H30340847   4.949   7.322   5.456  0.4843  0.1154  1.3977
  113MOL   H30440848   4.856   7.163   5.469 -0.6068  1.3272  0.5905
  113MOL   H30540849   4.998   7.191   5.665  1.6954  0.5484  1.0165
  113MOL   H30640850   5.132   7.222   5.570 -0.7508  1.0107  1.3421
  113MOL   H30740851   5.058   7.058   5.576  1.8729 -0.0513  0.4234
  113MOL   C30840852   5.212   6.799   5.245  0.4940  0.1801  0.0671
  113MOL   C30940853   5.342   6.842   5.156  0.9048 -0.1592 -0.4084
  113MOL   C31040854   5.363   6.995   5.177  0.6614 -0.4289 -0.1471
  113MOL   O31140855   5.335   7.085   5.093  0.2042  0.0228 -0.0827
  113MOL   O31240856   5.421   7.019   5.290  0.3628 -0.4675 -0.2364
  113MOL   C31340857   5.419   7.154   5.346 -0.3044  0.1316  0.0143
  113MOL   C31440858   5.563   7.221   5.348 -0.0458  0.1801  0.0481
  113MOL   C31540859   5.659   7.136   5.434 -0.0468  0.0727  0.4026
  113MOL   H31640860   5.225   6.691   5.246  2.0490  0.3612  0.4851
  113MOL   H31740861   5.217   6.822   5.352 -0.4215 -3.6200  1.0090
  113MOL   H31840862   5.320   6.841   5.049  0.4382  1.0605 -0.3376
  113MOL   H31940863   5.342   7.216   5.300  0.9584  1.8731  0.2070
  113MOL   H32040864   5.383   7.141   5.448  1.9890 -0.0610  0.8340
  113MOL   H32140865   5.596   7.236   5.245 -1.7513  0.4884 -0.4747
  113MOL   H32240866   5.549   7.322   5.388 -0.3307  0.1110  0.1275
  113MOL   H32340867   5.652   7.033   5.398  1.7042 -0.4335  1.4518
  113MOL   H32440868   5.761   7.172   5.426 -0.1934  0.1928 -1.1905
  113MOL   H32540869   5.641   7.132   5.541 -0.0724 -1.4906  0.3520
  113MOL   C32640870   5.464   6.757   5.198 -0.5092  0.6201  0.1185
  113MOL   C32740871   5.586   6.753   5.103  0.8731 -0.3136  0.3242
  113MOL   C32840872   5.685   6.862   5.135  0.0634 -0.7779 -0.4187
  113MOL   O32940873   5.770   6.835   5.224  0.1487 -0.7151 -0.5418
  113MOL   O33040874   5.688   6.963   5.045 -0.0595  0.1177 -0.2779
  113MOL   C33140875   5.795   7.052   5.059 -0.3420  0.2193  0.0211
  113MOL   C33240876   5.820   7.133   4.936 -0.3125  0.3013  0.2697
  113MOL   C33340877   5.700   7.222   4.895  0.0970  0.2419 -0.7915
  113MOL   H33440878   5.422   6.657   5.187  1.0025  0.0089 -0.2062
  113MOL   H33540879   5.493   6.774   5.302  0.9137 -1.5685  0.1006
  113MOL   H33640880   5.543   6.781   5.007  0.3605 -0.0085  0.6407
  113MOL   H33740881   5.781   7.118   5.145  0.4220 -0.2690  0.5350
  113MOL   H33840882   5.886   6.996   5.083 -0.0977  0.8350  0.5584
  113MOL   H33940883   5.915   7.186   4.943 -0.6575  0.8856  0.5252
  113MOL   H34040884   5.842   7.060   4.858  5.0508  1.6868  0.3045
  113MOL   H34140885   5.619   7.154   4.867  0.7055 -1.3468  1.1436
  113MOL   H34240886   5.659   7.281   4.976  0.7682  0.1813 -0.4052
  113MOL   H34340887   5.720   7.274   4.801  1.3034  2.1879  0.5171
  113MOL   C34440888   5.652   6.614   5.089  0.4796  0.6430 -0.9410
  113MOL   C34540889   5.737   6.599   4.966  0.1043  0.1994  0.2082
  113MOL   C34640890   5.652   6.540   4.852  0.4034 -0.0024 -0.3926
  113MOL   O34740891   5.538   6.588   4.824  0.1029 -0.1550 -0.1274
  113MOL   O34840892   5.700   6.437   4.798  0.0805 -0.6740  0.1961
  113MOL   C34940893   5.647   6.375   4.684 -0.7541 -0.1653  0.4669
  113MOL   C35040894   5.737   6.259   4.647  0.4633  0.2358 -0.0174
  113MOL   C35140895   5.883   6.301   4.609 -0.5192 -0.6517 -0.4477
  113MOL   H35240896   5.574   6.538   5.092  3.3339 -2.3724  0.1259
  113MOL   H35340897   5.714   6.596   5.177 -1.4225  0.8573  0.4869
  113MOL   H35440898   5.811   6.524   4.993  0.2402  0.2018 -0.1554
  113MOL   H35540899   5.543   6.353   4.709 -1.7548  0.3793 -2.8902
  113MOL   H35640900   5.624   6.436   4.596 -0.1609 -0.2597  0.2463
  113MOL   H35740901   5.749   6.206   4.741  1.4004  0.6128  0.0896
  113MOL   H35840902   5.697   6.190   4.573  1.0482 -0.3802  0.2373
  113MOL   H35940903   5.944   6.211   4.608 -1.1985 -1.1130 -0.8193
  113MOL   H36040904   5.887   6.347   4.510 -3.5369  1.2477  0.2276
  113MOL   H36140905   5.926   6.367   4.685 -1.8747  1.2056 -1.2324
  113MOL   H36240906   5.773   6.698   4.940 -1.2744  0.5501 -0.4482
  114MOL     C140907   1.472   4.218   1.254 -0.0999 -0.6244  0.0952
  114MOL     C240908   1.320   4.229   1.245  0.6000 -0.1986  0.4648
  114MOL     C340909   1.255   4.090   1.234 -0.8130 -0.2268 -0.1676
  114MOL     O440910   1.277   3.997   1.314 -0.1955  0.4093  0.0709
  114MOL     O540911   1.171   4.093   1.128  0.0404  0.3123  1.7040
  114MOL     C640912   1.121   3.969   1.087 -0.3983 -0.4371 -0.2504
  114MOL     C740913   1.027   3.994   0.963 -0.3619 -0.8426  0.2064
  114MOL     C840914   0.956   3.870   0.909  0.8821 -0.1489  0.5975
  114MOL     H940915   1.516   4.292   1.188  0.9214 -1.3442 -0.0363
  114MOL    H1040916   1.512   4.240   1.353  1.6518 -1.4010 -0.4244
  114MOL    H1140917   1.298   4.288   1.156  0.8308  2.2760  1.9880
  114MOL    H1240918   1.200   3.899   1.063  1.5841  2.3009 -2.0095
  114MOL    H1340919   1.074   3.926   1.176  2.1976 -1.1269  0.8351
  114MOL    H1440920   0.943   4.057   0.992  1.2338  1.0088  0.9112
  114MOL    H1540921   1.090   4.049   0.894  0.2316 -3.0337 -1.0410
  114MOL    H1640922   0.935   3.881   0.803  0.6513  1.1940  0.7716
  114MOL    H1740923   1.024   3.785   0.913  0.3531 -0.5746  0.5957
  114MOL    H1840924   0.866   3.851   0.967  0.9384  0.5551  0.9211
  114MOL    H1940925   1.521   4.122   1.234  1.7835 -0.5091  3.7867
  114MOL    C2040926   1.260   4.300   1.364  1.1082  0.3724 -0.2960
  114MOL    C2140927   1.286   4.447   1.376  0.0127 -0.1593 -0.9649
  114MOL    C2240928   1.230   4.524   1.264  0.2970 -0.5435 -0.3829
  114MOL    O2340929   1.309   4.576   1.186 -0.2552  0.0343 -0.3255
  114MOL    O2440930   1.092   4.523   1.254  0.8481 -0.3211 -0.1448
  114MOL    C2540931   1.035   4.551   1.127 -0.4433 -0.1591 -0.4637
  114MOL    C2640932   0.880   4.566   1.144  0.9716 -0.7368 -0.1225
  114MOL    C2740933   0.812   4.429   1.179  0.6150  0.2448  0.6058
  114MOL    H2840934   1.299   4.256   1.455  0.4011 -0.2189 -0.2687
  114MOL    H2940935   1.151   4.291   1.353  0.8044  1.9893  1.1404
  114MOL    H3040936   1.394   4.458   1.373  0.3985 -1.7807  3.2773
  114MOL    H3140937   1.074   4.643   1.084 -1.0199  0.5921  0.5800
  114MOL    H3240938   1.066   4.486   1.046  0.6976 -0.1489 -0.0357
  114MOL    H3340939   0.858   4.640   1.220  1.9974 -2.0492  1.4947
  114MOL    H3440940   0.832   4.609   1.056 -0.6114  1.0536  1.5861
  114MOL    H3540941   0.834   4.405   1.282 -0.8244 -2.2474  0.3532
  114MOL    H3640942   0.843   4.351   1.110  2.1514  1.5139 -0.1815
  114MOL    H3740943   0.708   4.453   1.155  1.2025  0.2300 -2.2111
  114MOL    C3840944   1.243   4.495   1.519  0.2206  0.1728 -0.7843
  114MOL    C3940945   1.354   4.506   1.619 -0.3080  0.0608  0.5092
  114MOL    C4040946   1.439   4.382   1.638 -1.0484  0.3199  0.6208
  114MOL    O4140947   1.545   4.372   1.575  0.1558 -0.3970  0.0669
  114MOL    O4240948   1.396   4.303   1.735  0.0102  0.5787  0.1527
  114MOL    C4340949   1.468   4.190   1.789 -0.2739 -0.1411 -0.2515
  114MOL    C4440950   1.424   4.071   1.710 -0.5232 -0.2688  0.0501
  114MOL    C4540951   1.300   3.999   1.767 -0.2940  0.6011  0.1200
  114MOL    H4640952   1.174   4.417   1.551 -0.5516  0.3242 -2.0303
  114MOL    H4740953   1.184   4.587   1.513  0.5444  0.3474 -1.2979
  114MOL    H4840954   1.304   4.529   1.713  0.3844 -0.0013  0.8988
  114MOL    H4940955   1.573   4.216   1.775  0.3718 -1.6752  1.4354
  114MOL    H5040956   1.446   4.178   1.895  0.1698 -0.2184 -0.1668
  114MOL    H5140957   1.413   4.090   1.604 -0.0957  1.0222  0.2331
  114MOL    H5240958   1.501   3.997   1.730  1.7054  1.8848 -0.4285
  114MOL    H5340959   1.306   4.005   1.875 -0.2137  1.0661  0.0931
  114MOL    H5440960   1.307   3.894   1.738  0.1168  0.7759 -0.4315
  114MOL    H5540961   1.212   4.052   1.729  0.0013  0.4816 -0.7585
  114MOL    C5640962   1.432   4.640   1.587  0.1676 -0.0514 -0.3407
  114MOL    C5740963   1.540   4.678   1.694  0.0065  0.7305  0.4975
  114MOL    C5840964   1.630   4.796   1.650 -0.1722 -0.2023  0.1166
  114MOL    O5940965   1.627   4.903   1.720  0.4252 -0.1088  0.3927
  114MOL    O6040966   1.725   4.765   1.556  0.4243 -0.2126 -0.0432
  114MOL    C6140967   1.819   4.865   1.511  0.0485  0.4659 -0.3871
  114MOL    C6240968   1.946   4.838   1.582  0.0308  0.5264  0.4960
  114MOL    C6340969   1.953   4.872   1.734 -0.1873  0.5506  0.2941
  114MOL    H6440970   1.357   4.719   1.585 -0.3735 -0.4351  2.3996
  114MOL    H6540971   1.481   4.644   1.490 -0.7260  1.7386 -0.7428
  114MOL    H6640972   1.606   4.592   1.702 -1.8547 -0.9057 -1.0865
  114MOL    H6740973   1.834   4.864   1.403 -0.6896 -0.6663 -0.4851
  114MOL    H6840974   1.785   4.965   1.537  1.8228  0.9161  0.3294
  114MOL    H6940975   1.972   4.733   1.573  0.2090  0.5740  0.4534
  114MOL    H7040976   2.020   4.904   1.536 -1.1347  0.5740 -1.3885
  114MOL    H7140977   1.891   4.807   1.796 -1.8517  0.7445 -1.1285
  114MOL    H7240978   1.925   4.975   1.757 -1.9149  0.3036 -0.5924
  114MOL    H7340979   2.059   4.859   1.755 -0.0056 -0.4374 -1.1493
  114MOL    C7440980   1.470   4.698   1.829  0.1436  0.4960  0.1248
  114MOL    C7540981   1.568   4.672   1.946 -0.0558 -0.3883 -0.1276
  114MOL    C7640982   1.531   4.745   2.072  0.1651  0.1707  0.0720
  114MOL    O7740983   1.417   4.792   2.099 -0.3119  0.5113 -0.3180
  114MOL    O7840984   1.636   4.776   2.141  0.1858  0.2254 -0.1707
  114MOL    C7940985   1.628   4.840   2.263 -0.2125 -0.3129  0.5572
  114MOL    C8040986   1.756   4.810   2.334  0.0261  0.0560 -0.1211
  114MOL    C8140987   1.764   4.664   2.407 -0.2859  0.3248  0.6928
  114MOL    H8240988   1.384   4.636   1.855  0.4320  0.4150  0.8904
  114MOL    H8340989   1.421   4.795   1.828 -1.9863 -0.5542 -1.0881
  114MOL    H8440990   1.667   4.694   1.907 -0.4595 -0.4043 -1.1630
  114MOL    H8540991   1.583   4.939   2.262  1.9271  0.7003 -0.2193
  114MOL    H8640992   1.551   4.797   2.326 -1.1055  0.0600 -0.2597
  114MOL    H8740993   1.833   4.826   2.258  1.3239  0.6077  1.2846
  114MOL    H8840994   1.769   4.881   2.415  0.0941 -1.2288  1.0197
  114MOL    H8940995   1.692   4.664   2.490 -1.5636  1.1808 -0.3909
  114MOL    H9040996   1.858   4.631   2.450  1.1118  0.8996 -1.8404
  114MOL    H9140997   1.728   4.592   2.334 -0.1959  0.5344  0.4416
  114MOL    C9240998   1.586   4.511   1.969 -0.0071 -0.2066  0.0589
  114MOL    C9340999   1.703   4.472   2.055 -0.4647 -0.6999 -0.0625
  114MOL    C9441000   1.686   4.326   2.092 -0.2560  0.2650  0.0424
  114MOL    O9541001   1.683   4.237   2.006 -0.6066  0.8128  0.0258
  114MOL    O9641002   1.669   4.310   2.223  0.0586 -0.3978 -0.1962
  114MOL    C9741003   1.687   4.179   2.279  0.3933  0.1694 -0.5527
  114MOL    C9841004   1.619   4.175   2.412 -0.0477  0.3687  0.2360
  114MOL    C9941005   1.633   4.029   2.480  0.1039 -0.4651 -0.4228
  114MOL   H10041006   1.581   4.457   1.874 -0.7535  0.6524 -0.3863
  114MOL   H10141007   1.493   4.479   2.015  0.4706  0.0222  1.2011
  114MOL   H10241008   1.705   4.544   2.137 -0.2251  1.5202 -1.9387
  114MOL   H10341009   1.647   4.113   2.202  0.0866  0.7328 -0.8789
  114MOL   H10441010   1.796   4.170   2.282  0.2251 -2.3884 -0.6237
  114MOL   H10541011   1.657   4.255   2.474 -0.5420 -0.2274  1.3267
  114MOL   H10641012   1.511   4.190   2.401 -0.1230  0.0211  0.4706
  114MOL   H10741013   1.584   4.022   2.577  0.7210 -1.2577 -0.1579
  114MOL   H10841014   1.736   3.995   2.496  0.4000  0.1794 -0.9456
  114MOL   H10941015   1.587   3.958   2.412 -0.2921 -0.6311  0.0156
  114MOL   C11041016   1.836   4.501   1.985 -0.2768 -0.0850 -0.5588
  114MOL   C11141017   1.963   4.449   2.057 -1.1087  0.4803  0.6737
  114MOL   C11241018   1.998   4.309   2.011 -0.5505 -0.0627  0.1817
  114MOL   O11341019   2.019   4.275   1.894  0.1807  0.0588  0.1992
  114MOL   O11441020   1.982   4.207   2.107 -0.1871  0.1479  0.1397
  114MOL   C11541021   1.990   4.071   2.075 -0.1783  0.2482 -0.1030
  114MOL   C11641022   2.139   4.040   2.071 -0.3261 -0.4671  0.2581
  114MOL   C11741023   2.156   3.885   2.067  0.4789 -0.4353  0.0226
  114MOL   H11841024   1.845   4.610   1.988  0.9575 -0.1915 -0.1080
  114MOL   H11941025   1.827   4.473   1.880 -3.4545 -0.1276 -0.3300
  114MOL   H12041026   1.943   4.453   2.164 -1.4655  0.5676  0.6054
  114MOL   H12141027   1.933   4.018   2.151  0.2983 -0.4517 -0.2386
  114MOL   H12241028   1.956   4.049   1.973 -0.2209  0.8799 -0.2323
  114MOL   H12341029   2.182   4.071   1.975  0.6369  0.0449  0.8500
  114MOL   H12441030   2.195   4.084   2.153 -0.9390 -3.0146  2.0928
  114MOL   H12541031   2.140   3.841   2.166 -0.4532  0.0983  0.1152
  114MOL   H12641032   2.258   3.856   2.043  0.1237 -1.3429 -0.4211
  114MOL   H12741033   2.096   3.833   1.992 -2.1282 -1.4297  2.6742
  114MOL   C12841034   2.079   4.543   2.028  0.0971 -0.1352 -0.0439
  114MOL   C12941035   2.226   4.533   2.075  0.2365 -0.3579 -0.6960
  114MOL   C13041036   2.244   4.559   2.231 -0.0374 -0.0725 -0.4907
  114MOL   O13141037   2.288   4.663   2.280 -0.4589  0.1698 -0.4160
  114MOL   O13241038   2.193   4.449   2.293  0.1433 -0.1740 -0.3442
  114MOL   C13341039   2.187   4.448   2.432  0.0916  0.1130  1.0225
  114MOL   C13441040   2.138   4.310   2.478  0.7918  0.2960 -0.2142
  114MOL   C13541041   2.001   4.263   2.443 -0.2090  0.1683 -0.0597
  114MOL   H13641042   2.047   4.644   2.052 -0.9655  0.1583 -2.5819
  114MOL   H13741043   2.090   4.557   1.920  2.1433  1.1564  0.2968
  114MOL   H13841044   2.287   4.609   2.025  1.5653  1.5029  3.5374
  114MOL   H13941045   2.278   4.470   2.488  0.2146  1.9090  0.1485
  114MOL   H14041046   2.108   4.517   2.460 -0.3617 -0.5450  1.3840
  114MOL   H14141047   2.217   4.241   2.448  1.5231  0.4497  1.3202
  114MOL   H14241048   2.139   4.306   2.587  0.4052  0.6270 -0.1979
  114MOL   H14341049   1.968   4.307   2.349  0.1134  0.9632  0.1985
  114MOL   H14441050   1.933   4.276   2.527 -0.3725  2.2510 -0.4816
  114MOL   H14541051   2.004   4.155   2.429  3.0062  0.5468 -2.8207
  114MOL   C14641052   2.307   4.409   2.028 -0.4419  0.2788 -0.3217
  114MOL   C14741053   2.459   4.403   2.019  0.0308  0.6642  0.3790
  114MOL   C14841054   2.518   4.362   2.157  0.4608  0.8804  0.6668
  114MOL   O14941055   2.467   4.275   2.227  0.3597 -0.2446 -0.2966
  114MOL   O15041056   2.625   4.433   2.189 -0.6481  0.3249 -0.1324
  114MOL   C15141057   2.716   4.375   2.284 -0.1128 -0.5359 -0.2550
  114MOL   C15241058   2.690   4.418   2.437  0.5152  0.2570  0.6849
  114MOL   C15341059   2.730   4.569   2.468 -0.1099 -0.1560  0.5754
  114MOL   H15441060   2.283   4.391   1.924  0.5219  2.0737 -0.8736
  114MOL   H15541061   2.268   4.324   2.083  1.2501 -1.8421 -2.3189
  114MOL   H15641062   2.503   4.496   1.984  0.2399  1.6919  3.2551
  114MOL   H15741063   2.718   4.267   2.275 -0.1407 -0.5457 -0.1513
  114MOL   H15841064   2.815   4.413   2.257  0.2938 -0.5180  1.1965
  114MOL   H15941065   2.593   4.380   2.471  0.3772 -1.1198 -1.1726
  114MOL   H16041066   2.771   4.362   2.483  0.4848 -0.6928 -0.3970
  114MOL   H16141067   2.830   4.597   2.433  0.4782 -3.7000 -0.7422
  114MOL   H16241068   2.738   4.589   2.575 -1.2188  2.5388  0.1947
  114MOL   H16341069   2.654   4.636   2.426  1.0739  0.6764 -0.2950
  114MOL   C16441070   2.510   4.287   1.921 -0.3638 -0.1975 -0.2729
  114MOL   C16541071   2.658   4.302   1.882 -0.1444 -0.6402 -0.1615
  114MOL   C16641072   2.742   4.182   1.932 -0.9246 -0.4917 -0.1911
  114MOL   O16741073   2.799   4.185   2.044  0.2019  0.3423  0.2724
  114MOL   O16841074   2.732   4.073   1.852  0.2856  0.0249  0.1789
  114MOL   C16941075   2.807   3.948   1.875 -0.5734 -0.3172  0.3599
  114MOL   C17041076   2.908   3.927   1.761 -0.6766 -0.0319 -0.2772
  114MOL   C17141077   3.030   4.027   1.779  0.0696  0.6146  0.5049
  114MOL   H17241078   2.443   4.291   1.835 -2.2970 -0.9054  1.1537
  114MOL   H17341079   2.491   4.190   1.967  0.0381 -1.9898 -3.7190
  114MOL   H17441080   2.707   4.389   1.927 -0.3417  0.3372 -1.7965
  114MOL   H17541081   2.858   3.945   1.971  2.2671 -0.1159 -1.0779
  114MOL   H17641082   2.743   3.859   1.875 -0.5381 -0.3502 -0.4857
  114MOL   H17741083   2.945   3.825   1.772  1.7814  1.0402  1.7153
  114MOL   H17841084   2.868   3.926   1.659 -0.8236 -2.5501 -0.2303
  114MOL   H17941085   2.978   4.123   1.783  0.1833  0.7109 -0.2527
  114MOL   H18041086   3.094   4.038   1.692 -0.5637  0.8185  0.0640
  114MOL   H18141087   3.088   4.018   1.871 -0.7536 -0.6924  0.9026
  114MOL   C18241088   2.675   4.332   1.731  0.8757 -0.0537  0.4191
  114MOL   C18341089   2.609   4.460   1.679  0.3845  0.0455 -0.1272
  114MOL   C18441090   2.684   4.592   1.715  0.0048 -0.4720 -0.5101
  114MOL   O18541091   2.635   4.689   1.777 -0.4842 -0.2119  0.2161
  114MOL   O18641092   2.813   4.599   1.667  0.7322 -0.0943 -0.1819
  114MOL   C18741093   2.890   4.716   1.677  0.6048  0.2952 -0.8359
  114MOL   C18841094   3.032   4.696   1.726 -0.7008  0.0281 -0.9870
  114MOL   C18941095   3.101   4.825   1.778  0.4190 -0.1768 -0.4313
  114MOL   H19041096   2.633   4.244   1.682 -0.3139 -0.3053  1.8805
  114MOL   H19141097   2.777   4.336   1.693  0.3551  1.9304 -0.8278
  114MOL   H19241098   2.509   4.469   1.721  0.3203 -0.3546 -0.1920
  114MOL   H19341099   2.899   4.770   1.582  2.9232 -1.1651 -1.4777
  114MOL   H19441100   2.848   4.790   1.746 -1.5994 -1.8404  0.1827
  114MOL   H19541101   3.029   4.637   1.818  0.0759  0.5397 -0.6247
  114MOL   H19641102   3.089   4.644   1.649  2.6096  1.7204  0.2130
  114MOL   H19741103   3.044   4.863   1.862  1.0051 -3.8213  1.7087
  114MOL   H19841104   3.097   4.905   1.703  1.9185 -0.6557 -1.0403
  114MOL   H19941105   3.202   4.820   1.819  0.1660  1.4423  0.4577
  114MOL   C20041106   2.594   4.470   1.532  0.2240  0.3242  0.3845
  114MOL   C20141107   2.527   4.348   1.462 -0.2447  0.6736 -0.1704
  114MOL   C20241108   2.377   4.347   1.513  0.4054 -0.7395  0.3515
  114MOL   O20341109   2.344   4.265   1.594 -0.4200 -0.3297  0.2508
  114MOL   O20441110   2.297   4.436   1.457  0.2898  0.3130 -0.5749
  114MOL   C20541111   2.154   4.427   1.482  0.7072 -1.0140 -0.6594
  114MOL   C20641112   2.076   4.515   1.383 -0.2831 -0.3208 -1.0788
  114MOL   C20741113   1.922   4.479   1.374 -0.6346  0.3314  0.6853
  114MOL   H20841114   2.697   4.472   1.496  0.4373 -0.6012  0.9141
  114MOL   H20941115   2.542   4.562   1.506 -0.3630  0.3767  1.7187
  114MOL   H21041116   2.575   4.255   1.494 -1.2103  0.1461 -0.2472
  114MOL   H21141117   2.122   4.323   1.489  0.0898 -0.6968  1.7048
  114MOL   H21241118   2.139   4.478   1.577 -0.5968 -1.6865 -0.4794
  114MOL   H21341119   2.086   4.622   1.397  0.8667 -0.4559 -0.8125
  114MOL   H21441120   2.121   4.503   1.285  1.4599 -0.6682 -0.2568
  114MOL   H21541121   1.870   4.516   1.462  1.6897  0.7542  1.9187
  114MOL   H21641122   1.897   4.373   1.386  0.4576 -0.0722 -0.4519
  114MOL   H21741123   1.881   4.529   1.286 -0.9757 -0.3476  0.4544
  114MOL   C21841124   2.548   4.345   1.311  0.0352  0.0674  0.4626
  114MOL   C21941125   2.454   4.264   1.227  0.1019  0.5298 -0.1489
  114MOL   C22041126   2.472   4.305   1.082  0.0262 -0.0938 -0.0580
  114MOL   O22141127   2.371   4.336   1.015  0.6035 -0.4769  0.0675
  114MOL   O22241128   2.594   4.286   1.037 -0.2583  0.0354  0.6924
  114MOL   C22341129   2.625   4.304   0.896  0.1002  0.9943 -0.0789
  114MOL   C22441130   2.706   4.431   0.868  0.3989  0.1078 -0.0253
  114MOL   C22541131   2.633   4.551   0.944  0.0239 -0.4533  0.2816
  114MOL   H22641132   2.648   4.314   1.279 -0.1849 -0.1817  0.0183
  114MOL   H22741133   2.564   4.447   1.277 -2.1667 -0.0208 -0.9065
  114MOL   H22841134   2.351   4.288   1.255 -0.9287 -2.2824 -1.3294
  114MOL   H22941135   2.662   4.215   0.846 -2.2590  0.3342 -0.7026
  114MOL   H23041136   2.535   4.326   0.838 -0.7972 -0.4032  0.7530
  114MOL   H23141137   2.808   4.415   0.903  1.2293  1.2138 -1.8852
  114MOL   H23241138   2.711   4.454   0.762 -0.9071 -0.5333 -0.2399
  114MOL   H23341139   2.525   4.557   0.929 -0.2976 -3.2252  1.1921
  114MOL   H23441140   2.669   4.650   0.918  1.4819 -0.9827  0.1931
  114MOL   H23541141   2.640   4.540   1.052  0.7889 -3.5101 -0.0223
  114MOL   C23641142   2.485   4.109   1.239 -0.2340 -0.5316 -0.4039
  114MOL   C23741143   2.366   4.017   1.207 -0.1660  0.0835  0.5197
  114MOL   C23841144   2.409   3.867   1.186  0.5195  0.1364 -0.1116
  114MOL   O23941145   2.523   3.829   1.200  0.0139 -0.5072  0.4083
  114MOL   O24041146   2.299   3.788   1.159 -0.8710  0.2260 -0.1517
  114MOL   C24141147   2.300   3.652   1.143 -0.6884  0.7833 -0.3195
  114MOL   C24241148   2.224   3.582   1.262 -0.4555  0.5140  0.0882
  114MOL   C24341149   2.230   3.431   1.271  0.3072 -0.1038  0.6058
  114MOL   H24441150   2.513   4.091   1.342  3.9383 -1.2936 -1.5558
  114MOL   H24541151   2.566   4.075   1.174 -0.8619 -0.5042 -1.2177
  114MOL   H24641152   2.313   4.041   1.115  0.0395 -0.2601  0.3148
  114MOL   H24741153   2.263   3.635   1.042  1.6104 -1.4433 -0.8506
  114MOL   H24841154   2.405   3.623   1.146 -0.8008  0.5039  1.5003
  114MOL   H24941155   2.276   3.615   1.352 -0.2034 -0.5240  0.3248
  114MOL   H25041156   2.118   3.608   1.259 -0.6670 -0.2248  0.9034
  114MOL   H25141157   2.329   3.385   1.276 -0.2744 -1.0964  4.3821
  114MOL   H25241158   2.190   3.393   1.176 -0.0645  0.9869  0.3169
  114MOL   H25341159   2.177   3.387   1.355  0.8866 -2.3016 -0.1344
  114MOL   C25441160   2.244   4.037   1.313 -0.7039  0.5303  0.1141
  114MOL   C25541161   2.094   4.004   1.280 -0.1574 -0.2941  0.3923
  114MOL   C25641162   2.032   3.942   1.403  0.0255  0.2731 -0.6361
  114MOL   O25741163   1.970   3.834   1.402  0.4298  0.1621 -0.0016
  114MOL   O25841164   2.055   4.025   1.511  0.5162 -0.5424  0.0722
  114MOL   C25941165   1.971   4.011   1.628 -0.2548 -0.6024 -0.3795
  114MOL   C26041166   1.854   4.116   1.633 -0.1573 -0.4107  0.5186
  114MOL   C26141167   1.746   4.088   1.526  0.8162 -0.5939  0.5786
  114MOL   H26241168   2.247   4.134   1.363 -0.2262  0.3679  0.3991
  114MOL   H26341169   2.276   3.977   1.397  0.1945  3.8183  2.2243
  114MOL   H26441170   2.096   3.918   1.213 -2.9187 -0.1277  0.0212
  114MOL   H26541171   1.938   3.907   1.640 -0.8029 -0.2525  1.3656
  114MOL   H26641172   2.026   4.032   1.720  0.0928  1.7889 -1.0965
  114MOL   H26741173   1.804   4.127   1.729 -2.0992  1.5112 -0.6755
  114MOL   H26841174   1.887   4.219   1.616  0.3085 -0.4467  1.1710
  114MOL   H26941175   1.646   4.087   1.570  0.3327  0.9300 -0.4533
  114MOL   H27041176   1.750   3.984   1.493  0.2944 -0.4840  0.1666
  114MOL   H27141177   1.768   4.154   1.442  0.0721  0.2913  1.0747
  114MOL   C27241178   2.014   4.125   1.231 -0.5353  0.6911 -0.1319
  114MOL   C27341179   2.041   4.180   1.085  0.1801 -0.4139  0.4666
  114MOL   C27441180   2.059   4.080   0.968 -0.5840 -0.1305  0.3482
  114MOL   O27541181   2.035   3.957   0.978 -0.3893 -0.7354 -0.0851
  114MOL   O27641182   2.101   4.143   0.862 -0.5536 -0.2079  0.4330
  114MOL   C27741183   2.128   4.075   0.738  0.5655  0.6641  0.4768
  114MOL   C27841184   2.204   4.156   0.635  0.9275 -0.3951  0.6262
  114MOL   C27941185   2.265   4.074   0.521  0.2515  0.0558 -0.4765
  114MOL   H28041186   2.042   4.205   1.300  1.3971 -0.2096  0.1637
  114MOL   H28141187   1.907   4.106   1.240 -0.1551 -2.0400 -1.2173
  114MOL   H28241188   2.127   4.246   1.089  0.5853 -0.8761 -0.4186
  114MOL   H28341189   2.194   3.992   0.763  1.3941  1.3015  0.4079
  114MOL   H28441190   2.037   4.023   0.707  2.0469 -1.0441 -1.1563
  114MOL   H28541191   2.143   4.236   0.593 -2.2687 -1.4989  2.9959
  114MOL   H28641192   2.290   4.203   0.683  1.1324 -0.7393  0.5964
  114MOL   H28741193   2.358   4.024   0.550 -0.4935 -0.9083  0.3151
  114MOL   H28841194   2.279   4.149   0.444 -2.6416 -0.7593 -1.8414
  114MOL   H28941195   2.196   4.003   0.476 -0.4988 -0.4477  1.4122
  114MOL   C29041196   1.918   4.277   1.058 -0.6438 -0.1572 -0.5032
  114MOL   C29141197   1.935   4.388   0.947 -0.3589 -0.1515 -0.2650
  114MOL   C29241198   1.797   4.449   0.916 -0.0935  0.2817 -0.6381
  114MOL   O29341199   1.750   4.442   0.802  0.2139  0.0196  0.0258
  114MOL   O29441200   1.745   4.517   1.020 -0.6281  0.4290  0.9244
  114MOL   C29541201   1.635   4.594   1.002 -0.4262  0.1376  0.8567
  114MOL   C29641202   1.610   4.687   1.124  0.0256  0.0884  0.4618
  114MOL   C29741203   1.729   4.771   1.160  0.4284 -0.3489  0.1937
  114MOL   H29841204   1.888   4.322   1.152 -1.1543  1.1297 -1.2760
  114MOL   H29941205   1.839   4.212   1.023 -0.7829  0.2712 -0.9803
  114MOL   H30041206   1.982   4.336   0.863 -2.3484 -1.5383 -0.5721
  114MOL   H30141207   1.653   4.659   0.916  0.8374 -0.6559  0.5064
  114MOL   H30241208   1.550   4.534   0.972 -0.3540  0.1834  0.5595
  114MOL   H30341209   1.532   4.760   1.106  0.2864 -0.1935 -2.0064
  114MOL   H30441210   1.571   4.636   1.212  0.7382  1.1688  1.4268
  114MOL   H30541211   1.782   4.825   1.082 -0.0915  0.1224  0.1670
  114MOL   H30641212   1.807   4.706   1.201 -0.1199 -0.4211  1.1387
  114MOL   H30741213   1.703   4.830   1.248  3.0735 -2.2947  2.3987
  114MOL   C30841214   2.041   4.497   0.979  0.4558  0.2081 -0.6516
  114MOL   C30941215   2.065   4.603   0.869  0.4395  0.2925 -0.1069
  114MOL   C31041216   1.998   4.737   0.904 -0.6151  0.1750 -0.3649
  114MOL   O31141217   1.899   4.774   0.845  0.4309  0.2658  0.7263
  114MOL   O31241218   2.056   4.798   1.006  0.2445 -0.4642 -0.3010
  114MOL   C31341219   2.041   4.938   1.035 -0.4281 -0.1326  0.0187
  114MOL   C31441220   2.069   4.954   1.187 -0.4172  0.6195  0.7399
  114MOL   C31541221   2.048   5.093   1.244  0.4521 -0.0731  0.1903
  114MOL   H31641222   2.135   4.452   1.012 -1.5604 -2.5173  1.6075
  114MOL   H31741223   2.001   4.559   1.060  0.6021  0.4165 -0.7386
  114MOL   H31841224   2.015   4.563   0.780  0.0045  0.1149  0.2194
  114MOL   H31941225   2.116   4.993   0.979  1.8505 -0.5365  2.5449
  114MOL   H32041226   1.941   4.967   1.001  0.4108  1.0091 -1.5365
  114MOL   H32141227   2.018   4.873   1.239 -0.3227  0.4768  0.6123
  114MOL   H32241228   2.173   4.923   1.199 -0.5587 -0.4715 -0.5812
  114MOL   H32341229   1.955   5.139   1.209  0.8466  0.8920  0.3742
  114MOL   H32441230   2.043   5.093   1.352  2.2011 -1.7068  0.2991
  114MOL   H32541231   2.119   5.162   1.196 -1.3414  0.4503 -1.8034
  114MOL   C32641232   2.219   4.613   0.843  0.1807 -0.5029  0.8972
  114MOL   C32741233   2.249   4.692   0.717  0.1680 -0.2530  0.7312
  114MOL   C32841234   2.296   4.829   0.753 -0.0772  0.1120 -0.3828
  114MOL   O32941235   2.230   4.930   0.734  0.7584  0.1288 -0.1067
  114MOL   O33041236   2.425   4.836   0.798  0.1899  0.2874  0.4801
  114MOL   C33141237   2.485   4.964   0.832 -0.6046  0.5818  0.6321
  114MOL   C33241238   2.595   4.936   0.933 -0.1234  0.3765  0.5493
  114MOL   C33341239   2.554   4.882   1.070  0.5659 -0.0263  0.3737
  114MOL   H33441240   2.257   4.511   0.832  2.9705  0.2450  2.9274
  114MOL   H33541241   2.275   4.655   0.926  2.1407  1.2244 -1.2312
  114MOL   H33641242   2.159   4.713   0.659  1.6856  0.4018 -1.4653
  114MOL   H33741243   2.538   5.000   0.744  1.6246 -0.6478  1.4301
  114MOL   H33841244   2.407   5.033   0.865 -1.3797 -0.4128  0.8994
  114MOL   H33941245   2.662   4.860   0.892  0.0590 -0.4152  2.2722
  114MOL   H34041246   2.646   5.030   0.952 -1.7335  1.2955  0.4077
  114MOL   H34141247   2.647   4.851   1.118  0.5876  1.1042  1.0878
  114MOL   H34241248   2.506   4.964   1.122  2.3200  2.5206 -1.9062
  114MOL   H34341249   2.481   4.801   1.081 -0.3876  1.1110  2.7053
  114MOL   C34441250   2.344   4.616   0.614 -0.6772  0.5064  0.6010
  114MOL   C34541251   2.395   4.696   0.493 -0.6661  0.3706 -0.5804
  114MOL   C34641252   2.507   4.625   0.410  0.0711  0.3436  0.0246
  114MOL   O34741253   2.562   4.690   0.316  0.4130 -0.0027  0.5496
  114MOL   O34841254   2.536   4.493   0.450 -0.2457  0.7371  1.0794
  114MOL   C34941255   2.632   4.409   0.380  0.2687  0.5760 -0.2863
  114MOL   C35041256   2.691   4.308   0.483  0.2429  0.0632  0.0319
  114MOL   C35141257   2.583   4.203   0.519 -1.1045 -1.2492 -0.6440
  114MOL   H35241258   2.297   4.522   0.586 -0.1003  0.5060 -0.3841
  114MOL   H35341259   2.431   4.580   0.668 -1.1427 -3.2615 -1.0151
  114MOL   H35441260   2.431   4.794   0.524 -1.2759 -0.2387  2.1596
  114MOL   H35541261   2.585   4.352   0.300  1.6795  1.0688 -1.4915
  114MOL   H35641262   2.707   4.466   0.325  1.2380  0.2980  0.7410
  114MOL   H35741263   2.768   4.256   0.426 -0.2568 -0.2403 -0.3834
  114MOL   H35841264   2.734   4.363   0.566 -0.7877  1.0451 -0.0728
  114MOL   H35941265   2.547   4.146   0.433 -2.3116  0.1836 -1.0955
  114MOL   H36041266   2.616   4.131   0.594  1.4553  1.5694  1.0403
  114MOL   H36141267   2.501   4.255   0.568  0.5093 -0.9979  1.8872
  114MOL   H36241268   2.310   4.714   0.428 -0.1448  1.4308 -0.9744
  115MOL     C141269   6.854   5.808   5.029 -0.2018 -0.1216 -0.2250
  115MOL     C241270   6.849   5.961   5.047  0.5685  0.1698 -0.7198
  115MOL     C341271   6.943   6.008   5.154  0.1572  0.2420  0.0925
  115MOL     O441272   6.900   6.058   5.260  0.0081  0.0891 -0.2052
  115MOL     O541273   7.069   5.980   5.121  0.2074 -0.2142 -0.1361
  115MOL     C641274   7.169   6.010   5.224  0.4123  0.0505  0.5881
  115MOL     C741275   7.305   6.039   5.156 -0.8515 -0.7886  0.2480
  115MOL     C841276   7.412   6.067   5.256  0.1324 -0.1477 -0.0583
  115MOL     H941277   6.895   5.757   5.116 -0.0506 -0.7328 -0.6518
  115MOL    H1041278   6.757   5.758   5.021  0.6473 -1.9997  0.9717
  115MOL    H1141279   6.749   5.984   5.085  0.3467 -1.5272 -0.2145
  115MOL    H1241280   7.151   6.102   5.281  0.3901  1.5398 -1.7523
  115MOL    H1341281   7.188   5.939   5.304 -0.1885  0.8076  1.4139
  115MOL    H1441282   7.340   5.952   5.101  1.9079  0.0706  0.6067
  115MOL    H1541283   7.296   6.119   5.083 -2.2117 -0.7226  0.4685
  115MOL    H1641284   7.507   6.070   5.203 -0.3651  1.2341 -0.8997
  115MOL    H1741285   7.382   6.164   5.297 -1.7984 -0.3557 -0.9487
  115MOL    H1841286   7.426   6.007   5.346 -0.0917 -0.0929  0.0143
  115MOL    H1941287   6.912   5.775   4.943 -1.8175 -1.5769 -0.8028
  115MOL    C2041288   6.861   6.038   4.909 -0.4840 -0.1465  0.5375
  115MOL    C2141289   6.808   6.191   4.914 -0.6633 -0.4246  0.2107
  115MOL    C2241290   6.914   6.300   4.918  0.3569 -0.0736 -0.6889
  115MOL    O2341291   7.035   6.276   4.902 -0.5803  0.2857  0.0874
  115MOL    O2441292   6.867   6.419   4.936 -0.2742  0.2581 -0.7024
  115MOL    C2541293   6.947   6.517   4.987 -0.0253 -0.4743  0.0836
  115MOL    C2641294   6.855   6.634   5.019  0.5647 -0.3245  0.4387
  115MOL    C2741295   6.799   6.707   4.899 -0.2708 -0.5114 -0.0582
  115MOL    H2841296   6.798   5.989   4.834  0.2621 -1.4111  0.7086
  115MOL    H2941297   6.966   6.032   4.877  0.3325  0.4311  3.0402
  115MOL    H3041298   6.774   6.195   5.017 -0.4917  0.0330  0.2510
  115MOL    H3141299   7.000   6.479   5.074  1.6341  2.2980  0.3755
  115MOL    H3241300   7.023   6.551   4.917 -1.8142  1.7970 -0.8485
  115MOL    H3341301   6.785   6.599   5.094  1.0736 -2.0832  0.1020
  115MOL    H3441302   6.912   6.705   5.079  3.7349 -2.2061 -0.2683
  115MOL    H3541303   6.743   6.633   4.841  2.6887 -3.5433  0.7755
  115MOL    H3641304   6.879   6.743   4.834 -0.0733  0.6733  0.8375
  115MOL    H3741305   6.739   6.792   4.929  1.1428  1.0503 -1.5369
  115MOL    C3841306   6.684   6.217   4.824 -0.4584 -0.2615  0.3474
  115MOL    C3941307   6.566   6.299   4.879 -0.3445 -0.9120 -1.3413
  115MOL    C4041308   6.470   6.330   4.770  0.0309 -0.2755 -1.0840
  115MOL    O4141309   6.444   6.450   4.734 -0.4517 -0.7292 -0.0128
  115MOL    O4241310   6.416   6.228   4.710 -0.6517 -0.0892  0.4229
  115MOL    C4341311   6.311   6.246   4.609  0.7668 -0.4756  0.0948
  115MOL    C4441312   6.242   6.111   4.585 -0.2112 -0.1419  0.4039
  115MOL    C4541313   6.326   6.016   4.503 -0.4215 -0.5613  0.2817
  115MOL    H4641314   6.646   6.130   4.771  1.9835 -0.9663 -0.2778
  115MOL    H4741315   6.720   6.269   4.736 -0.2958  1.0672  1.1821
  115MOL    H4841316   6.596   6.398   4.914  3.4249 -2.1590 -0.8353
  115MOL    H4941317   6.241   6.317   4.655 -0.0979 -1.3957  0.2110
  115MOL    H5041318   6.360   6.282   4.519  2.3903  1.0178  1.5133
  115MOL    H5141319   6.221   6.059   4.679 -1.5751  1.1719  0.8547
  115MOL    H5241320   6.147   6.123   4.532  0.3431  0.2173 -0.5158
  115MOL    H5341321   6.379   6.064   4.420 -0.9108 -1.6089 -0.6518
  115MOL    H5441322   6.262   5.934   4.469  0.3318 -1.0599  0.0463
  115MOL    H5541323   6.406   5.971   4.562 -0.7343  0.4562  1.5016
  115MOL    C5641324   6.503   6.219   4.998  0.0700 -0.1622 -0.4414
  115MOL    C5741325   6.544   6.275   5.132  0.4166 -0.8115 -0.0314
  115MOL    C5841326   6.474   6.407   5.170  0.7365  0.7034 -0.5758
  115MOL    O5941327   6.530   6.495   5.230 -0.2188  0.3599  0.6036
  115MOL    O6041328   6.345   6.405   5.152  0.7515 -0.2209  0.0099
  115MOL    C6141329   6.257   6.516   5.192  1.1594 -0.9930 -0.3528
  115MOL    C6241330   6.158   6.552   5.072 -0.4003  0.1787  0.0203
  115MOL    C6341331   6.080   6.675   5.124 -0.9286  0.2467 -0.2486
  115MOL    H6441332   6.526   6.113   4.994 -3.1394 -0.9504  0.3843
  115MOL    H6541333   6.394   6.213   4.988  0.1228 -0.9331 -0.5613
  115MOL    H6641334   6.649   6.305   5.127  0.5832 -1.5490 -1.1547
  115MOL    H6741335   6.205   6.480   5.281 -1.1147 -1.3417 -1.7809
  115MOL    H6841336   6.309   6.604   5.228 -0.6298  0.0530 -0.2970
  115MOL    H6941337   6.215   6.580   4.984 -2.8181 -1.8580 -2.2560
  115MOL    H7041338   6.092   6.468   5.049  0.0543 -0.5085  1.1672
  115MOL    H7141339   6.022   6.716   5.041 -1.4107  2.2386  1.0377
  115MOL    H7241340   6.139   6.756   5.168 -1.1638  0.7567 -0.8566
  115MOL    H7341341   6.009   6.639   5.198  0.3544  0.3474  1.0571
  115MOL    C7441342   6.546   6.171   5.243  0.4143  0.0553  0.2874
  115MOL    C7541343   6.405   6.120   5.295  0.1217  0.3646  0.3149
  115MOL    C7641344   6.321   6.040   5.194  0.6931 -0.0698 -0.6561
  115MOL    O7741345   6.200   6.058   5.184  0.2515 -0.1680 -0.3329
  115MOL    O7841346   6.392   5.946   5.127  0.0411  0.7486 -0.5500
  115MOL    C7941347   6.329   5.844   5.053  0.2184  0.4439 -0.5621
  115MOL    C8041348   6.355   5.854   4.906  0.2566  0.0429 -0.1893
  115MOL    C8141349   6.501   5.823   4.872 -0.2808 -0.9265  0.0968
  115MOL    H8241350   6.598   6.225   5.322 -2.1285  0.7932  1.5232
  115MOL    H8341351   6.606   6.090   5.202  0.4021 -0.9677  2.2096
  115MOL    H8441352   6.345   6.200   5.337  1.3279  0.6172  1.6131
  115MOL    H8541353   6.355   5.747   5.097  0.5735  0.0015 -1.7325
  115MOL    H8641354   6.221   5.840   5.068  0.5102 -1.6040  1.4428
  115MOL    H8741355   6.300   5.772   4.860  1.4147 -2.0410  2.0671
  115MOL    H8841356   6.323   5.947   4.857 -2.3838 -0.8095 -0.1069
  115MOL    H8941357   6.515   5.783   4.772 -0.1792 -1.4977  0.3349
  115MOL    H9041358   6.552   5.766   4.950  0.0642  0.5576  0.9564
  115MOL    H9141359   6.561   5.914   4.868 -0.5630 -0.7255  0.4190
  115MOL    C9241360   6.442   6.028   5.419  0.1424 -0.4243 -0.4784
  115MOL    C9341361   6.397   6.080   5.562  0.3102  0.9835 -0.7417
  115MOL    C9441362   6.463   6.214   5.595  0.3081  0.0922 -0.8177
  115MOL    O9541363   6.583   6.224   5.626 -0.3842  0.0384  0.2121
  115MOL    O9641364   6.378   6.317   5.583 -0.2326 -0.1764  0.7744
  115MOL    C9741365   6.433   6.451   5.623  0.3952  0.6838  0.3461
  115MOL    C9841366   6.305   6.546   5.632  0.0544 -0.3618  0.6573
  115MOL    C9941367   6.352   6.685   5.667 -0.2241  0.5875  0.0037
  115MOL   H10041368   6.551   6.015   5.422  0.0948 -0.4529  1.2078
  115MOL   H10141369   6.392   5.931   5.410 -0.4285 -0.1047 -0.7602
  115MOL   H10241370   6.441   6.016   5.639 -1.1652  1.8894  0.8939
  115MOL   H10341371   6.479   6.432   5.720  0.3686  0.2504  0.2722
  115MOL   H10441372   6.504   6.484   5.547  2.0526  0.5921  1.8403
  115MOL   H10541373   6.248   6.553   5.539 -0.7687 -0.2836  1.1634
  115MOL   H10641374   6.236   6.503   5.703 -3.5535  1.1901 -1.7450
  115MOL   H10741375   6.433   6.710   5.599 -1.7656  2.6767 -1.1273
  115MOL   H10841376   6.392   6.695   5.768  0.9110 -1.9952 -0.1654
  115MOL   H10941377   6.274   6.761   5.655  0.7328  1.5324 -0.3042
  115MOL   C11041378   6.249   6.078   5.580 -0.0000 -0.6051 -0.6683
  115MOL   C11141379   6.186   5.935   5.615 -0.1607  0.5145 -0.2711
  115MOL   C11241380   6.194   5.912   5.767 -1.0693 -0.4044 -0.4844
  115MOL   O11341381   6.102   5.942   5.844  0.3650 -0.3023 -0.0940
  115MOL   O11441382   6.325   5.876   5.806 -0.0558  0.4868  0.1340
  115MOL   C11541383   6.356   5.825   5.929 -0.2885  0.3513  0.8698
  115MOL   C11641384   6.457   5.912   6.000 -0.1321  0.4776  0.7069
  115MOL   C11741385   6.597   5.929   5.936 -0.0081  0.7906  0.1247
  115MOL   H11841386   6.193   6.122   5.497 -1.2527 -1.3707 -0.2384
  115MOL   H11941387   6.219   6.135   5.668 -0.1082 -0.8319 -0.5587
  115MOL   H12041388   6.254   5.857   5.580 -1.1662 -0.6858  0.3968
  115MOL   H12141389   6.270   5.811   5.994 -2.9298 -1.8721 -2.8604
  115MOL   H12241390   6.399   5.726   5.914 -0.5102  0.1999  1.2445
  115MOL   H12341391   6.409   6.008   6.016 -2.3831  0.0367 -2.7721
  115MOL   H12441392   6.486   5.866   6.094  2.7720 -1.2792 -0.9483
  115MOL   H12541393   6.648   5.841   5.897  1.4315  1.6526  0.0289
  115MOL   H12641394   6.672   5.977   5.999  0.2746  2.3228 -1.3597
  115MOL   H12741395   6.590   6.000   5.854 -1.1343  1.7242  1.0144
  115MOL   C12841396   6.050   5.888   5.564  0.6182  0.1040  0.6969
  115MOL   C12941397   6.042   5.843   5.418 -0.1471  1.2233 -0.0059
  115MOL   C13041398   6.124   5.715   5.392  0.3617  0.4158  0.6858
  115MOL   O13141399   6.185   5.701   5.289 -0.2431 -0.5840  0.1724
  115MOL   O13241400   6.097   5.618   5.490  0.4889  0.6857 -0.2439
  115MOL   C13341401   6.193   5.510   5.486  0.3230 -0.1838 -0.1670
  115MOL   C13441402   6.254   5.504   5.625  0.6895 -0.4130 -0.3305
  115MOL   C13541403   6.168   5.484   5.748  0.1804 -0.5989 -0.5316
  115MOL   H13641404   5.979   5.972   5.564 -0.0938 -0.4938  0.4761
  115MOL   H13741405   6.009   5.813   5.631 -0.8417 -2.6855 -3.1211
  115MOL   H13841406   6.093   5.923   5.365  0.9527  1.5977  1.5698
  115MOL   H13941407   6.143   5.416   5.464 -0.0698  0.1747 -0.8169
  115MOL   H14041408   6.269   5.527   5.410 -1.8106  1.2263 -2.0417
  115MOL   H14141409   6.352   5.458   5.634  0.0398 -1.5166  1.3650
  115MOL   H14241410   6.279   5.610   5.638 -1.3801 -0.1140  1.7119
  115MOL   H14341411   6.088   5.558   5.752 -0.0039 -0.8229  0.0083
  115MOL   H14441412   6.206   5.481   5.851  1.1876  2.0614 -0.7617
  115MOL   H14541413   6.133   5.382   5.737 -3.4503  0.5736 -0.4887
  115MOL   C14641414   5.902   5.837   5.357 -0.4315  0.1085 -0.1380
  115MOL   C14741415   5.792   5.747   5.431  0.3309  0.3671  1.0944
  115MOL   C14841416   5.693   5.837   5.512 -0.7044  0.0134  1.0293
  115MOL   O14941417   5.688   5.963   5.517  0.1262  0.6966 -0.4060
  115MOL   O15041418   5.600   5.749   5.572 -0.2750 -0.5206  0.4787
  115MOL   C15141419   5.506   5.797   5.666 -0.2548  0.0881  0.0588
  115MOL   C15241420   5.436   5.682   5.747 -0.0459 -0.1315  0.3249
  115MOL   C15341421   5.385   5.573   5.658 -0.7551 -0.9009  0.1235
  115MOL   H15441422   5.911   5.809   5.252  0.3542 -0.3697  0.0564
  115MOL   H15541423   5.873   5.942   5.351  1.0732  0.4355 -1.9998
  115MOL   H15641424   5.837   5.684   5.508  1.9986 -1.3638 -1.2255
  115MOL   H15741425   5.548   5.871   5.734 -1.6216 -0.2921  1.3544
  115MOL   H15841426   5.422   5.848   5.619 -1.4353 -1.5365  0.3682
  115MOL   H15941427   5.501   5.639   5.823  2.7688  2.0190 -0.7457
  115MOL   H16041428   5.350   5.732   5.793  1.0453  0.7949  1.3998
  115MOL   H16141429   5.474   5.540   5.604  0.9911  0.7889  1.9347
  115MOL   H16241430   5.311   5.627   5.599 -0.9984 -1.9822 -0.5739
  115MOL   H16341431   5.339   5.488   5.708  0.9075 -0.6538  2.1448
  115MOL   C16441432   5.715   5.668   5.323 -1.1392  0.1025 -0.6516
  115MOL   C16541433   5.670   5.529   5.374  0.0196  0.1511  0.3721
  115MOL   C16641434   5.540   5.481   5.303  0.1963  0.1053 -0.4883
  115MOL   O16741435   5.490   5.549   5.213  0.4970  0.1103 -0.2432
  115MOL   O16841436   5.493   5.359   5.352 -0.0396  0.5673 -0.2343
  115MOL   C16941437   5.399   5.294   5.277  0.5301 -0.2890  0.6767
  115MOL   C17041438   5.258   5.309   5.341  0.0660 -0.7762  0.3934
  115MOL   C17141439   5.140   5.269   5.243 -0.3611  0.3419 -1.2635
  115MOL   H17241440   5.771   5.643   5.233  2.0175 -0.7278  1.4918
  115MOL   H17341441   5.625   5.726   5.301 -1.7865  0.1585  1.9454
  115MOL   H17441442   5.647   5.548   5.479  0.3944  0.7572  0.3463
  115MOL   H17541443   5.408   5.313   5.170 -0.9902 -1.7774  0.2728
  115MOL   H17641444   5.421   5.188   5.285  1.6674 -0.2673 -1.7085
  115MOL   H17741445   5.258   5.250   5.433 -0.1681 -0.5601  0.5315
  115MOL   H17841446   5.239   5.412   5.371  2.5804 -0.1237 -0.0871
  115MOL   H17941447   5.126   5.354   5.176  1.1074  0.2365 -1.7087
  115MOL   H18041448   5.053   5.260   5.309  0.9237 -0.2336  0.4053
  115MOL   H18141449   5.160   5.178   5.187  0.1125 -1.1190  1.2145
  115MOL   C18241450   5.790   5.431   5.383 -0.5967  0.3685  0.4559
  115MOL   C18341451   5.774   5.306   5.477 -0.3485  0.3741 -0.0186
  115MOL   C18441452   5.853   5.192   5.407 -0.2841  0.2254  0.8014
  115MOL   O18541453   5.957   5.143   5.455 -0.1032 -0.0329  0.6058
  115MOL   O18641454   5.800   5.154   5.285  0.4689  0.4827 -0.9480
  115MOL   C18741455   5.822   5.022   5.231 -0.1099  0.2946  0.2578
  115MOL   C18841456   5.736   5.007   5.105 -0.3291 -0.5958  0.3006
  115MOL   C18941457   5.583   5.000   5.116  0.7243  0.6672 -0.6369
  115MOL   H19041458   5.885   5.481   5.398 -0.3544  1.0599 -2.9319
  115MOL   H19141459   5.802   5.404   5.278 -0.3309  0.1528  0.5422
  115MOL   H19241460   5.666   5.290   5.469 -0.3286 -0.2225  0.8793
  115MOL   H19341461   5.929   5.015   5.213 -0.3297  1.3746 -1.6144
  115MOL   H19441462   5.787   4.944   5.299 -0.3965 -0.8352 -1.1574
  115MOL   H19541463   5.751   5.090   5.035  0.5088  0.3648  1.5929
  115MOL   H19641464   5.768   4.919   5.049 -0.4742  0.5162 -1.5826
  115MOL   H19741465   5.552   5.088   5.173  1.6774  0.5129  0.1421
  115MOL   H19841466   5.562   4.907   5.169  2.1692 -0.5496 -2.1326
  115MOL   H19941467   5.544   4.991   5.014  0.5709  0.8671 -0.5965
  115MOL   C20041468   5.813   5.339   5.621  0.2622 -0.8991 -0.2738
  115MOL   C20141469   5.779   5.251   5.747  0.6782  0.7617  0.0638
  115MOL   C20241470   5.629   5.213   5.757 -0.4764 -0.4813 -0.0570
  115MOL   O20341471   5.546   5.278   5.816  0.2790 -0.4188 -0.1951
  115MOL   O20441472   5.599   5.108   5.681 -0.0216  0.0467  0.3273
  115MOL   C20541473   5.462   5.083   5.655  0.2683 -0.0884 -0.2343
  115MOL   C20641474   5.457   5.013   5.520 -1.0510 -0.2579  0.1212
  115MOL   C20741475   5.322   4.959   5.475  0.2611 -0.9465 -0.0649
  115MOL   H20841476   5.776   5.440   5.638  0.9993 -0.9116  1.4584
  115MOL   H20941477   5.920   5.360   5.609  0.2887 -0.3619  0.8884
  115MOL   H21041478   5.794   5.315   5.833 -2.7019 -1.7419  2.6554
  115MOL   H21141479   5.412   5.020   5.728  0.5302 -1.5538 -1.3061
  115MOL   H21241480   5.400   5.172   5.642  0.8809  0.1563 -1.5533
  115MOL   H21341481   5.506   5.080   5.449  0.7230  0.3687  1.8872
  115MOL   H21441482   5.526   4.930   5.534 -0.2796  0.5671  1.3222
  115MOL   H21541483   5.335   4.923   5.373  0.8744  2.1359 -1.1077
  115MOL   H21641484   5.241   5.032   5.474  0.8620 -0.2710 -1.7550
  115MOL   H21741485   5.279   4.880   5.537 -0.8152  1.0511  1.8170
  115MOL   C21841486   5.875   5.128   5.767 -0.8053 -0.4796  0.3068
  115MOL   C21941487   5.869   5.078   5.909 -0.1294  0.1256 -0.5077
  115MOL   C22041488   5.909   4.923   5.913  0.3301 -0.2613  0.0074
  115MOL   O22141489   5.993   4.882   5.828 -0.2771  0.6650  0.1798
  115MOL   O22241490   5.866   4.852   6.015 -0.0141 -0.1677 -0.6960
  115MOL   C22341491   5.925   4.722   6.036 -0.5450  0.4033  0.3529
  115MOL   C22441492   5.880   4.677   6.173  0.2661  0.1369  0.5060
  115MOL   C22541493   5.930   4.536   6.197 -0.5401  1.1779  0.6268
  115MOL   H22641494   5.976   5.157   5.737 -1.1987  1.1909  0.5410
  115MOL   H22741495   5.839   5.052   5.697  0.0029 -2.6747  2.2154
  115MOL   H22841496   5.767   5.074   5.947  0.2096 -0.1554  0.3798
  115MOL   H22941497   5.897   4.658   5.953 -1.0466  1.6346 -0.4535
  115MOL   H23041498   6.034   4.731   6.037 -0.6223  1.7758 -0.8972
  115MOL   H23141499   5.933   4.736   6.248 -0.5343 -0.9195  1.9265
  115MOL   H23241500   5.773   4.698   6.163  0.3280  0.2555  0.0736
  115MOL   H23341501   5.920   4.512   6.303 -0.6936 -0.1934  0.3042
  115MOL   H23441502   6.032   4.504   6.180 -1.1861 -0.7682  0.2990
  115MOL   H23541503   5.870   4.459   6.148  0.4942  0.5604  0.3210
  115MOL   C23641504   5.964   5.160   6.000  0.5017 -0.1094  0.0749
  115MOL   C23741505   5.964   5.140   6.149  0.1120 -0.3630 -0.0180
  115MOL   C23841506   6.080   5.225   6.202 -0.0034  0.3057 -0.0635
  115MOL   O23941507   6.192   5.173   6.203  0.0917 -0.5738 -0.0985
  115MOL   O24041508   6.035   5.344   6.244 -0.5071 -0.5879  0.4637
  115MOL   C24141509   6.122   5.424   6.315  0.4961  0.1979 -0.3298
  115MOL   C24241510   6.062   5.564   6.330  0.4871  0.1534 -0.0350
  115MOL   C24341511   5.922   5.544   6.403 -0.1091  0.0502  0.1152
  115MOL   H24441512   5.947   5.265   5.978  1.1759 -0.3084 -1.4015
  115MOL   H24541513   6.063   5.145   5.959  0.1617 -1.5653 -0.2515
  115MOL   H24641514   5.999   5.039   6.170  0.5973 -0.0682  0.6136
  115MOL   H24741515   6.137   5.386   6.416 -1.0276 -0.7089 -0.4405
  115MOL   H24841516   6.211   5.426   6.251  0.6428  0.7389 -0.1112
  115MOL   H24941517   6.116   5.626   6.401 -1.4706  0.0175  1.6276
  115MOL   H25041518   6.061   5.611   6.231  1.3334 -1.6979 -0.9362
  115MOL   H25141519   5.928   5.506   6.505  0.8983  2.9998  1.2209
  115MOL   H25241520   5.849   5.486   6.347  1.0088 -1.2377 -0.0275
  115MOL   H25341521   5.881   5.644   6.417  0.4606  0.6757 -2.4050
  115MOL   C25441522   5.827   5.162   6.222 -0.4073  0.0895 -0.2720
  115MOL   C25541523   5.823   5.135   6.377 -0.1396  0.0009 -0.7628
  115MOL   C25641524   5.720   5.230   6.442 -0.5570  0.5918  0.0332
  115MOL   O25741525   5.620   5.266   6.380 -0.7987 -0.0210  0.5574
  115MOL   O25841526   5.753   5.266   6.571  0.4881 -0.7824 -0.1292
  115MOL   C25941527   5.693   5.385   6.631  0.0663  0.0001 -0.0880
  115MOL   C26041528   5.679   5.363   6.780 -0.7517 -0.3803 -0.2129
  115MOL   C26141529   5.644   5.494   6.858  0.4463  0.9842  0.2127
  115MOL   H26241530   5.742   5.105   6.184  0.3014 -1.2959  0.1854
  115MOL   H26341531   5.802   5.265   6.197  1.9918  0.7132 -0.1855
  115MOL   H26441532   5.914   5.177   6.420 -0.0367  0.6182 -1.5750
  115MOL   H26541533   5.752   5.474   6.608  1.0515 -0.9250 -1.1902
  115MOL   H26641534   5.590   5.393   6.594 -0.4830 -0.2034  1.3751
  115MOL   H26741535   5.603   5.289   6.803 -0.9016 -0.1694 -0.0223
  115MOL   H26841536   5.770   5.323   6.825 -0.1645  0.1195 -0.9206
  115MOL   H26941537   5.648   5.488   6.966  0.2406 -0.4496  0.1511
  115MOL   H27041538   5.542   5.527   6.837 -0.3792 -2.1661 -1.0703
  115MOL   H27141539   5.708   5.581   6.846  0.2288  1.3133  1.4353
  115MOL   C27241540   5.788   4.987   6.402  0.2633  0.2520  0.2765
  115MOL   C27341541   5.827   4.923   6.541  0.2458 -0.0092  0.1237
  115MOL   C27441542   5.746   4.793   6.562 -0.7793 -0.4463 -0.0997
  115MOL   O27541543   5.735   4.711   6.472 -0.3077 -0.3676  0.3044
  115MOL   O27641544   5.688   4.778   6.684  0.3785 -0.0560 -0.5747
  115MOL   C27741545   5.592   4.681   6.705  0.3864 -0.8095  0.7139
  115MOL   C27841546   5.463   4.752   6.745  0.5086  0.2406  0.4708
  115MOL   C27941547   5.487   4.816   6.885 -0.4858 -0.6671  0.4320
  115MOL   H28041548   5.842   4.929   6.326 -0.6333  0.6704 -0.6942
  115MOL   H28141549   5.679   4.982   6.400  0.2122  0.2044  2.5074
  115MOL   H28241550   5.799   4.998   6.615  2.6378  0.0354  1.0123
  115MOL   H28341551   5.566   4.631   6.612  2.8847 -2.0881  0.6465
  115MOL   H28441552   5.624   4.609   6.781  0.8936 -2.6344 -1.1952
  115MOL   H28541553   5.443   4.825   6.667  1.8091  0.0841 -0.0184
  115MOL   H28641554   5.391   4.669   6.751  0.2451  0.4693  0.4854
  115MOL   H28741555   5.475   4.747   6.969 -0.9709  1.0911  1.8409
  115MOL   H28841556   5.405   4.888   6.891  0.6369  0.8351 -1.8522
  115MOL   H28941557   5.580   4.872   6.892 -1.3499  0.6596  1.6090
  115MOL   C29041558   5.984   4.905   6.551 -0.6312 -0.6893  0.0752
  115MOL   C29141559   6.041   4.859   6.689 -0.6175 -0.1914  0.0005
  115MOL   C29241560   6.190   4.809   6.682  0.1448 -1.0763  0.1317
  115MOL   O29341561   6.244   4.806   6.572  0.7983  0.3696  0.3064
  115MOL   O29441562   6.238   4.758   6.795  0.3379  0.5468  0.2878
  115MOL   C29541563   6.366   4.706   6.789 -0.7243 -0.3942  0.0609
  115MOL   C29641564   6.418   4.670   6.926  0.2713  0.0160  0.3239
  115MOL   C29741565   6.348   4.533   6.986  0.6799 -0.6158  0.2836
  115MOL   H29841566   6.042   4.992   6.518 -1.4530 -0.0936  0.1599
  115MOL   H29941567   6.012   4.838   6.470 -2.1265 -0.2999 -0.7849
  115MOL   H30041568   5.978   4.777   6.725  1.0912 -0.6451  2.0698
  115MOL   H30141569   6.358   4.616   6.729 -3.2633 -0.5891  0.6397
  115MOL   H30241570   6.422   4.781   6.733 -1.6306  1.2705  1.3251
  115MOL   H30341571   6.523   4.645   6.917 -0.0419 -1.4391  0.4880
  115MOL   H30441572   6.412   4.746   7.005  0.1068  0.9538 -0.5819
  115MOL   H30541573   6.243   4.551   7.009  1.0575  1.6959  0.2789
  115MOL   H30641574   6.400   4.514   7.079 -0.4074 -0.4446  0.9408
  115MOL   H30741575   6.353   4.446   6.919 -1.3114  1.1424 -2.2699
  115MOL   C30841576   6.031   4.981   6.788  0.4097  0.0532 -0.6699
  115MOL   C30941577   6.013   4.936   6.935 -0.1809  0.0482  0.2695
  115MOL   C31041578   6.066   5.040   7.036 -0.0028 -0.4395  0.2020
  115MOL   O31141579   6.153   5.014   7.120  0.1745 -0.0545 -0.1428
  115MOL   O31241580   6.007   5.164   7.019 -0.1336  0.2968  0.1973
  115MOL   C31341581   6.055   5.277   7.086 -0.4840  0.4214  1.0188
  115MOL   C31441582   5.932   5.369   7.109 -0.8038 -0.1783 -0.0851
  115MOL   C31541583   5.964   5.510   7.169  0.0200 -0.0568 -1.1184
  115MOL   H31641584   5.949   5.047   6.757 -2.0933 -1.9147  1.6106
  115MOL   H31741585   6.124   5.034   6.771  0.7135 -0.3312 -0.1878
  115MOL   H31841586   6.087   4.857   6.953 -0.5306 -0.9560 -2.4653
  115MOL   H31941587   6.102   5.243   7.178 -0.9325  1.1193  1.5173
  115MOL   H32041588   6.127   5.331   7.024  0.9643 -1.3485  1.1380
  115MOL   H32141589   5.876   5.392   7.019  0.5600  2.6279 -0.2869
  115MOL   H32241590   5.868   5.318   7.181  0.3427 -0.8748  0.4753
  115MOL   H32341591   6.024   5.555   7.090 -0.9779  0.4574 -1.5878
  115MOL   H32441592   5.881   5.575   7.195 -0.1956  0.3613 -2.7568
  115MOL   H32541593   6.031   5.488   7.252 -0.7842 -2.9925 -1.1631
  115MOL   C32641594   5.878   4.875   6.975 -0.3179 -0.3722 -0.1849
  115MOL   C32741595   5.874   4.812   7.117 -0.0168 -0.5628 -0.0773
  115MOL   C32841596   5.732   4.845   7.177  0.6184  0.2855 -0.3711
  115MOL   O32941597   5.638   4.762   7.176 -0.3266 -0.4754 -0.2207
  115MOL   O33041598   5.724   4.974   7.229 -0.3055  0.0413 -0.6046
  115MOL   C33141599   5.602   5.013   7.274  0.3937  0.2928 -0.3487
  115MOL   C33241600   5.601   5.165   7.269  0.3696 -0.3038 -0.4847
  115MOL   C33341601   5.601   5.228   7.133  0.5285 -0.5320 -0.6633
  115MOL   H33441602   5.848   4.802   6.900 -1.1638  1.7689 -2.0007
  115MOL   H33541603   5.803   4.954   6.968  1.5835  1.2709 -2.5250
  115MOL   H33641604   5.945   4.863   7.182  2.0647 -3.6070  0.1327
  115MOL   H33741605   5.519   4.975   7.215  1.0185 -2.1195  0.2572
  115MOL   H33841606   5.578   4.986   7.377 -0.2715  3.2196  0.3256
  115MOL   H33941607   5.508   5.194   7.317  0.0711  0.1395 -1.3210
  115MOL   H34041608   5.680   5.210   7.329  0.6862  1.2383 -2.0266
  115MOL   H34141609   5.603   5.336   7.146  0.9996 -0.5966 -0.1732
  115MOL   H34241610   5.690   5.195   7.080  1.2872  2.0670 -1.0643
  115MOL   H34341611   5.515   5.219   7.066 -0.5322  2.4826  0.2195
  115MOL   C34441612   5.928   4.666   7.109 -0.6634 -0.8737 -0.5035
  115MOL   C34541613   5.966   4.605   7.247 -0.2815 -0.3701  0.0186
  115MOL   C34641614   6.047   4.479   7.246 -0.3609  0.3280 -0.0687
  115MOL   O34741615   6.172   4.473   7.270  0.5291 -0.3994 -0.2191
  115MOL   O34841616   5.965   4.369   7.213  0.3719  0.6404 -0.1019
  115MOL   C34941617   6.010   4.241   7.229 -0.4375 -0.4397  0.4850
  115MOL   C35041618   5.916   4.148   7.143 -0.2745  0.5990 -0.3659
  115MOL   C35141619   5.973   4.004   7.156  0.2284  0.5880  0.3413
  115MOL   H35241620   6.014   4.665   7.042 -0.5081  1.1698 -0.3543
  115MOL   H35341621   5.849   4.597   7.078 -1.6044 -0.4195  0.8484
  115MOL   H35441622   5.876   4.580   7.303  0.2131 -0.3861  0.8164
  115MOL   H35541623   6.114   4.220   7.203 -0.4289 -2.8066  2.2236
  115MOL   H35641624   6.008   4.217   7.335 -1.0546 -0.4484  0.4687
  115MOL   H35741625   5.814   4.147   7.181  0.3863  1.9313  1.4607
  115MOL   H35841626   5.921   4.176   7.038 -0.8693 -0.2363 -0.6218
  115MOL   H35941627   5.965   3.983   7.262  0.4258 -1.0051  0.0430
  115MOL   H36041628   5.908   3.940   7.097  0.1961  2.2209 -1.4618
  115MOL   H36141629   6.081   4.001   7.137 -0.0096 -1.1167 -0.8433
  115MOL   H36241630   6.003   4.674   7.323  1.8574  0.1028 -1.4080
  116MOL     C141631   5.200   3.264   2.048  0.3996  0.0835  0.4351
  116MOL     C241632   5.229   3.180   1.927  0.2101  0.0517  0.4820
  116MOL     C341633   5.287   3.256   1.810  0.0339 -0.4212 -0.1039
  116MOL     O441634   5.408   3.238   1.770 -0.1101  0.0339 -0.0317
  116MOL     O541635   5.196   3.344   1.760  0.0486 -0.0234 -0.2624
  116MOL     C641636   5.217   3.420   1.642 -0.5525  0.1488 -0.0970
  116MOL     C741637   5.278   3.554   1.681 -0.4448 -0.0734 -0.6358
  116MOL     C841638   5.292   3.657   1.570 -0.2862  0.3109 -0.6478
  116MOL     H941639   5.131   3.346   2.026  0.1864 -0.3476 -0.5174
  116MOL    H1041640   5.165   3.201   2.130 -0.6743 -0.4123 -0.3974
  116MOL    H1141641   5.138   3.135   1.889  1.3383 -1.0535 -0.9654
  116MOL    H1241642   5.287   3.379   1.570  0.2678 -1.1067  1.3969
  116MOL    H1341643   5.130   3.451   1.583  1.6526  2.7642 -2.1406
  116MOL    H1441644   5.200   3.593   1.746 -1.3552 -0.2797 -1.5995
  116MOL    H1541645   5.373   3.538   1.732 -1.8356 -1.7189  1.5276
  116MOL    H1641646   5.357   3.622   1.490  0.4231 -1.6569  0.7253
  116MOL    H1741647   5.200   3.677   1.515 -0.2409 -0.2854 -0.9535
  116MOL    H1841648   5.326   3.754   1.604 -1.1998 -0.3323  2.3224
  116MOL    H1941649   5.287   3.313   2.093 -1.1825  1.5803  1.9952
  116MOL    C2041650   5.325   3.067   1.971 -0.1931 -0.4621 -0.2684
  116MOL    C2141651   5.266   2.957   2.065  0.0554  0.5759  0.3748
  116MOL    C2241652   5.126   2.904   2.019  0.4984 -0.4780  0.1794
  116MOL    O2341653   5.126   2.803   1.953  0.3766 -0.2844 -0.1479
  116MOL    O2441654   5.024   2.987   2.048  0.3079  0.2654  0.1561
  116MOL    C2541655   4.894   2.955   2.003 -0.1275 -0.3183  0.1626
  116MOL    C2641656   4.781   3.000   2.090  0.2266 -0.2710  0.0306
  116MOL    C2741657   4.749   2.909   2.206 -0.8212  0.0335 -0.1181
  116MOL    H2841658   5.419   3.109   2.006 -0.1784 -0.8181  0.1270
  116MOL    H2941659   5.359   3.018   1.880  2.3038  2.7061 -1.1228
  116MOL    H3041660   5.233   3.006   2.156 -2.8167  0.7431 -0.7009
  116MOL    H3141661   4.887   3.011   1.910  0.4831  1.7491  1.3319
  116MOL    H3241662   4.886   2.847   1.987  2.3260 -0.6252  0.7991
  116MOL    H3341663   4.801   3.101   2.126  2.0184 -0.4325 -0.4806
  116MOL    H3441664   4.694   2.993   2.024  0.2275  1.9614 -0.2794
  116MOL    H3541665   4.830   2.887   2.275 -2.1658  1.5408  2.0010
  116MOL    H3641666   4.704   2.821   2.161 -0.1252  0.4317 -1.6263
  116MOL    H3741667   4.675   2.960   2.268  0.3847 -1.1416  2.3505
  116MOL    C3841668   5.368   2.845   2.090  0.5506 -0.3852  0.5408
  116MOL    C3941669   5.313   2.735   2.185  0.0592 -0.3428 -0.1258
  116MOL    C4041670   5.418   2.625   2.206  0.1150  0.6092 -0.5117
  116MOL    O4141671   5.521   2.648   2.268  1.2114 -0.3767  0.2510
  116MOL    O4241672   5.374   2.504   2.175  0.3506 -0.5421 -0.3107
  116MOL    C4341673   5.458   2.391   2.186  0.1950  0.5807 -0.1346
  116MOL    C4441674   5.522   2.340   2.053 -0.0495  0.4646  0.9471
  116MOL    C4541675   5.617   2.440   1.994  0.1538  0.0323 -0.0415
  116MOL    H4641676   5.451   2.898   2.138  1.7880 -1.6041 -0.2020
  116MOL    H4741677   5.408   2.794   2.002 -0.6877  1.5920 -1.2003
  116MOL    H4841678   5.234   2.683   2.131 -1.1158 -0.3933  1.6206
  116MOL    H4941679   5.533   2.414   2.261 -0.7915  1.1522  0.6965
  116MOL    H5041680   5.404   2.307   2.229  0.1705  0.6328 -0.0623
  116MOL    H5141681   5.578   2.249   2.073  0.6189  0.1419 -2.2518
  116MOL    H5241682   5.452   2.312   1.975  0.8975  0.6187  0.0386
  116MOL    H5341683   5.594   2.545   1.982 -1.5233 -0.7492 -4.9596
  116MOL    H5441684   5.650   2.395   1.900  1.8358  0.0297  0.5410
  116MOL    H5541685   5.696   2.447   2.068  1.0098  1.8099 -1.1017
  116MOL    C5641686   5.260   2.782   2.321  0.2426  0.3987  0.4778
  116MOL    C5741687   5.194   2.674   2.410 -0.4906 -0.3720 -0.4661
  116MOL    C5841688   5.134   2.732   2.542 -0.6837  0.4349  0.1459
  116MOL    O5941689   5.195   2.707   2.647  0.1977  0.1390 -0.4782
  116MOL    O6041690   5.030   2.805   2.532 -0.2226  0.6244 -0.4906
  116MOL    C6141691   4.991   2.870   2.650 -0.4229  0.1249 -0.2185
  116MOL    C6241692   4.940   3.007   2.599  0.3259  0.6256 -0.3178
  116MOL    C6341693   5.063   3.086   2.554  0.1598 -0.1845  0.5562
  116MOL    H6441694   5.175   2.842   2.288  0.3620 -0.3313 -1.2044
  116MOL    H6541695   5.336   2.839   2.374 -1.9403  0.8713  3.1906
  116MOL    H6641696   5.269   2.609   2.455  2.5721  2.3321 -1.4953
  116MOL    H6741697   4.912   2.808   2.694  1.1882 -3.3760 -2.0324
  116MOL    H6841698   5.061   2.894   2.730  0.6594  0.1255 -1.1582
  116MOL    H6941699   4.854   3.006   2.532  0.4403 -0.3890 -0.4632
  116MOL    H7041700   4.912   3.054   2.693 -1.9997 -0.7420 -0.2671
  116MOL    H7141701   5.051   3.194   2.545 -0.3923 -0.3286 -0.4833
  116MOL    H7241702   5.102   3.045   2.461 -0.3286  2.1899 -0.7265
  116MOL    H7341703   5.138   3.081   2.633  0.6626  0.1629  0.1073
  116MOL    C7441704   5.084   2.584   2.339  0.3088  0.8101  0.3220
  116MOL    C7541705   5.028   2.463   2.416 -0.4217 -0.4221 -0.4637
  116MOL    C7641706   4.888   2.444   2.361  0.2298  0.5513 -0.2434
  116MOL    O7741707   4.866   2.418   2.246  0.4609  0.6957  0.4577
  116MOL    O7841708   4.795   2.458   2.460  0.0567 -0.0869  0.0610
  116MOL    C7941709   4.658   2.507   2.430 -0.0823 -0.3582  0.6486
  116MOL    C8041710   4.606   2.604   2.543 -0.1507  0.6572  0.0561
  116MOL    C8141711   4.681   2.740   2.534  0.0184 -0.4801  0.3904
  116MOL    H8241712   5.122   2.557   2.241  2.4860 -2.8900  2.0692
  116MOL    H8341713   5.009   2.660   2.318  0.5579  1.1656  0.6848
  116MOL    H8441714   5.016   2.489   2.521 -0.8645  2.5070 -1.1977
  116MOL    H8541715   4.661   2.562   2.336  1.4562 -0.0786  0.8445
  116MOL    H8641716   4.591   2.425   2.408  0.2749 -0.4846  0.0010
  116MOL    H8741717   4.502   2.624   2.518 -0.8491 -3.1376 -0.3916
  116MOL    H8841718   4.605   2.550   2.637 -2.6797  0.5240 -0.0309
  116MOL    H8941719   4.650   2.802   2.619  1.2030 -0.5850  0.9104
  116MOL    H9041720   4.644   2.784   2.442 -0.6950 -0.4742  0.6722
  116MOL    H9141721   4.789   2.731   2.528  0.4404  3.6136 -0.0301
  116MOL    C9241722   5.113   2.333   2.391  0.5418 -0.0225 -0.3127
  116MOL    C9341723   5.103   2.235   2.514  0.0156 -0.3723 -0.3147
  116MOL    C9441724   5.143   2.307   2.651 -0.5203  0.3290 -0.6272
  116MOL    O9541725   5.066   2.313   2.750  0.2126 -0.0638  0.0773
  116MOL    O9641726   5.263   2.369   2.641  0.5776 -0.2282  0.0518
  116MOL    C9741727   5.321   2.425   2.757 -0.6035  0.4130  0.8085
  116MOL    C9841728   5.456   2.468   2.715 -0.4513 -0.2929  0.1319
  116MOL    C9941729   5.519   2.551   2.825  0.6482  0.5513  0.2201
  116MOL   H10041730   5.216   2.367   2.400  0.2930  1.0021 -1.1902
  116MOL   H10141731   5.096   2.290   2.293  0.8512  1.1011 -0.8748
  116MOL   H10241732   5.179   2.158   2.506 -1.0728 -1.3794 -1.0657
  116MOL   H10341733   5.267   2.508   2.802  1.9186  2.6927 -0.2156
  116MOL   H10441734   5.329   2.344   2.828 -1.7547  0.3796  0.9043
  116MOL   H10541735   5.509   2.385   2.666  0.7337  1.0029 -0.8295
  116MOL   H10641736   5.437   2.544   2.639 -2.2284 -1.1041 -0.2671
  116MOL   H10741737   5.451   2.631   2.856 -2.7197 -2.6352  1.4650
  116MOL   H10841738   5.598   2.616   2.786  3.0376 -2.5401 -0.2434
  116MOL   H10941739   5.547   2.496   2.915  0.8011 -2.6124 -1.7070
  116MOL   C11041740   4.972   2.155   2.508  0.0867  0.1390  0.1013
  116MOL   C11141741   4.943   2.049   2.395  0.5586 -0.1571 -0.5206
  116MOL   C11241742   5.055   1.955   2.358 -0.4943 -0.3763  0.2622
  116MOL   O11341743   5.098   1.941   2.241 -0.4525 -0.1618 -0.0153
  116MOL   O11441744   5.095   1.885   2.462  0.5195 -0.2105 -0.2036
  116MOL   C11541745   5.199   1.796   2.449  0.1023  0.9077  0.3355
  116MOL   C11641746   5.267   1.760   2.585 -0.1727  0.6011 -0.3168
  116MOL   C11741747   5.387   1.667   2.564  0.4776  0.7703  0.2865
  116MOL   H11841748   4.888   2.225   2.509  0.0930  0.1992 -2.2206
  116MOL   H11941749   4.968   2.102   2.603  2.3806  3.1569  1.9629
  116MOL   H12041750   4.915   2.116   2.313  0.1994 -0.9468 -1.0461
  116MOL   H12141751   5.163   1.702   2.406  0.6919  1.0625 -0.5225
  116MOL   H12241752   5.277   1.823   2.378  0.6246 -1.1582  0.0837
  116MOL   H12341753   5.306   1.847   2.639 -0.0493  0.2052  0.2364
  116MOL   H12441754   5.206   1.711   2.661  0.2775 -0.6621 -0.7527
  116MOL   H12541755   5.456   1.731   2.510 -1.4785  1.2921 -1.6946
  116MOL   H12641756   5.369   1.577   2.503 -0.4806 -0.4869  2.3580
  116MOL   H12741757   5.427   1.645   2.662 -2.6409 -0.0613  1.4509
  116MOL   C12841758   4.824   1.967   2.444 -0.2392 -0.0267  0.7433
  116MOL   C12941759   4.778   1.846   2.349 -0.5091  0.1481  0.4228
  116MOL   C13041760   4.660   1.782   2.420 -0.3990  0.5581 -0.3299
  116MOL   O13141761   4.570   1.849   2.473 -0.7589  0.4008  0.2045
  116MOL   O13241762   4.664   1.652   2.409  0.2714 -0.1756  0.0656
  116MOL   C13341763   4.559   1.567   2.461 -0.5678 -0.3773 -0.0199
  116MOL   C13441764   4.487   1.496   2.347 -0.0193 -0.2154 -0.0476
  116MOL   C13541765   4.370   1.584   2.298  0.3033 -0.0503 -0.2112
  116MOL   H13641766   4.738   2.028   2.470 -0.7481 -0.6208  0.4682
  116MOL   H13741767   4.849   1.934   2.545 -1.2411  1.3807  1.4549
  116MOL   H13841768   4.855   1.769   2.353  1.2737  1.8971  0.4603
  116MOL   H13941769   4.607   1.495   2.527 -0.9167 -0.0130  0.6358
  116MOL   H14041770   4.497   1.629   2.527 -0.6720  1.4659 -1.7901
  116MOL   H14141771   4.554   1.483   2.262  1.4926 -1.1114  1.2524
  116MOL   H14241772   4.444   1.402   2.382  1.1240 -0.8908 -0.4184
  116MOL   H14341773   4.293   1.606   2.372 -2.1675  1.6964 -3.1865
  116MOL   H14441774   4.314   1.523   2.227 -0.8219 -0.7876  1.2815
  116MOL   H14541775   4.409   1.678   2.258 -1.0026  0.0987 -1.1438
  116MOL   C14641776   4.736   1.904   2.208  0.0656  0.0257  0.7333
  116MOL   C14741777   4.727   1.785   2.099  0.9885  0.0870 -0.0118
  116MOL   C14841778   4.661   1.839   1.969 -0.4022 -0.0885 -0.1048
  116MOL   O14941779   4.727   1.867   1.869 -0.5503 -0.3842  0.2684
  116MOL   O15041780   4.533   1.862   1.979  0.2416 -0.1919 -0.3715
  116MOL   C15141781   4.452   1.898   1.862  0.0579  0.3045  0.4652
  116MOL   C15241782   4.423   1.763   1.801  0.5812 -0.7275 -0.1664
  116MOL   C15341783   4.314   1.689   1.889  0.0357 -0.1042  0.1331
  116MOL   H15441784   4.805   1.976   2.165 -0.6921  0.6701  0.5875
  116MOL   H15541785   4.639   1.954   2.215  0.7018  1.9664 -2.9955
  116MOL   H15641786   4.650   1.720   2.140 -0.0946  1.3711  0.0403
  116MOL   H15741787   4.361   1.957   1.873 -0.1221  0.1574 -0.2633
  116MOL   H15841788   4.514   1.956   1.794  1.1352  0.9190  1.9345
  116MOL   H15941789   4.390   1.767   1.697 -0.1261  0.8515  0.1037
  116MOL   H16041790   4.518   1.713   1.787  0.3409 -1.1475 -0.3129
  116MOL   H16141791   4.239   1.766   1.907  1.1644  0.8031  1.0671
  116MOL   H16241792   4.344   1.645   1.984  2.1550  1.0477  0.0184
  116MOL   H16341793   4.262   1.611   1.833  1.7259  0.0331 -1.7004
  116MOL   C16441794   4.868   1.727   2.071  0.7637 -0.8834  0.0606
  116MOL   C16541795   4.879   1.617   1.966 -0.2611  0.2250  0.1428
  116MOL   C16641796   5.024   1.601   1.915 -0.6075  0.6550 -0.0192
  116MOL   O16741797   5.049   1.599   1.794 -0.3561 -0.0520  0.2200
  116MOL   O16841798   5.110   1.602   2.022 -0.3103  0.1941  0.2385
  116MOL   C16941799   5.253   1.605   1.998  0.3435 -0.2905 -0.6046
  116MOL   C17041800   5.348   1.651   2.104 -0.1332  0.0659 -0.7369
  116MOL   C17141801   5.375   1.544   2.209  0.3599  0.5351  0.1784
  116MOL   H17241802   4.910   1.685   2.162  0.1578  1.4021  1.4692
  116MOL   H17341803   4.934   1.809   2.041 -0.4693 -0.9757 -3.1100
  116MOL   H17441804   4.822   1.658   1.883  0.5374 -0.5274 -0.7823
  116MOL   H17541805   5.282   1.508   1.958 -0.4631 -0.3362 -1.0974
  116MOL   H17641806   5.271   1.675   1.916 -0.3295  0.0378 -0.4709
  116MOL   H17741807   5.435   1.682   2.046 -0.9311  1.2063 -1.3324
  116MOL   H17841808   5.306   1.740   2.151 -0.4953 -0.1136 -0.7187
  116MOL   H17941809   5.419   1.454   2.167 -0.2369  1.4114 -2.4410
  116MOL   H18041810   5.282   1.517   2.260  0.3638  1.3965  0.6635
  116MOL   H18141811   5.445   1.586   2.282  0.3910 -1.8368  1.5538
  116MOL   C18241812   4.821   1.479   2.016  0.2701 -0.5897 -0.3710
  116MOL   C18341813   4.795   1.369   1.903 -0.2569  0.0318 -0.3499
  116MOL   C18441814   4.714   1.430   1.785 -0.1489  0.1472 -0.1199
  116MOL   O18541815   4.590   1.434   1.786  0.1251 -0.0281 -0.1347
  116MOL   O18641816   4.794   1.478   1.691 -0.2750 -0.1889 -0.3780
  116MOL   C18741817   4.745   1.561   1.589 -0.2606 -0.4036  0.3211
  116MOL   C18841818   4.855   1.575   1.485 -0.2035 -0.2790 -0.2137
  116MOL   C18941819   4.883   1.441   1.413  0.5475  0.1028  0.2439
  116MOL   H19041820   4.729   1.491   2.072  1.7753 -0.5104  2.1610
  116MOL   H19141821   4.888   1.444   2.094 -0.5826 -0.2731  0.5117
  116MOL   H19241822   4.730   1.297   1.952 -1.6152  2.2183  1.1389
  116MOL   H19341823   4.657   1.516   1.544  0.8605 -2.2000 -0.1318
  116MOL   H19441824   4.704   1.656   1.624 -0.4150 -0.6656  0.8600
  116MOL   H19541825   4.829   1.664   1.426  0.8641  0.1714 -0.0078
  116MOL   H19641826   4.942   1.606   1.543 -0.1811 -1.2735  0.2850
  116MOL   H19741827   4.969   1.455   1.347  0.8828  0.2848  0.7161
  116MOL   H19841828   4.797   1.411   1.354 -0.2608  1.6323  0.6192
  116MOL   H19941829   4.919   1.358   1.473  0.2390 -0.8885 -0.9158
  116MOL   C20041830   4.924   1.283   1.873  0.2989  0.3194  0.3098
  116MOL   C20141831   4.894   1.148   1.813  0.4848  0.2582 -0.2441
  116MOL   C20241832   4.956   1.125   1.677 -0.6320 -0.1733 -0.5334
  116MOL   O20341833   4.890   1.083   1.581 -0.2117  0.2710 -0.0985
  116MOL   O20441834   5.088   1.137   1.672  0.0959  0.4033 -0.1484
  116MOL   C20541835   5.157   1.135   1.548  0.3580  0.3548  0.1478
  116MOL   C20641836   5.211   0.998   1.515 -0.4687  0.3144 -0.5632
  116MOL   C20741837   5.302   0.933   1.616  0.4070  0.5454 -1.1488
  116MOL   H20841838   4.968   1.282   1.973  1.7142 -0.8886 -0.3166
  116MOL   H20941839   4.994   1.342   1.814 -1.7446  2.3513 -0.1645
  116MOL   H21041840   4.789   1.129   1.792  0.8124 -1.5447 -0.3317
  116MOL   H21141841   5.099   1.184   1.470 -0.7639  0.0168  0.7481
  116MOL   H21241842   5.243   1.201   1.552  0.0421  0.9086 -1.8047
  116MOL   H21341843   5.125   0.934   1.495 -0.1612  0.1767 -1.4551
  116MOL   H21441844   5.269   1.001   1.424  1.5290  1.4015  0.7159
  116MOL   H21541845   5.249   0.911   1.709  0.3399  2.7208 -0.6643
  116MOL   H21641846   5.377   1.010   1.629 -3.1538  3.9950 -0.1374
  116MOL   H21741847   5.341   0.840   1.574  0.2529  0.5007 -1.1934
  116MOL   C21841848   4.938   1.040   1.910  0.3668  0.1758  0.9115
  116MOL   C21941849   4.851   1.014   2.040 -0.4620 -0.3939  0.5695
  116MOL   C22041850   4.696   0.995   2.019  0.5346 -0.1776 -0.5592
  116MOL   O22141851   4.607   1.037   2.099 -0.1850  0.3042 -0.0894
  116MOL   O22241852   4.661   0.925   1.910  0.0778  0.1551  0.2911
  116MOL   C22341853   4.527   0.894   1.880 -0.0546 -0.1303  0.1368
  116MOL   C22441854   4.483   0.967   1.755  0.4974 -0.3391  0.0166
  116MOL   C22541855   4.526   0.911   1.624 -0.0633 -0.0807 -0.2506
  116MOL   H22641856   5.043   1.058   1.930  0.0439  0.8078  2.1623
  116MOL   H22741857   4.942   0.947   1.854 -0.4531  0.8374 -0.2821
  116MOL   H22841858   4.867   1.097   2.109 -0.6114  1.5663 -1.7246
  116MOL   H22941859   4.527   0.786   1.864  1.9399  0.2602 -2.8209
  116MOL   H23041860   4.456   0.919   1.959 -0.2953 -1.0247  0.2120
  116MOL   H23141861   4.374   0.974   1.760  0.5690  2.1521 -1.0164
  116MOL   H23241862   4.520   1.070   1.756 -1.5138  0.4270  0.5851
  116MOL   H23341863   4.484   0.814   1.598  2.0565 -0.8515 -0.8969
  116MOL   H23441864   4.634   0.905   1.613 -0.4414 -1.6093 -3.5600
  116MOL   H23541865   4.483   0.978   1.549 -0.8095 -1.0853 -0.7359
  116MOL   C23641866   4.891   0.882   2.111 -0.3214 -0.7389 -0.0927
  116MOL   C23741867   5.025   0.892   2.187 -0.0577  0.1030 -0.0097
  116MOL   C23841868   5.009   0.934   2.334  0.6448 -0.2325  0.5498
  116MOL   O23941869   5.038   1.045   2.366  0.1974  0.7671 -0.6347
  116MOL   O24041870   4.957   0.838   2.417 -0.7133  0.4161 -0.6235
  116MOL   C24141871   4.968   0.861   2.553 -0.5710 -0.0791  0.4072
  116MOL   C24241872   4.992   0.720   2.610 -0.1178  0.3869  0.4029
  116MOL   C24341873   5.000   0.726   2.763 -0.2554  0.3019  0.2964
  116MOL   H24441874   4.886   0.818   2.023 -0.8447  0.4088 -0.9172
  116MOL   H24541875   4.813   0.842   2.176 -0.3391  1.5689  1.3787
  116MOL   H24641876   5.081   0.973   2.141 -2.8036  0.8636 -2.1654
  116MOL   H24741877   5.048   0.931   2.576 -0.2205 -0.3052 -0.1264
  116MOL   H24841878   4.874   0.904   2.589 -1.0965 -0.7887 -0.0852
  116MOL   H24941879   4.904   0.666   2.576 -2.1084  2.5184  2.0424
  116MOL   H25041880   5.079   0.675   2.561  0.5941  0.0362  1.9495
  116MOL   H25141881   5.081   0.798   2.772 -1.6767  2.1027 -1.0543
  116MOL   H25241882   5.013   0.629   2.811  0.2772  1.2506  2.1357
  116MOL   H25341883   4.913   0.782   2.797  0.2657  1.2758  0.0353
  116MOL   C25441884   5.101   0.762   2.162 -0.1827 -0.2123 -0.8777
  116MOL   C25541885   5.163   0.753   2.025 -0.3120  0.4367 -0.1236
  116MOL   C25641886   5.291   0.842   2.018  0.0770 -0.3747 -0.2172
  116MOL   O25741887   5.404   0.796   2.044  0.5346  0.1486 -0.2430
  116MOL   O25841888   5.266   0.959   1.984  0.4319  0.4350  0.4299
  116MOL   C25941889   5.362   1.062   1.985 -0.1161  0.0975 -1.1009
  116MOL   C26041890   5.301   1.201   1.974 -0.4673  0.3312 -0.1752
  116MOL   C26141891   5.221   1.238   2.115 -0.2791 -0.1138  0.6390
  116MOL   H26241892   5.027   0.683   2.173 -0.4246  0.2471  0.8482
  116MOL   H26341893   5.168   0.743   2.246 -0.7063 -0.2625 -0.4664
  116MOL   H26441894   5.100   0.793   1.946 -1.2108 -0.5349  0.0949
  116MOL   H26541895   5.422   1.062   2.076 -3.2560 -0.7472  1.0591
  116MOL   H26641896   5.413   1.044   1.891  0.9614 -0.7090 -0.3739
  116MOL   H26741897   5.374   1.282   1.967 -0.3869  0.2218 -0.5780
  116MOL   H26841898   5.243   1.229   1.887 -0.6813  1.1287  0.2184
  116MOL   H26941899   5.155   1.325   2.110 -2.8258 -2.0037 -0.3894
  116MOL   H27041900   5.298   1.264   2.187 -0.0977  0.2071  0.3297
  116MOL   H27141901   5.160   1.151   2.143 -0.6495 -0.3788 -0.9309
  116MOL   C27241902   5.188   0.604   1.971  0.0674  0.1407 -0.4208
  116MOL   C27341903   5.066   0.509   1.970  0.0575  0.5214  0.0022
  116MOL   C27441904   4.941   0.573   1.902  0.4116  0.0987 -0.2625
  116MOL   O27541905   4.827   0.580   1.950 -0.0558  0.1561 -0.4864
  116MOL   O27641906   4.976   0.628   1.779 -0.8397  0.1182  0.2719
  116MOL   C27741907   4.876   0.697   1.704 -0.0205  0.2026  0.1546
  116MOL   C27841908   4.908   0.661   1.556  0.5057 -1.0815 -0.0914
  116MOL   C27941909   4.857   0.529   1.514 -0.4576 -0.1051  0.1543
  116MOL   H28041910   5.264   0.555   2.032  0.6542  0.9681 -0.4766
  116MOL   H28141911   5.223   0.615   1.869  3.0754  1.1077  0.6559
  116MOL   H28241912   5.043   0.496   2.076 -2.1980  1.7297 -0.3111
  116MOL   H28341913   4.773   0.681   1.737  0.2400  1.2674  1.5232
  116MOL   H28441914   4.887   0.805   1.717 -0.3513  0.1218  1.2031
  116MOL   H28541915   4.852   0.731   1.494  0.5396 -0.4881  0.5420
  116MOL   H28641916   5.013   0.666   1.527  0.4647  2.4106  0.1581
  116MOL   H28741917   4.922   0.442   1.523 -0.0817  0.0777 -0.8056
  116MOL   H28841918   4.808   0.528   1.416 -0.6569 -0.8323  0.2577
  116MOL   H28941919   4.771   0.501   1.575  0.5146 -0.9105  1.1658
  116MOL   C29041920   5.105   0.367   1.913  0.0136 -0.4416 -0.3575
  116MOL   C29141921   5.076   0.245   2.016  0.6529  0.5318  0.5258
  116MOL   C29241922   5.180   0.245   2.125  0.8212  0.5302  0.3508
  116MOL   O29341923   5.256   0.149   2.135  0.3844  0.6951  0.5258
  116MOL   O29441924   5.171   0.350   2.210  0.2246  0.5517  0.4809
  116MOL   C29541925   5.241   0.365   2.335  0.0493  0.0874  0.2630
  116MOL   C29641926   5.274   0.517   2.365  0.3706  0.6382 -0.6523
  116MOL   C29741927   5.347   0.529   2.502 -0.1070 -0.3999 -0.5788
  116MOL   H29841928   5.211   0.374   1.887 -0.1467  0.6875 -0.7126
  116MOL   H29941929   5.069   0.359   1.810 -0.6625  0.3575 -0.1841
  116MOL   H30041930   5.089   0.158   1.952  1.0213  0.5173  0.6229
  116MOL   H30141931   5.180   0.325   2.416 -0.5727 -0.2620 -0.3669
  116MOL   H30241932   5.340   0.322   2.326 -1.2797 -2.6275 -2.4800
  116MOL   H30341933   5.325   0.564   2.281  0.3180 -0.0461 -1.0628
  116MOL   H30441934   5.179   0.570   2.372  0.0385 -0.1236  0.7205
  116MOL   H30541935   5.441   0.474   2.503  1.1314  1.6943  0.6637
  116MOL   H30641936   5.286   0.492   2.584  2.5975 -0.3127  1.5352
  116MOL   H30741937   5.359   0.637   2.514 -3.5830 -0.0168  0.0320
  116MOL   C30841938   4.929   0.242   2.067  0.1765 -0.1771 -0.1885
  116MOL   C30941939   4.862   0.101   2.057 -0.9333 -0.1478  0.3843
  116MOL   C31041940   4.921   0.007   2.165  0.7461  1.0625  0.2032
  116MOL   O31141941   4.996   7.803   2.127 -0.0489 -0.5617  0.3878
  116MOL   O31241942   4.894   0.044   2.289  0.7890 -0.1362  0.5224
  116MOL   C31341943   4.966   7.864   2.396  0.3141 -0.3542  0.2778
  116MOL   C31441944   5.088   0.063   2.431  0.4856 -0.2676  0.1418
  116MOL   C31541945   5.175   7.873   2.538  0.3492 -0.6000  0.1659
  116MOL   H31641946   4.872   0.318   2.013  1.9519  0.4055 -1.2679
  116MOL   H31741947   4.929   0.275   2.171  0.4075  0.5230 -0.4107
  116MOL   H31841948   4.875   0.064   1.956 -0.2745 -1.4405  0.9229
  116MOL   H31941949   4.897   7.861   2.480  1.3997  0.6911  1.2174
  116MOL   H32041950   4.993   7.760   2.376  0.0158  0.1200 -2.8082
  116MOL   H32141951   5.155   0.079   2.346  0.2131  1.2575  0.2051
  116MOL   H32241952   5.049   0.160   2.463  0.3404 -0.0760 -0.5945
  116MOL   H32341953   5.116   7.850   2.627  0.2543 -0.0340  0.2503
  116MOL   H32441954   5.215   7.783   2.493  0.1329 -0.7511  0.2726
  116MOL   H32541955   5.256   0.061   2.563 -1.0385  1.7750 -1.5625
  116MOL   C32641956   4.705   0.121   2.073  0.0483  0.4001  0.1158
  116MOL   C32741957   4.636   0.141   2.210 -0.1260 -0.0357  0.6929
  116MOL   C32841958   4.666   0.277   2.274  1.0782  0.0746  0.2876
  116MOL   O32941959   4.752   0.292   2.356  0.0893 -0.3422 -0.4953
  116MOL   O33041960   4.582   0.370   2.229 -0.2154  0.1863  0.1825
  116MOL   C33141961   4.599   0.502   2.281 -0.0069  0.2452 -0.0038
  116MOL   C33241962   4.500   0.580   2.183 -0.3411 -0.0752 -0.0271
  116MOL   C33341963   4.486   0.727   2.209  0.0644  1.3616  0.1010
  116MOL   H33441964   4.655   0.040   2.018  0.0320  1.5633 -1.6348
  116MOL   H33541965   4.678   0.202   2.005  0.4148  1.1283  0.8408
  116MOL   H33641966   4.684   0.064   2.270  1.1365  0.2548  0.0757
  116MOL   H33741967   4.580   0.521   2.386 -1.5123  2.6694 -0.6655
  116MOL   H33841968   4.691   0.555   2.260 -0.8127  0.8873 -2.1063
  116MOL   H33941969   4.536   0.552   2.084  1.2632  0.5652  0.3463
  116MOL   H34041970   4.403   0.532   2.194  0.1711 -0.7605  1.7537
  116MOL   H34141971   4.436   0.749   2.304  2.7646  0.8377  1.6796
  116MOL   H34241972   4.580   0.781   2.215  0.9262 -0.2903  1.9570
  116MOL   H34341973   4.438   0.763   2.118  0.0945  0.4387 -0.2877
  116MOL   C34441974   4.486   0.109   2.195  0.3365 -0.4251  0.4227
  116MOL   C34541975   4.454   7.839   2.213 -0.5477  0.3190  0.4497
  116MOL   C34641976   4.379   7.777   2.091  0.2791  0.2377  0.2281
  116MOL   O34741977   4.254   7.794   2.081  0.2755  0.5440  0.1269
  116MOL   O34841978   4.460   7.704   2.011  0.2809  0.5071  0.0434
  116MOL   C34941979   4.405   7.636   1.904 -0.2902  0.9102 -0.1042
  116MOL   C35041980   4.411   7.698   1.772  0.0439 -0.3081  0.1301
  116MOL   C35141981   4.330   7.630   1.655 -0.1738  0.4735  0.0754
  116MOL   H35241982   4.453   0.150   2.100 -1.5722 -2.2368  0.2698
  116MOL   H35341983   4.425   0.152   2.275  1.2854 -1.0193  1.4834
  116MOL   H35441984   4.398   7.825   2.306 -0.4436 -1.5590  0.2560
  116MOL   H35541985   4.441   7.534   1.891 -0.7998  0.4417  1.9689
  116MOL   H35641986   4.301   7.612   1.921 -0.2331  1.0245  0.3989
  116MOL   H35741987   4.376   7.800   1.786  0.8838  0.0577 -0.3851
  116MOL   H35841988   4.515   7.703   1.742  0.0567  1.1975  0.3934
  116MOL   H35941989   4.389   7.548   1.613 -0.8120  0.2683 -0.4167
  116MOL   H36041990   4.229   7.608   1.689 -0.1096 -0.5007 -0.3571
  116MOL   H36141991   4.319   7.693   1.567  0.6561 -1.5552 -1.5246
  116MOL   H36241992   4.542   7.780   2.240 -2.0606 -1.1930  2.2215
  117MOL     C141993   7.539   4.934   3.943  0.2163  0.0801  0.1855
  117MOL     C241994   7.593   5.039   3.834 -0.0008 -0.0460 -1.5935
  117MOL     C341995   7.672   4.975   3.723 -0.4571 -0.6394  0.1018
  117MOL     O441996   7.686   4.854   3.721 -0.1149  0.3405  0.2700
  117MOL     O541997   7.726   5.066   3.631  0.3356 -0.2988 -0.1135
  117MOL     C641998   7.812   5.016   3.533  0.0628 -0.3638  0.6836
  117MOL     C741999   7.751   5.027   3.389 -0.9670 -0.1922  0.4096
  117MOL     C842000   7.607   4.983   3.382  0.3351  0.0618  0.3250
  117MOL     H942001   7.467   4.862   3.904 -0.8392  0.3619  1.6291
  117MOL    H1042002   7.629   4.879   3.973 -0.2565  0.1503  1.7530
  117MOL    H1142003   7.659   5.104   3.893 -0.1020 -0.5794 -0.8825
  117MOL    H1242004   0.013   5.089   3.527 -0.7587  0.5138  0.0349
  117MOL    H1342005   7.863   4.924   3.561 -0.1847 -0.1557  1.8704
  117MOL    H1442006   7.760   5.132   3.361 -0.0764  0.0586  1.5733
  117MOL    H1542007   7.814   4.964   3.327  0.1774  2.1178 -0.8654
  117MOL    H1642008   7.572   4.956   3.283  0.4495 -0.6339  0.4733
  117MOL    H1742009   7.608   4.894   3.445 -1.4173 -1.4140 -1.6520
  117MOL    H1842010   7.546   5.061   3.429 -0.5022  0.1694 -0.9053
  117MOL    H1942011   7.497   4.971   4.036 -1.6176 -0.1089 -0.5461
  117MOL    C2042012   7.467   5.107   3.774 -0.2133 -0.5167 -0.4227
  117MOL    C2142013   7.421   5.229   3.863 -1.1390  0.2210  0.1794
  117MOL    C2242014   7.524   5.344   3.860 -0.2018 -0.1716 -0.2451
  117MOL    O2342015   7.595   5.370   3.962  0.2612 -0.2357 -0.0950
  117MOL    O2442016   7.549   5.394   3.735  0.1107  0.9659  0.2598
  117MOL    C2542017   7.661   5.476   3.716  0.4819  0.4175 -0.3590
  117MOL    C2642018   7.679   5.520   3.575 -0.3984  0.2257  0.2018
  117MOL    C2742019   7.813   5.584   3.548  0.1769  0.2518  0.5022
  117MOL    H2842020   7.385   5.036   3.776 -1.4380  0.8758  0.6224
  117MOL    H2942021   7.479   5.138   3.671  0.7963 -0.8644 -0.4197
  117MOL    H3042022   7.432   5.187   3.963 -0.9820  0.7180  0.3750
  117MOL    H3142023   7.635   5.563   3.777 -1.1046 -0.9733  1.0068
  117MOL    H3242024   7.749   5.422   3.751  0.5629  1.6281  1.4118
  117MOL    H3342025   7.654   5.438   3.508  3.2750 -1.8663  1.2539
  117MOL    H3442026   7.600   5.585   3.537 -1.3324 -0.0685  1.5766
  117MOL    H3542027   7.833   5.679   3.600 -1.5602  0.6382  0.4964
  117MOL    H3642028   7.836   5.600   3.443 -1.1368  3.0390  0.5785
  117MOL    H3742029   0.011   5.520   3.589 -1.3818 -2.8608 -1.2436
  117MOL    C3842030   7.281   5.280   3.841  0.4862 -0.3506  0.1117
  117MOL    C3942031   7.215   5.321   3.977  0.1747  0.0123 -0.4312
  117MOL    C4042032   7.128   5.440   3.961  0.3203  0.1839  0.1160
  117MOL    O4142033   7.124   5.524   4.049  0.2959  0.2378 -0.1225
  117MOL    O4242034   7.050   5.437   3.855 -0.2918 -0.2641  0.0828
  117MOL    C4342035   6.946   5.531   3.848  0.1816 -0.1558  0.2848
  117MOL    C4442036   6.879   5.534   3.709  0.0903  0.0602 -0.3150
  117MOL    C4542037   6.955   5.619   3.611 -0.2208 -0.3694 -0.1290
  117MOL    H4642038   7.219   5.200   3.800 -0.2223  0.6922 -0.8682
  117MOL    H4742039   7.285   5.363   3.770  0.8874 -0.6454 -0.2130
  117MOL    H4842040   7.297   5.360   4.039  0.7599  1.1425 -1.8820
  117MOL    H4942041   6.876   5.528   3.932 -2.4235  0.3737 -1.8135
  117MOL    H5042042   6.990   5.630   3.859  2.0939 -0.9237 -0.3275
  117MOL    H5142043   6.877   5.430   3.676  1.0147 -0.1932  0.4102
  117MOL    H5242044   6.779   5.577   3.707 -0.2501 -0.6859  0.2592
  117MOL    H5342045   7.027   5.559   3.555 -0.2564 -0.0994 -0.4666
  117MOL    H5442046   7.000   5.704   3.662 -0.6281  0.7586 -1.5963
  117MOL    H5542047   6.895   5.670   3.536  2.3684  2.3095 -0.4596
  117MOL    C5642048   7.159   5.195   4.053  0.7165  0.1998  0.1148
  117MOL    C5742049   7.030   5.135   3.991 -0.3469  0.4479 -0.0998
  117MOL    C5842050   7.076   5.005   3.919 -0.4661  0.0287  0.1769
  117MOL    O5942051   7.075   4.992   3.796  0.2730 -0.1256  1.1681
  117MOL    O6042052   7.120   4.906   4.010  0.2822  0.1407  0.3148
  117MOL    C6142053   7.173   4.783   3.965  0.0182 -0.1022  0.2528
  117MOL    C6242054   7.047   4.698   3.941  0.0332  0.2514  0.5881
  117MOL    C6342055   6.966   4.679   4.067  0.5854 -0.1354 -0.0097
  117MOL    H6442056   7.134   5.242   4.148  0.4717  0.2613  0.0173
  117MOL    H6542057   7.236   5.120   4.073  2.1078  0.9755 -2.1676
  117MOL    H6642058   6.993   5.197   3.909  0.1646 -1.1740 -1.5856
  117MOL    H6742059   7.231   4.800   3.873 -1.7655  0.6762 -0.7598
  117MOL    H6842060   7.241   4.751   4.044 -1.9267 -0.7360  1.6833
  117MOL    H6942061   6.985   4.742   3.863  1.1357 -0.4771 -0.7076
  117MOL    H7042062   7.074   4.602   3.896 -0.2466 -0.3550  1.6766
  117MOL    H7142063   6.928   4.773   4.106  0.8371 -1.1265  2.7653
  117MOL    H7242064   7.029   4.644   4.150 -0.5420  0.6439  1.1994
  117MOL    H7342065   6.881   4.611   4.062 -0.2758  1.0433 -1.8323
  117MOL    C7442066   6.916   5.106   4.091 -0.6011 -0.2615  0.3953
  117MOL    C7542067   6.853   5.245   4.138 -1.1454 -0.0583 -0.2437
  117MOL    C7642068   6.730   5.290   4.053  0.2515  0.3651 -0.7252
  117MOL    O7742069   6.671   5.394   4.076 -0.5010 -0.8873 -0.6630
  117MOL    O7842070   6.708   5.210   3.944  0.3052  0.4170 -0.1619
  117MOL    C7942071   6.617   5.245   3.853 -0.7348 -0.1108  0.2110
  117MOL    C8042072   6.661   5.185   3.709  0.2608  0.2351 -0.1866
  117MOL    C8142073   6.587   5.244   3.589 -0.0501  0.0143  0.2813
  117MOL    H8242074   6.952   5.038   4.168 -2.6253 -2.1835 -0.2783
  117MOL    H8342075   6.843   5.044   4.038 -0.8612 -0.5984  1.1345
  117MOL    H8442076   6.934   5.318   4.126 -0.1861 -0.8872  1.0353
  117MOL    H8542077   6.526   5.202   3.895 -1.3097  0.2589 -0.6288
  117MOL    H8642078   6.625   5.353   3.845 -0.4589 -0.2656 -2.2634
  117MOL    H8742079   6.767   5.196   3.688  0.3388  0.4830  0.3286
  117MOL    H8842080   6.651   5.077   3.706  1.4715  0.1674 -2.3766
  117MOL    H8942081   6.598   5.179   3.502  1.7755  1.6444 -0.7532
  117MOL    H9042082   6.628   5.344   3.570  0.6619 -0.4584 -0.6985
  117MOL    H9142083   6.481   5.247   3.615  0.0514 -1.5928  0.9267
  117MOL    C9242084   6.829   5.249   4.287  1.0902 -0.0781 -0.6529
  117MOL    C9342085   6.742   5.141   4.352  0.2301  0.1281  0.1787
  117MOL    C9442086   6.827   5.024   4.398 -0.4091 -0.3963  0.5405
  117MOL    O9542087   6.812   4.909   4.350  0.1950 -0.9997  0.0196
  117MOL    O9642088   6.918   5.064   4.496  0.2500  0.5035  0.2299
  117MOL    C9742089   7.011   4.965   4.545  0.8504 -0.2595 -0.0180
  117MOL    C9842090   7.144   5.026   4.555 -0.4456  0.6425 -0.7315
  117MOL    C9942091   7.226   5.039   4.419 -0.9733  0.4884  0.2637
  117MOL   H10042092   6.786   5.347   4.307  2.4033  0.5968 -1.1139
  117MOL   H10142093   6.923   5.255   4.341 -0.3429 -0.1768  1.9482
  117MOL   H10242094   6.674   5.087   4.285  0.6690  0.4720 -0.5491
  117MOL   H10342095   6.976   4.937   4.644 -1.3781  0.6880 -0.5116
  117MOL   H10442096   7.015   4.876   4.482 -1.9426  0.2613 -0.9822
  117MOL   H10542097   7.137   5.126   4.598 -0.6645 -0.0353  0.8777
  117MOL   H10642098   7.197   4.962   4.625 -0.6839  0.3039 -0.8617
  117MOL   H10742099   7.173   5.103   4.349  1.6209 -2.0021 -4.1401
  117MOL   H10842100   7.242   4.942   4.374  2.7407  0.4905  1.4151
  117MOL   H10942101   7.324   5.085   4.434 -0.6140 -0.4518  0.8372
  117MOL   C11042102   6.654   5.201   4.463 -0.9257 -0.2470  0.7761
  117MOL   C11142103   6.524   5.278   4.411  1.1078  0.1044 -0.0941
  117MOL   C11242104   6.436   5.171   4.347 -0.0314 -0.4447 -0.6683
  117MOL   O11342105   6.431   5.167   4.232 -0.0635 -0.6736 -0.0452
  117MOL   O11442106   6.380   5.090   4.434 -0.1157  0.7431  0.1063
  117MOL   C11542107   6.321   4.959   4.399  0.3986 -0.3277 -0.4603
  117MOL   C11642108   6.406   4.838   4.433 -0.2957  0.4539  0.6261
  117MOL   C11742109   6.337   4.707   4.400  0.1927  0.9575 -0.0926
  117MOL   H11842110   6.725   5.266   4.514  0.4285 -1.0175 -0.1116
  117MOL   H11942111   6.628   5.128   4.540  0.1295 -3.1195 -1.5162
  117MOL   H12042112   6.563   5.347   4.337 -1.0546  1.5911  0.1213
  117MOL   H12142113   6.231   4.957   4.460 -0.6186 -0.2298 -1.9211
  117MOL   H12242114   6.287   4.969   4.296 -0.3313  0.8238 -0.1282
  117MOL   H12342115   6.503   4.838   4.385 -0.1209 -0.9319  0.9581
  117MOL   H12442116   6.410   4.825   4.542 -1.0390 -2.3855  0.3667
  117MOL   H12542117   6.404   4.624   4.424 -1.1108  0.0575  0.4827
  117MOL   H12642118   6.314   4.699   4.294 -1.4559  1.2714  0.2339
  117MOL   H12742119   6.261   4.705   4.479 -1.6609  1.4244 -1.8344
  117MOL   C12842120   6.453   5.348   4.525 -0.2674 -0.0260 -0.1709
  117MOL   C12942121   6.330   5.433   4.475 -0.3091 -0.4512 -0.3360
  117MOL   C13042122   6.258   5.505   4.588 -0.2318  0.0068 -0.3279
  117MOL   O13142123   6.320   5.540   4.685 -0.6642 -0.0130 -0.2666
  117MOL   O13242124   6.126   5.534   4.565  0.5604 -0.1008  0.7554
  117MOL   C13342125   6.054   5.610   4.657 -0.0232  0.1087  0.6524
  117MOL   C13442126   6.061   5.754   4.609  0.3129 -0.2645  0.1415
  117MOL   C13542127   5.980   5.843   4.708  0.7208 -0.1952  0.0991
  117MOL   H13642128   6.534   5.408   4.566  1.8817 -2.7790 -0.2973
  117MOL   H13742129   6.413   5.281   4.602 -0.0541  1.6734  1.4614
  117MOL   H13842130   6.261   5.359   4.434 -0.1113 -0.7315 -0.1624
  117MOL   H13942131   5.951   5.574   4.661  0.2624 -0.6547  1.3050
  117MOL   H14042132   6.089   5.601   4.760  1.5384  0.4843  0.1691
  117MOL   H14142133   6.163   5.793   4.616 -0.0696  0.8049 -0.1256
  117MOL   H14242134   6.027   5.756   4.505 -0.1387  0.6684  0.3060
  117MOL   H14342135   5.991   5.950   4.693 -0.5002  0.1600  1.5240
  117MOL   H14442136   6.013   5.822   4.810 -3.3477  0.3745  1.6233
  117MOL   H14542137   5.872   5.827   4.701  1.0336 -1.3981 -2.4174
  117MOL   C14642138   6.355   5.542   4.365 -0.2826  0.4028  0.1689
  117MOL   C14742139   6.235   5.544   4.271 -0.0404 -1.0812  0.0411
  117MOL   C14842140   6.197   5.687   4.246 -0.6837 -0.4504  0.2451
  117MOL   O14942141   6.082   5.735   4.265 -0.2990  0.8330  0.0939
  117MOL   O15042142   6.308   5.767   4.189  0.1644 -0.6862 -0.2535
  117MOL   C15142143   6.281   5.906   4.159 -0.0624  0.1515  0.5758
  117MOL   C15242144   6.318   5.932   4.012  0.2453  0.1048  0.7159
  117MOL   C15342145   6.224   5.855   3.918 -0.1243  0.2866 -0.0888
  117MOL   H15442146   6.444   5.524   4.304 -0.4917  0.6166 -0.2043
  117MOL   H15542147   6.364   5.635   4.420 -0.8967 -0.2264  1.3476
  117MOL   H15642148   6.156   5.491   4.325  0.0520 -2.1222 -0.8301
  117MOL   H15742149   6.179   5.938   4.179 -0.9900 -0.8324 -2.3107
  117MOL   H15842150   6.340   5.974   4.221 -0.1233  1.4360 -0.7324
  117MOL   H15942151   6.314   6.039   3.994  0.0814  0.1250  0.8709
  117MOL   H16042152   6.416   5.890   3.994 -0.5749 -1.3636 -0.4254
  117MOL   H16142153   6.243   5.874   3.813  1.4079 -1.4582 -0.1592
  117MOL   H16242154   6.120   5.885   3.927 -0.4172 -1.0789  1.3582
  117MOL   H16342155   6.233   5.752   3.954 -2.2130  0.6433  1.5631
  117MOL   C16442156   6.262   5.468   4.133 -0.5353 -0.3011  0.3571
  117MOL   C16542157   6.146   5.472   4.030  0.7372  0.3330  0.3336
  117MOL   C16642158   6.190   5.431   3.886  0.0566  0.2801 -0.3816
  117MOL   O16742159   6.163   5.317   3.845 -0.6771 -0.6555 -0.0441
  117MOL   O16842160   6.267   5.523   3.819  0.4788 -0.7686 -0.8303
  117MOL   C16942161   6.300   5.492   3.686  0.3840  0.5817 -0.5946
  117MOL   C17042162   6.361   5.616   3.628  0.1145  0.6177 -0.2136
  117MOL   C17142163   6.397   5.592   3.479 -0.1081 -0.1861  0.1029
  117MOL   H17242164   6.300   5.366   4.141 -0.1845 -0.1028  1.1784
  117MOL   H17342165   6.349   5.517   4.089  0.3263 -1.5928  0.5923
  117MOL   H17442166   6.116   5.575   4.013 -0.9875  0.1135  1.8943
  117MOL   H17542167   6.374   5.412   3.683 -1.7324 -1.4749  0.4315
  117MOL   H17642168   6.210   5.461   3.632 -0.1986  0.7484  0.2667
  117MOL   H17742169   6.297   5.702   3.641  0.9088  0.8189  2.6472
  117MOL   H17842170   6.449   5.638   3.688 -0.8112  0.6917  1.1286
  117MOL   H17942171   6.470   5.669   3.455 -0.2591 -0.2888 -0.7007
  117MOL   H18042172   6.306   5.597   3.419  0.6532  4.0773 -0.8610
  117MOL   H18142173   6.452   5.498   3.467 -0.2094  0.0082 -2.0639
  117MOL   C18242174   6.013   5.409   4.077 -0.0442  0.3737 -0.5964
  117MOL   C18342175   5.902   5.434   3.980  0.3949 -1.3824 -0.1217
  117MOL   C18442176   5.791   5.325   3.995 -0.4594  0.2372  0.2341
  117MOL   O18542177   5.694   5.328   4.073 -0.0573  0.0862 -0.4026
  117MOL   O18642178   5.817   5.229   3.900  0.0901  0.0991 -0.3092
  117MOL   C18742179   5.736   5.111   3.899 -0.5860  0.1391 -0.6268
  117MOL   C18842180   5.702   5.062   3.754 -0.5209  0.2609  0.0328
  117MOL   C18942181   5.682   4.913   3.732 -0.1715  0.0709 -0.1271
  117MOL   H19042182   5.979   5.461   4.167 -0.3889  3.2624 -2.3274
  117MOL   H19142183   6.041   5.304   4.088  0.8412  0.6032 -0.6033
  117MOL   H19242184   5.943   5.426   3.879  0.8716 -1.0857  0.0468
  117MOL   H19342185   5.801   5.029   3.929 -0.6194  0.0568 -0.7771
  117MOL   H19442186   5.649   5.117   3.964  0.5153  2.4013  0.7046
  117MOL   H19542187   5.617   5.119   3.718 -0.4244 -0.6609 -1.7064
  117MOL   H19642188   5.791   5.093   3.699 -0.1288  3.0658  2.1499
  117MOL   H19742189   5.594   4.891   3.793  0.1148  1.4450  0.7889
  117MOL   H19842190   5.775   4.864   3.761  0.1271  1.1763  0.7696
  117MOL   H19942191   5.657   4.882   3.630 -1.3244 -1.5918  0.6268
  117MOL   C20042192   5.837   5.577   3.996  1.0146  0.5438 -0.2492
  117MOL   C20142193   5.782   5.633   3.855 -0.3327  0.3713  0.8062
  117MOL   C20242194   5.659   5.726   3.866 -0.4935 -0.9165  0.6550
  117MOL   O20342195   5.663   5.851   3.853  0.0491  0.8114 -0.0348
  117MOL   O20442196   5.549   5.658   3.896 -0.4584 -1.0023 -0.2164
  117MOL   C20542197   5.426   5.737   3.921  0.4578 -0.3873 -0.9599
  117MOL   C20642198   5.328   5.664   4.018 -0.0262 -0.2395  0.2528
  117MOL   C20742199   5.202   5.744   4.057 -0.0031  0.1270 -0.1014
  117MOL   H20842200   5.917   5.648   4.022 -0.9324  2.0752  1.7672
  117MOL   H20942201   5.771   5.574   4.082  2.3155 -1.7476  0.7007
  117MOL   H21042202   5.746   5.548   3.797  0.1376  1.6369 -1.3937
  117MOL   H21142203   5.451   5.835   3.960  0.5628 -0.3996 -0.9957
  117MOL   H21242204   5.384   5.751   3.821 -0.4901  0.5338 -0.4432
  117MOL   H21342205   5.304   5.567   3.974 -2.0417  0.0597  0.6448
  117MOL   H21442206   5.382   5.637   4.109  1.1528 -0.4375 -0.4946
  117MOL   H21542207   5.147   5.782   3.971 -1.7709 -1.1427  0.4456
  117MOL   H21642208   5.226   5.838   4.107 -1.1630 -0.3275  1.3423
  117MOL   H21742209   5.128   5.683   4.109  1.7826 -0.6302  1.6014
  117MOL   C21842210   5.897   5.695   3.770 -0.1088 -0.0723 -0.1172
  117MOL   C21942211   5.878   5.688   3.616  0.7107  0.3131  0.2941
  117MOL   C22042212   5.901   5.825   3.555 -0.4688 -0.2728  0.3019
  117MOL   O22142213   6.002   5.851   3.493 -0.4657 -0.1072 -0.1077
  117MOL   O22242214   5.792   5.910   3.577  0.0094  0.0900  0.1937
  117MOL   C22342215   5.782   6.043   3.526 -0.1753 -0.1122 -0.5113
  117MOL   C22442216   5.641   6.106   3.537 -0.1133  0.4214 -0.0949
  117MOL   C22542217   5.520   6.043   3.473  0.4998  0.5719 -0.3161
  117MOL   H22642218   5.982   5.633   3.798 -1.1611 -0.7120  1.7081
  117MOL   H22742219   5.928   5.792   3.808 -0.7289 -0.4123  1.2685
  117MOL   H22842220   5.777   5.652   3.595  1.1096 -0.5057 -0.2944
  117MOL   H22942221   5.854   6.111   3.571 -0.4735  1.3354 -2.1323
  117MOL   H23042222   5.810   6.042   3.420  1.0404 -2.2297 -0.1826
  117MOL   H23142223   5.609   6.126   3.639  1.1320 -0.9676  0.5828
  117MOL   H23242224   5.643   6.209   3.502 -0.7870  0.8530  1.0965
  117MOL   H23342225   5.522   6.025   3.365  1.5925 -0.6560 -0.1140
  117MOL   H23442226   5.429   6.099   3.493  0.2058  0.2086 -0.6176
  117MOL   H23542227   5.510   5.949   3.526  0.9577  0.3543 -0.6072
  117MOL   C23642228   5.967   5.580   3.544 -0.0702  0.0167  0.4669
  117MOL   C23742229   5.916   5.532   3.404  0.0740 -0.5868  0.2692
  117MOL   C23842230   6.044   5.475   3.334  0.1999 -0.5683  0.2663
  117MOL   O23942231   6.055   5.499   3.216 -0.2986  0.1692 -0.0351
  117MOL   O24042232   6.125   5.394   3.407 -0.6071  0.4335  0.0882
  117MOL   C24142233   6.191   5.284   3.338  0.7835  0.0634 -0.9946
  117MOL   C24242234   6.180   5.150   3.415 -0.2698 -0.1682  0.2026
  117MOL   C24342235   6.251   5.027   3.355  0.9251  0.5273 -0.4443
  117MOL   H24442236   5.976   5.486   3.599 -0.6576 -0.8257 -0.8739
  117MOL   H24542237   6.066   5.625   3.541 -0.4061  0.6753 -1.6271
  117MOL   H24642238   5.893   5.623   3.349 -0.0033 -0.8056 -0.0581
  117MOL   H24742239   6.177   5.275   3.231 -0.7399  1.2003 -0.9043
  117MOL   H24842240   6.297   5.308   3.333  0.6465  0.6864 -0.9641
  117MOL   H24942241   6.218   5.168   3.515  3.1304 -0.1131 -1.0282
  117MOL   H25042242   6.073   5.131   3.418 -0.3729 -0.7579 -3.9429
  117MOL   H25142243   6.186   5.001   3.271 -1.2845 -0.3616  1.4992
  117MOL   H25242244   6.246   4.941   3.421 -0.1139  0.6033 -0.4159
  117MOL   H25342245   6.352   5.048   3.319  1.0908 -0.5846 -0.6462
  117MOL   C25442246   5.799   5.429   3.415  0.3846 -0.4731  0.5371
  117MOL   C25542247   5.748   5.354   3.291  0.2866  0.7461 -0.3334
  117MOL   C25642248   5.673   5.227   3.319 -0.0229 -0.0159  0.2157
  117MOL   O25742249   5.650   5.185   3.433  0.2623 -0.3219  0.2447
  117MOL   O25842250   5.630   5.159   3.203 -0.4892 -1.2005  0.5711
  117MOL   C25942251   5.554   5.039   3.223  0.0431 -0.1736  0.1560
  117MOL   C26042252   5.499   4.993   3.089  0.0095  1.5565  0.4470
  117MOL   C26142253   5.432   4.858   3.113  0.5116  0.5803 -0.0410
  117MOL   H26242254   5.719   5.476   3.472 -0.3512  0.8805 -1.5689
  117MOL   H26342255   5.837   5.353   3.484  1.4553  0.4748  1.0092
  117MOL   H26442256   5.836   5.315   3.240 -0.9217  0.2640 -2.1326
  117MOL   H26542257   5.624   4.964   3.259 -0.4971 -0.5786  0.3656
  117MOL   H26642258   5.483   5.053   3.305  0.0603  0.6032  0.0414
  117MOL   H26742259   5.425   5.066   3.056  0.6219  1.6835 -0.7014
  117MOL   H26842260   5.580   4.984   3.017  0.6619 -2.9905  1.5434
  117MOL   H26942261   5.503   4.780   3.140  0.4560  0.2152 -0.9090
  117MOL   H27042262   5.367   4.832   3.029 -1.0423  0.7128  1.1142
  117MOL   H27142263   5.360   4.859   3.195  0.5427 -1.0445  0.0186
  117MOL   C27242264   5.688   5.443   3.180 -0.1025 -0.9197  0.1879
  117MOL   C27342265   5.560   5.518   3.235  0.0877  0.3859  0.1299
  117MOL   C27442266   5.588   5.667   3.266 -0.4139  0.2231 -0.4491
  117MOL   O27542267   5.531   5.723   3.362  0.1209 -0.6683  0.0443
  117MOL   O27642268   5.656   5.734   3.170 -0.0562  0.1070  0.6465
  117MOL   C27742269   5.726   5.854   3.200 -0.4269  1.3357 -0.8550
  117MOL   C27842270   5.839   5.865   3.097 -0.4833  0.6460 -0.0125
  117MOL   C27942271   5.947   5.967   3.138 -0.0811  0.0026 -0.5702
  117MOL   H28042272   5.677   5.393   3.084  0.3614  1.9231 -1.3885
  117MOL   H28142273   5.755   5.521   3.145  0.5497 -0.8961  1.4450
  117MOL   H28242274   5.529   5.477   3.331 -0.2164  2.0889  0.7581
  117MOL   H28342275   5.660   5.940   3.213 -1.7146  0.2134  0.1501
  117MOL   H28442276   5.771   5.841   3.298  0.4071 -0.1689 -1.4174
  117MOL   H28542277   5.882   5.770   3.069 -0.7369  0.9914 -1.5921
  117MOL   H28642278   5.801   5.889   2.998 -3.2439  1.1718  1.1198
  117MOL   H28742279   6.014   6.002   3.060 -0.0460 -2.8569 -1.9112
  117MOL   H28842280   6.016   5.944   3.219 -1.7802 -3.7702 -0.0737
  117MOL   H28942281   5.887   6.046   3.183 -0.1616  0.8708 -2.1788
  117MOL   C29042282   5.440   5.509   3.139 -0.5015  0.4548 -0.3891
  117MOL   C29142283   5.365   5.373   3.145  0.1454  0.0034 -0.3363
  117MOL   C29242284   5.269   5.364   3.262  0.4245  0.8471  0.1178
  117MOL   O29342285   5.149   5.378   3.254 -0.1127  0.3363 -0.4998
  117MOL   O29442286   5.333   5.334   3.380 -0.1638 -0.1201  0.4012
  117MOL   C29542287   5.258   5.310   3.499  0.2638  0.0742 -0.2402
  117MOL   C29642288   5.350   5.303   3.621 -0.0284  0.9217  0.2130
  117MOL   C29742289   5.432   5.427   3.640  1.0511 -0.1024  0.7630
  117MOL   H29842290   5.483   5.524   3.040 -0.0257 -3.6990 -0.8864
  117MOL   H29942291   5.373   5.590   3.171 -0.1329  0.7192 -0.2854
  117MOL   H30042292   5.440   5.297   3.164  1.1487  0.5762 -1.8393
  117MOL   H30142293   5.200   5.399   3.521  1.3057  0.6246  0.3185
  117MOL   H30242294   5.190   5.226   3.483  1.3942 -1.1078  1.0183
  117MOL   H30342295   5.289   5.277   3.707  0.6374 -0.7308  0.1934
  117MOL   H30442296   5.414   5.216   3.613 -3.2082 -1.2904 -2.2778
  117MOL   H30542297   5.362   5.511   3.638  0.7013 -0.3204  2.6248
  117MOL   H30642298   5.507   5.437   3.561 -0.1642 -1.2693 -0.5859
  117MOL   H30742299   5.477   5.414   3.738 -0.4170 -2.9335  1.1323
  117MOL   C30842300   5.304   5.334   3.008 -0.0380  0.0818 -0.0164
  117MOL   C30942301   5.204   5.429   2.934  0.3050 -0.2612  0.3275
  117MOL   C31042302   5.272   5.565   2.898  0.1837 -0.0823  0.5882
  117MOL   O31142303   5.250   5.674   2.955 -0.6894 -0.1380  0.0238
  117MOL   O31242304   5.371   5.546   2.811  0.1431  0.2413 -0.5978
  117MOL   C31342305   5.440   5.656   2.752  0.4347  0.4227  0.1471
  117MOL   C31442306   5.367   5.692   2.622 -1.0911  0.0929  0.9568
  117MOL   C31542307   5.462   5.765   2.523  0.1517  0.1742  0.2270
  117MOL   H31642308   5.261   5.235   3.023 -0.9321  0.1385 -2.0429
  117MOL   H31742309   5.380   5.308   2.934  0.2727 -1.4238  0.8140
  117MOL   H31842310   5.130   5.446   3.012  1.5007 -0.5333  1.5366
  117MOL   H31942311   5.448   5.738   2.823  1.0230  0.2272  0.3173
  117MOL   H32042312   5.543   5.623   2.736 -0.1771 -1.0177 -0.9460
  117MOL   H32142313   5.328   5.599   2.582 -0.7776  0.1701  0.4807
  117MOL   H32242314   5.276   5.750   2.640 -0.3790  0.7871  2.4347
  117MOL   H32342315   5.413   5.830   2.451  0.1815  1.6397  1.4874
  117MOL   H32442316   5.548   5.816   2.566 -0.6724  0.7699  1.2031
  117MOL   H32542317   5.515   5.697   2.456 -0.7762 -0.0330 -0.3020
  117MOL   C32642318   5.115   5.371   2.819 -0.2921 -0.2001  0.0933
  117MOL   C32742319   4.990   5.452   2.784  0.8011 -0.1189  0.3261
  117MOL   C32842320   4.924   5.410   2.653  0.0817  0.1894 -0.4856
  117MOL   O32942321   4.882   5.488   2.570  0.7197 -0.4711 -0.1270
  117MOL   O33042322   4.933   5.272   2.637 -0.0894 -0.0621  0.2339
  117MOL   C33142323   4.879   5.210   2.521  0.4963  0.4607 -0.1557
  117MOL   C33242324   4.729   5.170   2.552 -0.2251 -0.1614  0.4392
  117MOL   C33342325   4.722   5.061   2.658 -0.3418  0.6954 -0.2898
  117MOL   H33442326   5.090   5.265   2.832 -2.9134  0.3181 -0.3861
  117MOL   H33542327   5.178   5.374   2.731  1.0190 -0.3352  1.0017
  117MOL   H33642328   5.015   5.558   2.776  0.5268 -0.1094 -0.4707
  117MOL   H33742329   4.884   5.268   2.428  0.9667 -1.0886 -1.1108
  117MOL   H33842330   4.930   5.115   2.506 -0.5385  0.0859 -1.3991
  117MOL   H33942331   4.668   5.258   2.572 -0.5771  0.0196 -1.3156
  117MOL   H34042332   4.673   5.121   2.473 -0.1240 -0.6369  0.6572
  117MOL   H34142333   4.621   5.035   2.689  0.5492  2.2897  4.4216
  117MOL   H34242334   4.753   4.971   2.605 -2.0816  0.6895 -1.3037
  117MOL   H34342335   4.773   5.072   2.754 -1.5614 -1.7370  0.6967
  117MOL   C34442336   4.885   5.445   2.898  0.6729  0.1364 -0.4108
  117MOL   C34542337   4.774   5.547   2.885 -0.1759 -0.4466  0.0283
  117MOL   C34642338   4.819   5.681   2.945 -0.2033  0.0654  0.1700
  117MOL   O34742339   4.917   5.689   3.021  0.9162 -0.3405 -0.4981
  117MOL   O34842340   4.736   5.787   2.912  0.0598 -0.0295  0.3154
  117MOL   C34942341   4.754   5.910   2.975 -0.3513 -0.1300 -0.1015
  117MOL   C35042342   4.645   5.940   3.082 -0.0866 -0.0955  0.3149
  117MOL   C35142343   4.507   5.996   3.030 -0.4533  1.2016 -0.6673
  117MOL   H35242344   4.919   5.450   3.001  0.9255  1.5585 -0.5522
  117MOL   H35342345   4.834   5.349   2.891 -0.0968  0.7253 -3.9782
  117MOL   H35442346   4.689   5.502   2.936  1.1219 -2.5491  0.4007
  117MOL   H35542347   4.850   5.904   3.025 -0.0760 -0.1927 -0.6363
  117MOL   H35642348   4.750   5.989   2.901 -0.4241 -1.1545 -1.2098
  117MOL   H35742349   4.636   5.840   3.124 -0.3018 -1.5496 -3.0315
  117MOL   H35842350   4.680   6.006   3.160  0.0641  2.2582 -1.6910
  117MOL   H35942351   4.521   6.104   3.034 -1.7952  1.3340  1.6308
  117MOL   H36042352   4.482   5.979   2.926 -3.7333 -0.3329  0.3024
  117MOL   H36142353   4.426   5.979   3.101  0.7871  1.6803  0.8937
  117MOL   H36242354   4.747   5.564   2.781 -0.0755 -0.9286 -0.0807
  118MOL     C142355   0.282   0.991   3.773 -0.2131 -0.6490  0.0859
  118MOL     C242356   0.418   0.959   3.829  0.5155 -0.6674  0.2360
  118MOL     C342357   0.496   0.845   3.756  0.3474 -0.2464  0.3887
  118MOL     O442358   0.604   0.868   3.702  0.1716  0.2649 -0.0756
  118MOL     O542359   0.428   0.728   3.757 -0.8372  0.4953  0.0797
  118MOL     C642360   0.500   0.610   3.712  0.0367  0.9392  0.4576
  118MOL     C742361   0.465   0.486   3.792  0.0002  0.4021 -0.0571
  118MOL     C842362   0.515   0.510   3.934  0.6255 -0.3301 -0.5941
  118MOL     H942363   0.234   1.055   3.847  0.1031 -0.3284  0.0177
  118MOL    H1042364   0.268   1.051   3.683 -0.5450  2.0634  1.8889
  118MOL    H1142365   0.402   0.917   3.928  1.5400 -0.7054  0.3840
  118MOL    H1242366   0.471   0.593   3.608 -0.4245  0.1499  0.7169
  118MOL    H1342367   0.607   0.630   3.722  0.2544  0.6753 -1.1588
  118MOL    H1442368   0.358   0.466   3.791  0.2105 -0.9307  1.5307
  118MOL    H1542369   0.500   0.390   3.751  0.1411  0.5371 -0.2558
  118MOL    H1642370   0.506   0.422   3.997 -0.1301 -0.3190 -0.6838
  118MOL    H1742371   0.621   0.535   3.942  0.4098  0.3697  0.2006
  118MOL    H1842372   0.443   0.579   3.978  0.5366 -0.1940 -0.9511
  118MOL    H1942373   0.217   0.904   3.766 -0.9475 -0.0739 -0.3458
  118MOL    C2042374   0.506   1.083   3.860 -0.6772 -0.4719 -0.0484
  118MOL    C2142375   0.468   1.171   3.979  0.3124  0.5504 -0.0789
  118MOL    C2242376   0.510   1.115   4.115 -0.9507 -0.1979 -0.4289
  118MOL    O2342377   0.429   1.098   4.211  0.3355  0.4628  0.5529
  118MOL    O2442378   0.637   1.075   4.120 -0.0482  0.0491 -0.0056
  118MOL    C2542379   0.695   1.007   4.233 -0.3993 -0.1203  0.2096
  118MOL    C2642380   0.647   0.862   4.240  0.0893 -0.2673 -0.0715
  118MOL    C2742381   0.704   0.782   4.124  0.2134  0.3885 -0.6976
  118MOL    H2842382   0.518   1.145   3.772  2.6126  1.4726  1.6707
  118MOL    H2942383   0.606   1.045   3.877 -1.7343 -3.2107  0.3083
  118MOL    H3042384   0.360   1.173   3.992  0.5253  1.1298  1.7309
  118MOL    H3142385   0.800   0.991   4.207 -0.3560  0.6955 -0.1400
  118MOL    H3242386   0.694   1.074   4.319 -0.9604  1.3633 -0.9272
  118MOL    H3342387   0.669   0.811   4.333 -2.7409 -2.2051 -0.3922
  118MOL    H3442388   0.540   0.844   4.246 -0.3125  0.9577 -2.6423
  118MOL    H3542389   0.667   0.680   4.125  0.6512  0.2186 -1.9744
  118MOL    H3642390   0.812   0.777   4.111  0.2089  1.0252 -0.9896
  118MOL    H3742391   0.664   0.811   4.027  0.8797  2.4543 -0.3857
  118MOL    C3842392   0.537   1.305   3.963  0.4068 -0.1563  0.0884
  118MOL    C3942393   0.498   1.394   3.845 -0.1741 -0.0829 -0.0841
  118MOL    C4042394   0.354   1.444   3.873  0.2765  0.5308 -0.4070
  118MOL    O4142395   0.338   1.541   3.945 -0.8224 -0.3749  0.5560
  118MOL    O4242396   0.257   1.377   3.795 -0.2148 -0.4215  0.0369
  118MOL    C4342397   0.121   1.413   3.809  0.3239 -0.4414  0.4882
  118MOL    C4442398   0.090   1.516   3.696  0.0291  0.7231  0.0816
  118MOL    C4542399   0.107   1.454   3.553 -0.2784  0.2909  0.0770
  118MOL    H4642400   0.644   1.286   3.962  0.1562 -1.5442 -1.5615
  118MOL    H4742401   0.522   1.367   4.052  0.5815  0.3794 -0.2481
  118MOL    H4842402   0.485   1.345   3.748 -2.4956 -0.0650  0.1764
  118MOL    H4942403   0.053   1.329   3.797 -0.0950  0.1897 -1.7036
  118MOL    H5042404   0.104   1.454   3.909  1.8655  0.5132  0.3818
  118MOL    H5142405   7.863   1.532   3.705  0.0766 -0.1906  2.5575
  118MOL    H5242406   0.131   1.614   3.721  0.1034  0.6622  0.1983
  118MOL    H5342407   0.206   1.438   3.511 -0.7677 -1.5206 -0.4489
  118MOL    H5442408   0.057   1.498   3.467 -1.6261 -2.7764 -0.8019
  118MOL    H5542409   0.069   1.352   3.558 -0.1101  0.2502  0.6369
  118MOL    C5642410   0.604   1.509   3.831 -0.3658  0.1088 -0.7151
  118MOL    C5742411   0.611   1.567   3.683  0.0095 -0.1594 -0.3048
  118MOL    C5842412   0.499   1.665   3.659  0.3959 -0.4822  0.0649
  118MOL    O5942413   0.491   1.762   3.737  0.4319  0.0308  0.0826
  118MOL    O6042414   0.417   1.638   3.556  0.1878 -0.2526 -0.3219
  118MOL    C6142415   0.330   1.738   3.513 -0.0472  0.1919 -0.6021
  118MOL    C6242416   0.343   1.756   3.360 -0.0283  0.8178 -0.3945
  118MOL    C6342417   0.305   1.626   3.273  0.0094  0.3196 -0.1365
  118MOL    H6442418   0.704   1.466   3.841  0.0686  1.2333 -0.0896
  118MOL    H6542419   0.603   1.583   3.911  0.2529 -1.7141  1.0258
  118MOL    H6642420   0.599   1.485   3.611  2.0648 -0.3199 -0.5175
  118MOL    H6742421   0.232   1.699   3.538  0.9206 -1.6308  0.4218
  118MOL    H6842422   0.348   1.832   3.564  0.5896 -0.9901  1.3971
  118MOL    H6942423   0.280   1.840   3.331  0.5453  0.7620 -1.8151
  118MOL    H7042424   0.445   1.784   3.333  0.1269  2.0741  1.3785
  118MOL    H7142425   0.209   1.578   3.293  0.6878 -0.4420  1.3245
  118MOL    H7242426   0.376   1.548   3.298  0.9020  0.4609 -2.1124
  118MOL    H7342427   0.314   1.638   3.165 -1.3736 -0.8672 -0.3935
  118MOL    C7442428   0.758   1.619   3.656 -0.0480 -0.3524  0.1814
  118MOL    C7542429   0.806   1.640   3.505  0.0903 -0.7990 -0.6106
  118MOL    C7642430   0.924   1.747   3.497  0.8195  0.0035  0.5635
  118MOL    O7742431   0.906   1.869   3.509 -0.6544  0.0795  0.1858
  118MOL    O7842432   1.044   1.694   3.474 -0.5731 -0.2895 -0.4493
  118MOL    C7942433   1.160   1.767   3.466  0.0449  0.1167  0.0412
  118MOL    C8042434   1.274   1.666   3.501  0.0268 -0.5857 -0.3709
  118MOL    C8142435   1.278   1.548   3.406 -0.1208 -0.2111  0.3216
  118MOL    H8242436   0.830   1.550   3.700 -0.7419 -1.5531 -0.5112
  118MOL    H8342437   0.767   1.714   3.708  1.4078  0.3984 -1.3641
  118MOL    H8442438   0.723   1.692   3.459 -0.4582 -0.5301  0.6709
  118MOL    H8542439   1.176   1.820   3.372 -0.0985 -0.7911 -0.4961
  118MOL    H8642440   1.145   1.846   3.541  0.7389  0.3253 -0.0337
  118MOL    H8742441   1.370   1.718   3.504 -0.6982  0.7066  0.8162
  118MOL    H8842442   1.251   1.628   3.601  1.6554  0.0758  0.2834
  118MOL    H8942443   1.289   1.574   3.301 -2.3714 -1.5747 -0.3028
  118MOL    H9042444   1.187   1.487   3.403  0.2020 -0.6862  0.0332
  118MOL    H9142445   1.355   1.479   3.442  0.3237  0.2670  0.2886
  118MOL    C9242446   0.823   1.505   3.437 -0.8441 -0.4897  0.5074
  118MOL    C9342447   0.708   1.465   3.336  0.3136  0.1646  0.4624
  118MOL    C9442448   0.735   1.532   3.200  0.6802  0.4771 -0.1846
  118MOL    O9542449   0.776   1.466   3.106  0.4811  0.1820 -0.2905
  118MOL    O9642450   0.694   1.662   3.200  0.1360  0.0040 -0.4686
  118MOL    C9742451   0.707   1.743   3.082  0.8363  0.4065 -0.1753
  118MOL    C9842452   0.776   1.870   3.109 -0.2040  0.2514  0.0862
  118MOL    C9942453   0.691   1.972   3.187  0.3328 -0.0451 -0.1362
  118MOL   H10042454   0.859   1.429   3.507  1.6192 -0.5152 -0.7589
  118MOL   H10142455   0.906   1.512   3.367 -1.1549  0.4101  0.2204
  118MOL   H10242456   0.612   1.501   3.372 -0.0074 -0.6287  0.4081
  118MOL   H10342457   0.754   1.690   3.000 -1.7743 -1.9718 -0.2069
  118MOL   H10442458   0.602   1.760   3.058  0.8889  2.0956  0.6997
  118MOL   H10542459   0.872   1.862   3.161  0.0029 -3.3152 -0.6761
  118MOL   H10642460   0.806   1.907   3.011  2.2193  1.6938  1.3052
  118MOL   H10742461   0.596   1.996   3.138  0.2013  0.0319  0.1573
  118MOL   H10842462   0.742   2.068   3.187  1.0435 -0.4161 -0.8592
  118MOL   H10942463   0.680   1.942   3.291  1.4031 -1.3701 -0.3993
  118MOL   C11042464   0.696   1.307   3.320 -0.2923  0.2254  0.9124
  118MOL   C11142465   0.651   1.238   3.450 -0.7335  0.1774 -0.1072
  118MOL   C11242466   0.492   1.236   3.455  0.1641  0.9269 -0.6572
  118MOL   O11342467   0.434   1.312   3.529  0.0505 -0.6150  0.5717
  118MOL   O11442468   0.443   1.144   3.369 -0.0592  0.1590  0.1557
  118MOL   C11542469   0.300   1.122   3.373 -0.4438 -0.6917 -0.5837
  118MOL   C11642470   0.281   0.970   3.340 -0.3733 -0.8462 -0.2765
  118MOL   C11742471   0.327   0.876   3.446 -0.5764 -0.4344 -0.4339
  118MOL   H11842472   0.797   1.275   3.291 -1.0149 -1.8691  0.6444
  118MOL   H11942473   0.617   1.294   3.246  1.3217  1.7675 -1.1659
  118MOL   H12042474   0.685   1.289   3.540 -1.2680  0.2050  0.0779
  118MOL   H12142475   0.249   1.142   3.468 -0.3577 -2.0635 -0.2404
  118MOL   H12242476   0.250   1.183   3.298 -2.3691 -0.3347  0.9423
  118MOL   H12342477   0.177   0.954   3.314  0.0007 -0.1496 -2.3171
  118MOL   H12442478   0.344   0.948   3.254 -0.3089 -0.5040 -0.3168
  118MOL   H12542479   0.423   0.903   3.490 -0.9018 -0.0752  0.0631
  118MOL   H12642480   0.348   0.774   3.417 -0.0272  0.0793 -1.9103
  118MOL   H12742481   0.255   0.877   3.528  0.4582  0.1526  0.4756
  118MOL   C12842482   0.707   1.093   3.463  0.1427  0.3347  0.2007
  118MOL   C12942483   0.842   1.057   3.529 -0.0514  0.3892  0.1670
  118MOL   C13042484   0.964   1.061   3.434  0.3066  0.2444 -0.3162
  118MOL   O13142485   1.034   0.958   3.415  0.1986 -0.3608  0.0842
  118MOL   O13242486   0.998   1.173   3.384 -0.6589 -0.2622 -0.0006
  118MOL   C13342487   1.094   1.186   3.287 -0.1062  0.4655 -0.0762
  118MOL   C13442488   1.021   1.192   3.146 -0.9050  0.3921 -0.1700
  118MOL   C13542489   1.128   1.176   3.034  0.5117 -0.7852 -0.6079
  118MOL   H13642490   0.701   1.042   3.367  2.2226 -2.0878  1.2953
  118MOL   H13742491   0.637   1.034   3.522 -0.5217  0.0810 -0.8187
  118MOL   H13842492   0.827   0.953   3.558  1.2941 -0.2196 -1.2505
  118MOL   H13942493   1.154   1.276   3.298 -0.4019  0.9964 -2.5937
  118MOL   H14042494   1.168   1.105   3.286 -0.3824  0.2169 -0.4389
  118MOL   H14142495   0.937   1.122   3.150 -2.1779  1.9925  2.7869
  118MOL   H14242496   0.968   1.284   3.124 -1.9212 -0.1320  0.0544
  118MOL   H14342497   1.091   1.153   2.934  0.8218 -1.6179 -0.5397
  118MOL   H14442498   1.199   1.100   3.070 -1.5144 -1.2986  2.5073
  118MOL   H14542499   1.181   1.271   3.028  1.1068 -1.1336 -0.9021
  118MOL   C14642500   0.865   1.140   3.653  0.2411  0.0127  0.1348
  118MOL   C14742501   0.993   1.106   3.740  0.4268  0.0901  0.0985
  118MOL   C14842502   1.032   1.223   3.834 -0.5783  0.2837 -0.4532
  118MOL   O14942503   0.995   1.226   3.955  0.1022 -0.0371  0.2897
  118MOL   O15042504   1.083   1.322   3.773  0.4038 -0.0967 -0.1120
  118MOL   C15142505   1.102   1.445   3.837 -0.0412 -0.6057 -0.1210
  118MOL   C15242506   1.247   1.455   3.894  0.6626  0.0497  0.5693
  118MOL   C15342507   1.259   1.579   3.990 -0.1091 -0.5960 -0.1040
  118MOL   H15442508   0.776   1.142   3.716  0.5586  0.5796  0.5670
  118MOL   H15542509   0.871   1.240   3.611 -1.0167  0.0024 -0.1008
  118MOL   H15642510   1.069   1.097   3.662  0.4795  1.6327 -0.0463
  118MOL   H15742511   1.095   1.522   3.761 -0.7316  0.7769  1.3151
  118MOL   H15842512   1.024   1.466   3.910  0.1903 -0.3993  0.0693
  118MOL   H15942513   1.273   1.371   3.959  1.1714 -1.3146 -1.3199
  118MOL   H16042514   1.314   1.462   3.808 -2.1329 -0.1390 -1.6848
  118MOL   H16142515   1.364   1.595   4.015  0.3032  0.0531 -2.1790
  118MOL   H16242516   1.216   1.568   4.090  0.4263  0.5389  0.2617
  118MOL   H16342517   1.223   1.673   3.950 -0.5260 -0.6055  0.2447
  118MOL   C16442518   0.990   0.970   3.815 -0.8604  0.5013 -0.1384
  118MOL   C16542519   1.106   0.921   3.895  0.2262 -0.1725  0.1585
  118MOL   C16642520   1.063   0.802   3.982  0.0807 -0.7488  0.1357
  118MOL   O16742521   1.082   0.815   4.106  0.4684 -0.2637 -0.5433
  118MOL   O16842522   1.001   0.698   3.918  0.7999  0.2853  0.2970
  118MOL   C16942523   0.970   0.581   3.992 -0.4139 -0.1367  0.3013
  118MOL   C17042524   0.914   0.488   3.887 -0.2675  0.3416  0.0812
  118MOL   C17142525   0.866   0.349   3.932  0.1430  0.6169 -0.2588
  118MOL   H17242526   0.968   0.895   3.739 -1.8177 -1.0820  1.6628
  118MOL   H17342527   0.900   0.961   3.875  0.8854 -0.5787  2.3795
  118MOL   H17442528   1.142   0.997   3.964  1.0189 -2.6552  2.5541
  118MOL   H17542529   1.064   0.549   4.037  0.0497  0.4993 -0.2013
  118MOL   H17642530   0.899   0.602   4.072 -0.4110  2.9206 -0.4594
  118MOL   H17742531   0.826   0.530   3.838 -0.5092 -0.6356 -0.3249
  118MOL   H17842532   0.978   0.473   3.799 -0.8831 -0.2895 -0.2661
  118MOL   H17942533   0.890   0.278   3.853  2.4808  0.2030  0.7751
  118MOL   H18042534   0.759   0.336   3.948  0.0561  1.3648 -0.2373
  118MOL   H18142535   0.915   0.313   4.023  0.5600  2.8084  0.4265
  118MOL   C18242536   1.222   0.888   3.806 -0.3107 -0.1259 -0.2867
  118MOL   C18342537   1.329   0.997   3.769 -0.4843 -1.0112  0.6042
  118MOL   C18442538   1.402   1.048   3.895 -0.1815 -0.1249 -0.1931
  118MOL   O18542539   1.412   1.170   3.924  0.1702 -0.0250 -0.0943
  118MOL   O18642540   1.439   0.938   3.976  0.2678 -0.7032 -0.0546
  118MOL   C18742541   1.463   0.954   4.111  0.1237 -0.4698 -0.3102
  118MOL   C18842542   1.500   0.820   4.178 -0.1115 -0.9589 -0.1530
  118MOL   C18942543   1.382   0.724   4.200  0.7468 -0.2619  0.6333
  118MOL   H19042544   1.180   0.850   3.713  0.3690 -1.0587 -0.2133
  118MOL   H19142545   1.278   0.799   3.835  0.4998  0.0002 -1.4301
  118MOL   H19242546   1.290   1.078   3.707 -0.2182  0.2298  2.0171
  118MOL   H19342547   1.556   1.011   4.118  0.3876 -0.9085 -0.2129
  118MOL   H19442548   1.390   1.010   4.168 -0.5648 -2.1625  0.5252
  118MOL   H19542549   1.572   0.772   4.112  1.1350 -2.6387  2.3927
  118MOL   H19642550   1.551   0.845   4.271 -2.4491  0.1442  0.8908
  118MOL   H19742551   1.350   0.698   4.099  0.0673  0.8896  0.5472
  118MOL   H19842552   1.300   0.770   4.255 -0.5820 -2.4292  0.5403
  118MOL   H19942553   1.424   0.641   4.257  2.6661 -0.0761 -0.4741
  118MOL   C20042554   1.443   0.944   3.680  0.0951 -0.1619  0.2480
  118MOL   C20142555   1.523   1.056   3.603  0.1214  0.5408 -0.2674
  118MOL   C20242556   1.625   1.138   3.681 -0.2107  0.5493  0.2909
  118MOL   O20342557   1.683   1.098   3.782 -0.0814  0.2664  0.0817
  118MOL   O20442558   1.659   1.269   3.625 -0.0921 -0.2277  0.1701
  118MOL   C20542559   1.771   1.341   3.678 -0.5933 -0.2546 -0.6275
  118MOL   C20642560   1.913   1.278   3.658  0.0960  0.0691 -0.7324
  118MOL   C20742561   1.963   1.256   3.515 -0.0293 -0.0192  0.0622
  118MOL   H20842562   1.392   0.871   3.617 -0.7277  2.0633 -1.7295
  118MOL   H20942563   1.514   0.875   3.726  1.3229  1.0834  0.2594
  118MOL   H21042564   1.445   1.129   3.578 -0.3969  0.8339  2.0187
  118MOL   H21142565   1.777   1.447   3.652 -1.1550 -0.2290 -0.6564
  118MOL   H21242566   1.746   1.339   3.783 -1.4166  1.1776 -0.7822
  118MOL   H21342567   1.980   1.352   3.701  0.3613 -0.1739 -0.7226
  118MOL   H21442568   1.927   1.189   3.720 -1.4251 -0.4077 -1.0514
  118MOL   H21542569   1.991   1.345   3.459 -1.0907 -0.1264 -0.6443
  118MOL   H21642570   1.902   1.191   3.454  1.9605 -0.1556 -1.8294
  118MOL   H21742571   2.058   1.207   3.536 -0.6953 -1.0439  0.7275
  118MOL   C21842572   1.590   1.001   3.484 -0.3745 -0.4091  0.0416
  118MOL   C21942573   1.501   0.985   3.363 -0.4963 -0.0302  0.1798
  118MOL   C22042574   1.489   1.127   3.301  0.4598 -0.2239  0.3191
  118MOL   O22142575   1.397   1.209   3.327 -0.3991  0.1657  0.0707
  118MOL   O22242576   1.605   1.165   3.241  0.6651  0.7311 -0.4674
  118MOL   C22342577   1.637   1.292   3.184  0.1807  0.8117 -0.0050
  118MOL   C22442578   1.632   1.275   3.034 -0.0465  0.3283  0.2054
  118MOL   C22542579   1.487   1.261   2.981  0.6945  0.4531  0.5496
  118MOL   H22642580   1.628   0.902   3.508 -0.7079 -0.6261 -0.3170
  118MOL   H22742581   1.675   1.060   3.448  0.6505 -1.8076  0.0918
  118MOL   H22842582   1.402   0.948   3.387  0.2578 -1.8966  0.5339
  118MOL   H22942583   1.562   1.353   3.234 -0.4790 -0.3447  0.4253
  118MOL   H23042584   1.734   1.322   3.223  0.9475  0.1388 -1.3500
  118MOL   H23142585   1.677   1.365   2.991 -0.0075  1.7167  3.0064
  118MOL   H23242586   1.696   1.197   2.993  0.3919  1.4011 -1.2065
  118MOL   H23342587   1.491   1.264   2.872  1.3624  0.7660  0.5766
  118MOL   H23442588   1.418   1.341   3.009 -1.2456 -0.9331 -0.2085
  118MOL   H23542589   1.438   1.168   3.009 -0.8323  1.1409  0.1816
  118MOL   C23642590   1.547   0.874   3.258  0.1815  0.3401  0.1351
  118MOL   C23742591   1.519   0.725   3.307  0.1699  0.5834 -0.1056
  118MOL   C23842592   1.372   0.698   3.307  0.5302  0.2866  0.1237
  118MOL   O23942593   1.306   0.704   3.414  0.0348 -0.0919 -0.4309
  118MOL   O24042594   1.329   0.679   3.179  0.4447 -0.2474 -0.4341
  118MOL   C24142595   1.189   0.679   3.146 -0.4029  0.1262  0.1789
  118MOL   C24242596   1.117   0.805   3.089 -0.8251 -0.4497  0.2742
  118MOL   C24342597   0.969   0.809   3.085  0.2930 -0.5099  0.5378
  118MOL   H24442598   1.653   0.884   3.236  0.4447 -0.3689  1.0270
  118MOL   H24542599   1.504   0.881   3.158 -0.7668 -0.0801  0.5049
  118MOL   H24642600   1.555   0.718   3.409  0.3513  2.1099 -0.0472
  118MOL   H24742601   1.180   0.598   3.074 -3.0337  2.1683 -1.8943
  118MOL   H24842602   1.140   0.647   3.238 -1.9607  0.0418 -0.6700
  118MOL   H24942603   1.154   0.885   3.153 -0.6019 -0.0433 -0.3562
  118MOL   H25042604   1.164   0.835   2.995 -0.5764  1.0113  0.8542
  118MOL   H25142605   0.935   0.720   3.032  0.3747 -0.3075  0.1469
  118MOL   H25242606   0.918   0.896   3.044  0.6830 -1.7457 -2.7116
  118MOL   H25342607   0.941   0.790   3.189 -0.6548 -0.1267  0.3581
  118MOL   C25442608   1.600   0.619   3.235 -0.0701 -0.0603  0.0586
  118MOL   C25542609   1.620   0.480   3.304 -0.0734 -0.2153 -0.0926
  118MOL   C25642610   1.499   0.383   3.286  0.7270  0.2951  0.6069
  118MOL   O25742611   1.440   0.376   3.177 -0.3926 -0.4564 -0.1617
  118MOL   O25842612   1.476   0.316   3.404 -0.3423  0.0511 -0.0197
  118MOL   C25942613   1.369   0.218   3.421 -0.3341 -0.2634  0.5461
  118MOL   C26042614   1.418   0.111   3.520 -0.2911 -0.3689 -0.0574
  118MOL   C26142615   1.488   7.877   3.440  0.0735 -0.3204  0.1937
  118MOL   H26242616   1.700   0.659   3.216  0.8470 -1.4660  1.7630
  118MOL   H26342617   1.568   0.599   3.133  0.4449  0.3580 -0.1871
  118MOL   H26442618   1.625   0.499   3.411  2.6179  0.0891 -0.2421
  118MOL   H26542619   1.275   0.263   3.451 -1.2223 -1.2800 -0.6456
  118MOL   H26642620   1.352   0.167   3.326 -0.4681 -1.7678  1.3645
  118MOL   H26742621   1.499   0.150   3.581 -1.8317  1.4223  0.8974
  118MOL   H26842622   1.343   0.065   3.585 -1.0966  0.3459 -0.4667
  118MOL   H26942623   1.431   7.848   3.351  0.8242  2.8735 -1.3976
  118MOL   H27042624   1.497   7.790   3.505 -0.6063 -2.3697 -2.3751
  118MOL   H27142625   1.588   0.028   3.412 -0.6873  1.1090 -1.0213
  118MOL   C27242626   1.747   0.412   3.252  0.1919  0.1135 -0.1865
  118MOL   C27342627   1.812   0.315   3.355 -0.4176 -0.8751 -0.2293
  118MOL   C27442628   1.876   0.198   3.288 -0.7668 -0.4326  0.3602
  118MOL   O27542629   1.820   0.089   3.278 -0.2363 -0.2588 -0.2260
  118MOL   O27642630   1.997   0.218   3.245 -0.4534 -0.0105  0.8294
  118MOL   C27742631   2.078   0.121   3.168  0.1348  0.1053 -0.2786
  118MOL   C27842632   2.097   0.174   3.026  0.6826 -0.0367 -0.3686
  118MOL   C27942633   2.126   0.327   3.012 -0.1383  0.5136 -0.7929
  118MOL   H28042634   1.834   0.476   3.238  2.4962 -2.6744  0.7524
  118MOL   H28142635   1.736   0.359   3.157 -0.8931  1.7712 -1.0057
  118MOL   H28242636   1.727   0.270   3.406 -1.1751 -0.2680 -0.9521
  118MOL   H28342637   2.175   0.112   3.217  0.4215  0.6059 -0.7431
  118MOL   H28442638   2.023   0.027   3.173  1.4788 -0.9051 -3.5063
  118MOL   H28542639   2.175   0.121   2.971  0.7651 -1.4288  1.0446
  118MOL   H28642640   2.001   0.150   2.979  0.1306 -0.4522  0.9498
  118MOL   H28742641   2.133   0.356   2.908 -0.2697  0.4346 -0.8244
  118MOL   H28842642   2.204   0.347   3.086 -0.5914  0.0478 -0.1771
  118MOL   H28942643   2.045   0.385   3.058  0.0284  0.2221 -0.1200
  118MOL   C29042644   1.904   0.370   3.467  0.3388 -0.2070  0.1198
  118MOL   C29142645   1.931   0.264   3.582 -0.7346  0.0650  1.6110
  118MOL   C29242646   2.065   0.288   3.655 -0.3633  0.0457  0.4302
  118MOL   O29342647   2.129   0.389   3.649 -0.3606 -0.1065 -0.0006
  118MOL   O29442648   2.084   0.186   3.742 -0.5367 -0.4691 -0.0320
  118MOL   C29542649   2.204   0.189   3.825  0.5198 -0.0084 -0.7186
  118MOL   C29642650   2.224   0.059   3.901 -0.1157 -0.1155 -0.5598
  118MOL   C29742651   2.118   0.052   4.018 -0.1807 -0.9731 -0.5157
  118MOL   H29842652   1.861   0.458   3.514  0.1435 -0.0799 -0.2940
  118MOL   H29942653   1.996   0.414   3.429  0.5063  0.7966  1.6369
  118MOL   H30042654   1.934   0.168   3.531 -0.4584  0.2812  1.2176
  118MOL   H30142655   2.290   0.209   3.761 -0.1568 -2.2447 -2.4276
  118MOL   H30242656   2.204   0.275   3.892 -0.5591  0.1784 -0.9503
  118MOL   H30342657   2.200   7.849   3.844  0.7013 -0.3068 -0.6064
  118MOL   H30442658   2.320   0.054   3.952 -0.8740  0.1420  0.9039
  118MOL   H30542659   2.112   0.148   4.069  1.3097 -1.8603  1.4011
  118MOL   H30642660   2.139   7.864   4.100  0.8388  0.9806  0.8873
  118MOL   H30742661   2.021   0.010   3.989 -0.5109 -0.4662 -0.1474
  118MOL   C30842662   1.814   0.259   3.678  0.3308 -0.2645 -0.4316
  118MOL   C30942663   1.780   0.381   3.764 -0.3598 -0.5819  0.9183
  118MOL   C31042664   1.662   0.465   3.705 -0.2458  1.1155  0.3351
  118MOL   O31142665   1.689   0.579   3.661 -0.4168 -0.1964 -0.3654
  118MOL   O31242666   1.536   0.414   3.709  0.0812  0.1085  0.2630
  118MOL   C31342667   1.432   0.505   3.687 -0.3269  0.4274  0.0734
  118MOL   C31442668   1.303   0.437   3.738 -0.2754 -0.1266 -0.3916
  118MOL   C31542669   1.293   0.428   3.894 -0.7885 -0.1949 -0.4024
  118MOL   H31642670   1.821   0.171   3.742 -2.1762 -2.1491 -2.6432
  118MOL   H31742671   1.725   0.240   3.618  0.8224  1.8667 -1.8944
  118MOL   H31842672   1.870   0.438   3.741 -0.8697 -0.3036 -0.4266
  118MOL   H31942673   1.440   0.599   3.742  0.2118  0.7560 -0.5607
  118MOL   H32042674   1.421   0.528   3.581  0.1570  0.4499  0.0249
  118MOL   H32142675   1.213   0.491   3.709  1.4126  0.9244 -3.8572
  118MOL   H32242676   1.307   0.333   3.708 -0.9528 -0.6613  1.2893
  118MOL   H32342677   1.287   0.528   3.937  1.1493  0.1630 -0.9144
  118MOL   H32442678   1.201   0.375   3.921 -2.6299  1.3851 -3.2752
  118MOL   H32542679   1.385   0.385   3.932 -1.0515  0.1010  0.5833
  118MOL   C32642680   1.763   0.349   3.910 -0.6697 -0.1515  0.4943
  118MOL   C32742681   1.767   0.486   3.986 -0.4314 -0.0219  0.1602
  118MOL   C32842682   1.678   0.480   4.111  0.0844  0.3364  0.3219
  118MOL   O32942683   1.559   0.457   4.098  0.2947  0.4686  0.0275
  118MOL   O33042684   1.740   0.504   4.227 -0.1449 -0.4451  0.3876
  118MOL   C33142685   1.668   0.508   4.342  0.1885  0.3050 -0.0013
  118MOL   C33242686   1.757   0.440   4.457  0.2621  0.0181  0.5208
  118MOL   C33342687   1.881   0.520   4.503  0.0307  0.5540  0.7463
  118MOL   H33442688   1.842   0.290   3.954 -0.5265 -0.2052  0.1682
  118MOL   H33542689   1.668   0.297   3.921 -0.6981 -0.5344 -1.3533
  118MOL   H33642690   1.714   0.559   3.924 -1.7168 -1.4236 -0.4220
  118MOL   H33742691   1.646   0.612   4.363  1.0439  0.5079 -0.1118
  118MOL   H33842692   1.581   0.443   4.334  0.3900  0.0237  0.0725
  118MOL   H33942693   1.686   0.422   4.538  0.9540  0.2537  1.1785
  118MOL   H34042694   1.774   0.336   4.427 -0.6162 -0.7994  2.7738
  118MOL   H34142695   1.937   0.457   4.573 -0.1768 -1.0969 -0.5517
  118MOL   H34242696   1.951   0.548   4.424 -0.5531 -0.0069  0.0300
  118MOL   H34342697   1.855   0.613   4.554 -0.1190 -0.2623  2.1785
  118MOL   C34442698   1.915   0.530   4.019 -0.2586  0.4170 -0.5362
  118MOL   C34542699   1.926   0.673   4.070 -0.3110  0.3158  0.2344
  118MOL   C34642700   1.897   0.788   3.969 -0.1783 -0.0346 -1.2385
  118MOL   O34742701   1.817   0.870   4.006 -0.2109 -0.6655  0.3265
  118MOL   O34842702   1.950   0.778   3.840 -0.5108 -0.7654  0.1930
  118MOL   C34942703   1.900   0.869   3.745  0.8543  0.4795  0.3238
  118MOL   C35042704   1.972   0.850   3.615 -0.0530  0.5366 -0.4361
  118MOL   C35142705   1.952   0.720   3.534 -0.0553 -0.3021 -0.0237
  118MOL   H35242706   1.971   0.526   3.926  0.1637 -0.7314 -0.2395
  118MOL   H35342707   1.968   0.467   4.090  1.7067  1.1037 -1.3628
  118MOL   H35442708   2.026   0.695   4.108 -0.6063 -0.4240  1.4831
  118MOL   H35542709   1.794   0.858   3.724  1.2221  1.2615 -2.1457
  118MOL   H35642710   1.916   0.967   3.788  0.6994 -0.0079  1.5001
  118MOL   H35742711   1.957   0.941   3.556 -0.6791  0.2343 -0.7441
  118MOL   H35842712   2.077   0.867   3.639  0.5724 -2.0861 -1.2080
  118MOL   H35942713   1.981   0.633   3.593 -1.3575 -0.0629  0.9776
  118MOL   H36042714   1.846   0.715   3.509 -0.1250  0.3621  0.1405
  118MOL   H36142715   2.013   0.719   3.443  1.9236 -0.5734  1.2822
  118MOL   H36242716   1.856   0.698   4.149 -1.6824  0.3135 -0.9618
  119MOL     C142717   1.139   6.678   2.992 -0.0491  0.0920  0.1854
  119MOL     C242718   1.044   6.574   2.946 -0.6159 -0.2473 -0.9271
  119MOL     C342719   1.014   6.471   3.050  0.0458 -1.0173  0.5422
  119MOL     O442720   1.023   6.504   3.173  0.1495  0.1758  0.6374
  119MOL     O542721   0.977   6.352   3.005  0.0164 -0.2783  0.0857
  119MOL     C642722   0.968   6.246   3.097  0.2521  0.3427  0.0513
  119MOL     C742723   0.964   6.105   3.041  0.7842 -0.5629 -0.2080
  119MOL     C842724   0.830   6.078   2.977 -0.6619  0.0368  0.7393
  119MOL     H942725   1.098   6.740   3.072  0.3632 -0.8190  1.1163
  119MOL    H1042726   1.224   6.632   3.042 -2.4551 -1.0468  3.4899
  119MOL    H1142727   1.100   6.531   2.862  2.2338  2.6688 -0.6076
  119MOL    H1242728   1.060   6.255   3.154  0.3134 -0.7815  0.1405
  119MOL    H1342729   0.884   6.268   3.162 -0.1362  1.9493 -0.9650
  119MOL    H1442730   1.040   6.086   2.965  1.7048  3.9448 -0.5349
  119MOL    H1542731   0.968   6.042   3.130 -0.6966 -1.5508 -0.8138
  119MOL    H1642732   0.821   6.131   2.882 -0.3510 -1.4334 -0.1341
  119MOL    H1742733   0.808   5.974   2.952 -1.5651  0.2938  0.4501
  119MOL    H1842734   0.744   6.121   3.028  0.0319  1.4674  0.7253
  119MOL    H1942735   1.183   6.743   2.917  0.3661  1.2306  1.3973
  119MOL    C2042736   0.921   6.621   2.874 -0.1348  0.8698  0.0879
  119MOL    C2142737   0.863   6.518   2.772  0.7781 -0.2374 -0.3873
  119MOL    C2242738   0.706   6.524   2.775  0.6391  0.2876 -0.2457
  119MOL    O2342739   0.652   6.548   2.664  0.2035  0.4390  0.1030
  119MOL    O2442740   0.644   6.503   2.899 -0.2586 -0.1382  0.1897
  119MOL    C2542741   0.503   6.527   2.908 -0.3838 -0.1342 -0.4064
  119MOL    C2642742   0.452   6.432   3.021 -0.4616 -0.2396  0.5352
  119MOL    C2742743   0.300   6.428   3.047  0.3905 -0.1363  0.3178
  119MOL    H2842744   0.940   6.715   2.821 -0.2120  0.4813 -0.6346
  119MOL    H2942745   0.855   6.655   2.953  1.3668  0.8110  1.3808
  119MOL    H3042746   0.884   6.420   2.814  0.7242 -0.4453 -0.8507
  119MOL    H3142747   0.487   6.635   2.917 -0.3639 -0.0945 -0.8229
  119MOL    H3242748   0.456   6.496   2.814 -1.2768 -0.1425  0.0312
  119MOL    H3342749   0.480   6.335   2.981  1.0162  0.5978 -0.5115
  119MOL    H3442750   0.502   6.440   3.118 -0.5387 -0.2021  0.5717
  119MOL    H3542751   0.247   6.423   2.952  1.8749  0.2334 -0.5459
  119MOL    H3642752   0.280   6.520   3.103  0.5353 -0.2917  0.6273
  119MOL    H3742753   0.288   6.334   3.101  0.2477 -0.1850  0.1989
  119MOL    C3842754   0.916   6.549   2.631 -0.8110 -0.1592  1.0836
  119MOL    C3942755   0.899   6.433   2.531 -0.3658 -0.1222 -0.0979
  119MOL    C4042756   0.931   6.492   2.391  0.1945  0.2690 -0.0636
  119MOL    O4142757   1.004   6.429   2.308 -0.4302  0.0391 -0.0794
  119MOL    O4242758   0.852   6.590   2.367  0.0992 -0.0649 -0.3186
  119MOL    C4342759   0.868   6.661   2.249  0.3771  0.4802  0.2465
  119MOL    C4442760   0.916   6.800   2.279  0.7717 -0.4117 -0.6167
  119MOL    C4542761   0.825   6.898   2.347 -0.0060 -0.6944  0.2515
  119MOL    H4642762   1.024   6.560   2.639 -0.6522  1.4365 -2.3753
  119MOL    H4742763   0.871   6.641   2.594 -0.9607 -0.8305 -0.4234
  119MOL    H4842764   0.797   6.401   2.513 -0.9895  1.3329  0.7491
  119MOL    H4942765   0.934   6.621   2.172 -0.5342  1.5659 -1.1179
  119MOL    H5042766   0.772   6.678   2.201 -1.0153  0.2039  2.8138
  119MOL    H5142767   1.011   6.788   2.331  1.9949 -1.4710 -3.0308
  119MOL    H5242768   0.936   6.849   2.184 -0.5302 -2.2278 -1.8643
  119MOL    H5342769   0.797   6.866   2.448  1.9189  1.9485  1.6791
  119MOL    H5442770   0.733   6.921   2.294 -0.7303 -0.9680  1.3517
  119MOL    H5542771   0.874   6.994   2.363 -1.8061  0.1837  0.6307
  119MOL    C5642772   0.990   6.312   2.570  0.4439  0.7775 -0.0892
  119MOL    C5742773   0.925   6.169   2.545 -0.2033  0.1240 -0.5846
  119MOL    C5842774   0.912   6.141   2.396  0.0039  0.4980  0.1851
  119MOL    O5942775   0.797   6.153   2.347 -0.1918 -0.2237 -0.2650
  119MOL    O6042776   1.026   6.118   2.332  0.0143  0.5573  0.2584
  119MOL    C6142777   1.019   6.067   2.200 -0.3623  0.8100  0.4015
  119MOL    C6242778   1.162   6.011   2.173 -0.0164  0.1115 -0.2017
  119MOL    C6342779   1.206   5.899   2.267 -0.1435 -0.1788 -0.4915
  119MOL    H6442780   1.005   6.324   2.677 -0.0106  0.1089  0.0531
  119MOL    H6542781   1.090   6.314   2.527 -0.8075 -2.3081 -3.4033
  119MOL    H6642782   0.820   6.171   2.575  0.5614  0.4213  2.2190
  119MOL    H6742783   0.938   5.995   2.190  0.7400 -0.2183 -1.3216
  119MOL    H6842784   1.007   6.151   2.132  1.4231 -1.2183 -2.5292
  119MOL    H6942785   1.168   5.979   2.068  0.8168 -1.5761  0.3400
  119MOL    H7042786   1.229   6.097   2.175 -1.7938  1.5022  0.0914
  119MOL    H7142787   1.206   5.924   2.373  0.2469 -0.9342 -0.3138
  119MOL    H7242788   1.301   5.861   2.231 -0.2039  1.5856 -2.6778
  119MOL    H7342789   1.149   5.808   2.246  0.8730 -0.9633  0.1401
  119MOL    C7442790   0.995   6.056   2.629 -0.5257  0.6141  0.5772
  119MOL    C7542791   0.943   5.910   2.617  0.6321 -0.1074 -0.0840
  119MOL    C7642792   1.017   5.813   2.716 -0.4093 -1.1670  0.2190
  119MOL    O7742793   1.075   5.719   2.675 -0.0558 -0.4303 -0.6872
  119MOL    O7842794   1.002   5.850   2.843  0.2896 -0.2234  0.3189
  119MOL    C7942795   1.084   5.782   2.943 -0.0413 -0.1635 -0.1251
  119MOL    C8042796   1.026   5.674   3.040  0.5652 -0.0787  0.2299
  119MOL    C8142797   1.129   5.634   3.149 -1.3538 -0.3921 -0.0863
  119MOL    H8242798   0.991   6.077   2.735 -2.4964  1.8325  0.2848
  119MOL    H8342799   1.100   6.062   2.598 -0.1646 -0.8467  1.4866
  119MOL    H8442800   0.971   5.881   2.516 -0.0585 -1.0128 -0.0192
  119MOL    H8542801   1.175   5.744   2.897 -1.0338 -1.6386 -0.9008
  119MOL    H8642802   1.114   5.871   2.998 -0.4529 -0.0188 -0.1273
  119MOL    H8742803   0.939   5.725   3.081 -0.3675  1.5513 -3.5434
  119MOL    H8842804   0.982   5.589   2.990  2.1706  0.2010 -1.7488
  119MOL    H8942805   1.227   5.597   3.117  0.1581  2.3582  1.1522
  119MOL    H9042806   1.093   5.558   3.218 -1.1108  0.9441  1.5637
  119MOL    H9142807   1.145   5.723   3.210  1.4378  0.2514 -1.6472
  119MOL    C9242808   0.790   5.905   2.630  0.3359 -1.0256  0.0676
  119MOL    C9342809   0.728   5.762   2.650  0.1315  0.1518  0.2814
  119MOL    C9442810   0.647   5.744   2.783  0.6614 -0.4367 -0.4964
  119MOL    O9542811   0.666   5.645   2.855  0.6266  0.0885 -0.2385
  119MOL    O9642812   0.553   5.825   2.795  0.0171  0.0218  0.5121
  119MOL    C9742813   0.488   5.837   2.918  0.4374  0.0085  0.1744
  119MOL    C9842814   0.363   5.927   2.898 -0.0263 -0.4303  0.4992
  119MOL    C9942815   0.392   6.044   2.801 -0.7008 -0.2287 -0.2792
  119MOL   H10042816   0.746   5.942   2.537 -0.1552 -2.9896 -0.4986
  119MOL   H10142817   0.749   5.972   2.706  0.1172  2.3047 -2.8523
  119MOL   H10242818   0.807   5.688   2.650 -0.9970 -1.0845  0.9393
  119MOL   H10342819   0.462   5.737   2.954  3.0537 -0.9946 -0.6414
  119MOL   H10442820   0.559   5.886   2.985  2.2815 -0.8179 -1.1300
  119MOL   H10542821   0.283   5.875   2.846 -0.1655  0.2122  0.0644
  119MOL   H10642822   0.317   5.962   2.990  0.4194 -1.6245  1.1917
  119MOL   H10742823   0.491   6.086   2.817 -0.7797  0.0304 -0.4830
  119MOL   H10842824   0.316   6.120   2.815 -2.4323 -2.2723  1.9444
  119MOL   H10942825   0.392   6.009   2.698 -2.0505 -2.1898  0.3539
  119MOL   C11042826   0.629   5.707   2.542 -0.8721 -0.6860 -0.7259
  119MOL   C11142827   0.673   5.742   2.393  0.0506 -0.0491  0.9290
  119MOL   C11242828   0.819   5.701   2.361  0.0730 -0.3860  0.7094
  119MOL   O11342829   0.894   5.783   2.299  0.1379  0.2744 -0.0408
  119MOL   O11442830   0.850   5.571   2.390  0.4605  0.2779  0.0756
  119MOL   C11542831   0.983   5.533   2.353 -1.0209  0.0107  0.1859
  119MOL   C11642832   1.033   5.423   2.446 -0.1480 -0.3292  0.3942
  119MOL   C11742833   0.984   5.277   2.431 -0.0544  0.3454 -0.1194
  119MOL   H11842834   0.534   5.759   2.555 -0.1676  0.5392 -0.3054
  119MOL   H11942835   0.632   5.599   2.539 -0.1441 -0.6855 -0.0923
  119MOL   H12042836   0.664   5.850   2.374  2.4927 -0.1527 -1.2876
  119MOL   H12142837   0.990   5.509   2.247 -0.2567 -1.1457  0.4837
  119MOL   H12242838   1.060   5.610   2.356  1.2973 -2.1271 -1.4424
  119MOL   H12342839   1.141   5.417   2.431  0.3076 -1.9609  3.9161
  119MOL   H12442840   1.008   5.456   2.546 -1.3511  0.9912 -0.3174
  119MOL   H12542841   1.040   5.220   2.356 -0.8928  0.1644 -0.6121
  119MOL   H12642842   0.879   5.261   2.409  0.1802 -1.2022 -0.1527
  119MOL   H12742843   1.001   5.221   2.522 -0.5224 -0.4945 -0.5446
  119MOL   C12842844   0.578   5.677   2.287  0.2972  0.3576 -0.4196
  119MOL   C12942845   0.574   5.736   2.140  0.4326  0.2534 -0.1197
  119MOL   C13042846   0.477   5.648   2.062 -0.0316 -0.1220 -0.0363
  119MOL   O13142847   0.396   5.576   2.117  0.8700  0.2147  0.0227
  119MOL   O13242848   0.501   5.662   1.931 -0.1586 -0.1803 -0.1162
  119MOL   C13342849   0.430   5.571   1.838  0.3414  0.1003  0.2486
  119MOL   C13442850   0.535   5.511   1.744 -0.4189  0.4181  0.4129
  119MOL   C13542851   0.614   5.614   1.669 -0.1409  0.0032 -0.2610
  119MOL   H13642852   0.482   5.681   2.338  0.9646 -2.6858  1.1620
  119MOL   H13742853   0.600   5.571   2.291  1.1413  0.4931 -1.3514
  119MOL   H13842854   0.677   5.719   2.108  0.6086  2.1938 -0.6088
  119MOL   H13942855   0.362   5.503   1.889 -0.9156  2.3853  1.6727
  119MOL   H14042856   0.361   5.636   1.785  0.2981 -0.7635 -0.7651
  119MOL   H14142857   0.597   5.460   1.818  0.1377  0.4567 -0.0265
  119MOL   H14242858   0.491   5.432   1.684 -1.2305  0.6430  0.7071
  119MOL   H14342859   0.559   5.679   1.600  0.7306  0.7382 -0.2809
  119MOL   H14442860   0.681   5.562   1.601 -1.3593 -1.7652 -0.1170
  119MOL   H14542861   0.676   5.670   1.739 -1.0983 -0.5887  1.0606
  119MOL   C14642862   0.538   5.887   2.119  0.7415 -0.4819  0.1632
  119MOL   C14742863   0.397   5.938   2.155 -0.4931 -0.1019  0.1706
  119MOL   C14842864   0.395   5.997   2.304 -0.2951 -0.5680 -0.2353
  119MOL   O14942865   0.322   5.950   2.389 -0.2394  0.2493 -0.1060
  119MOL   O15042866   0.466   6.104   2.317 -0.2870  0.1575 -0.2554
  119MOL   C15142867   0.458   6.186   2.431 -0.6559 -0.0550 -0.3832
  119MOL   C15242868   0.374   6.313   2.399  0.3660  0.0485  0.4297
  119MOL   C15342869   0.347   6.402   2.518 -0.0502 -0.2210  0.2708
  119MOL   H15442870   0.555   5.898   2.011 -0.1674  0.7146  0.1313
  119MOL   H15542871   0.615   5.933   2.181  1.0594  1.7136 -1.7965
  119MOL   H15642872   0.334   5.850   2.169  0.3269 -0.7227 -0.0122
  119MOL   H15742873   0.424   6.132   2.518  0.4388 -1.6901 -0.9546
  119MOL   H15842874   0.558   6.225   2.450 -1.3386  2.9423 -2.3810
  119MOL   H15942875   0.409   6.377   2.317  0.5912 -1.4895 -0.6843
  119MOL   H16042876   0.282   6.263   2.370 -0.4443 -0.0445  3.0362
  119MOL   H16142877   0.443   6.423   2.566  0.6087  0.9384 -1.4984
  119MOL   H16242878   0.292   6.349   2.596  0.6736 -2.2032 -0.5384
  119MOL   H16342879   0.306   6.501   2.499 -1.3023 -0.5019  1.4926
  119MOL   C16442880   0.329   6.039   2.059 -0.0259 -0.3856 -0.1287
  119MOL   C16542881   0.266   5.968   1.931  0.5049  1.0519 -0.3970
  119MOL   C16642882   0.140   5.891   1.969 -0.5145 -0.2465 -0.6369
  119MOL   O16742883   0.032   5.949   1.981 -0.3597  0.5904 -0.0568
  119MOL   O16842884   0.161   5.767   2.001  0.3749 -0.2674  0.0275
  119MOL   C16942885   0.054   5.684   2.050 -0.0811 -0.1917 -1.1795
  119MOL   C17042886   7.836   5.647   1.941  0.0550 -0.0252  0.7051
  119MOL   C17142887   0.027   5.570   1.831 -0.1583  0.4923  0.2208
  119MOL   H17242888   0.403   6.113   2.028  1.5588 -0.9547  2.0965
  119MOL   H17342889   0.253   6.096   2.112 -1.0408 -1.4416 -0.4520
  119MOL   H17442890   0.334   5.887   1.905 -0.0361  0.9419 -1.4731
  119MOL   H17542891   0.097   5.596   2.097  0.1148  0.4344 -0.1659
  119MOL   H17642892   0.001   5.732   2.133  0.9230 -0.6829 -0.2367
  119MOL   H17742893   7.758   5.581   1.980 -0.2547 -0.4072 -0.5543
  119MOL   H17842894   7.790   5.733   1.893 -0.7185 -1.5440 -1.3564
  119MOL   H17942895   0.071   5.474   1.855 -0.0421  0.6969  0.8174
  119MOL   H18042896   0.100   5.627   1.774  1.4506 -1.2463  0.5064
  119MOL   H18142897   7.831   5.541   1.758  0.0550 -0.6275  0.4366
  119MOL   C18242898   0.248   6.063   1.809  0.2112 -0.3371 -0.3726
  119MOL   C18342899   0.372   6.133   1.755 -0.5482  0.0605 -0.3902
  119MOL   C18442900   0.480   6.030   1.708 -0.3251 -0.7012  0.3667
  119MOL   O18542901   0.445   5.918   1.661 -0.1195 -0.2135  0.3527
  119MOL   O18642902   0.609   6.077   1.725 -0.3564 -0.2366 -0.0362
  119MOL   C18742903   0.720   5.992   1.711  0.3053 -0.2931 -0.5548
  119MOL   C18842904   0.850   6.062   1.753 -0.1137  0.7806  0.2176
  119MOL   C18942905   0.844   6.102   1.900 -1.2604 -0.1272 -0.7340
  119MOL   H19042906   0.179   6.140   1.842  1.7103 -0.1377  2.4970
  119MOL   H19142907   0.208   5.995   1.733  0.6629 -0.2212 -0.7189
  119MOL   H19242908   0.426   6.189   1.831  2.3398 -3.3276  0.2084
  119MOL   H19342909   0.721   5.905   1.776 -0.2581  0.5713  0.6362
  119MOL   H19442910   0.717   5.952   1.610  0.3600 -0.6616 -0.4124
  119MOL   H19542911   0.934   6.000   1.723 -1.9765 -0.9897 -1.4662
  119MOL   H19642912   0.864   6.160   1.707 -1.2409  0.6258 -0.4673
  119MOL   H19742913   0.940   6.140   1.934 -2.5579  1.3424  1.4840
  119MOL   H19842914   0.812   6.025   1.970 -0.7612  0.4701  0.1600
  119MOL   H19942915   0.773   6.183   1.920 -1.2156 -0.1634 -0.4258
  119MOL   C20042916   0.351   6.238   1.650  0.4139  0.1423 -0.0052
  119MOL   C20142917   0.240   6.344   1.677 -0.5743 -0.0538 -0.0778
  119MOL   C20242918   0.258   6.418   1.806 -0.0656 -0.3070 -0.2520
  119MOL   O20342919   0.164   6.450   1.882 -0.0974 -0.0860 -0.3529
  119MOL   O20442920   0.382   6.462   1.826  0.0976 -0.2181 -0.3351
  119MOL   C20542921   0.411   6.541   1.936 -0.5629  0.5536 -0.0255
  119MOL   C20642922   0.493   6.456   2.038 -0.9647 -0.1440  0.7080
  119MOL   C20742923   0.532   6.550   2.153 -0.0279 -0.3490  0.3223
  119MOL   H20842924   0.337   6.182   1.557 -1.7083  0.0236  0.3632
  119MOL   H20942925   0.445   6.284   1.621  0.4697  1.1390  1.7355
  119MOL   H21042926   0.149   6.285   1.692 -0.3389 -0.5066 -0.4275
  119MOL   H21142927   0.468   6.626   1.899  2.5508 -1.0207  0.9667
  119MOL   H21242928   0.317   6.568   1.985  0.2080 -2.1179  3.1038
  119MOL   H21342929   0.433   6.375   2.079 -0.6025 -1.6349 -1.5733
  119MOL   H21442930   0.577   6.407   1.988  0.0816  1.0897  1.2356
  119MOL   H21542931   0.448   6.567   2.221 -1.8504 -1.2938 -1.6509
  119MOL   H21642932   0.577   6.642   2.115  0.3351 -1.4943 -2.1509
  119MOL   H21742933   0.610   6.500   2.210  1.7155  0.6808 -1.1122
  119MOL   C21842934   0.214   6.441   1.564  0.4286 -0.1134 -0.2064
  119MOL   C21942935   0.106   6.390   1.468 -1.2037  0.6585  0.4588
  119MOL   C22042936   7.852   6.362   1.535 -0.5986 -0.0450  0.6564
  119MOL   O22142937   7.771   6.445   1.553 -0.6659  0.0081 -0.0393
  119MOL   O22242938   7.836   6.226   1.565  0.6477  0.7753  0.0146
  119MOL   C22342939   7.727   6.183   1.636 -0.0956  0.3344  0.5918
  119MOL   C22442940   7.750   6.188   1.788 -0.0100  0.3508 -0.1006
  119MOL   C22542941   7.635   6.135   1.877 -0.2384  0.3012 -0.1534
  119MOL   H22642942   0.304   6.454   1.503 -0.1543 -1.1241 -1.3110
  119MOL   H22742943   0.181   6.538   1.601  1.8234  0.3691 -0.1907
  119MOL   H22842944   0.147   6.296   1.432  0.6126  1.3526  0.6688
  119MOL   H22942945   7.642   6.247   1.611  0.3042  0.4983 -0.3748
  119MOL   H23042946   7.693   6.082   1.611 -0.1349 -0.4216  3.5019
  119MOL   H23142947   7.838   6.123   1.795 -1.4373 -1.6571 -0.1884
  119MOL   H23242948   7.778   6.290   1.813 -1.4477  1.2367 -2.0642
  119MOL   H23342949   7.606   6.031   1.863 -1.4477  0.7111 -0.7740
  119MOL   H23442950   7.549   6.190   1.839 -0.1993  0.9473  0.6758
  119MOL   H23542951   7.658   6.165   1.980 -1.2224  1.1457 -0.1745
  119MOL   C23642952   0.095   6.476   1.341  0.0262  0.1748 -0.0268
  119MOL   C23742953   0.209   6.453   1.238 -0.4437 -0.5028  0.2449
  119MOL   C23842954   0.198   6.310   1.173  0.1219 -0.6072 -0.8939
  119MOL   O23942955   0.287   6.232   1.199 -0.8339 -0.3915 -0.7929
  119MOL   O24042956   0.083   6.299   1.113 -0.1551 -0.1856 -0.3405
  119MOL   C24142957   0.034   6.172   1.093  0.7492  0.5055  0.1608
  119MOL   C24242958   7.773   6.164   1.157 -0.0269 -0.3426  0.5789
  119MOL   C24342959   7.678   6.276   1.100 -0.4572  0.6632 -0.3727
  119MOL   H24442960   0.098   6.578   1.379  0.5464 -0.4957  1.7460
  119MOL   H24542961   7.878   6.458   1.294 -0.3341  0.0594  0.7484
  119MOL   H24642962   0.300   6.459   1.298 -1.9904  0.9329  2.4944
  119MOL   H24742963   0.018   6.147   0.988 -2.0716  0.5135  0.5587
  119MOL   H24842964   0.105   6.096   1.126  0.3936  0.7162  1.4343
  119MOL   H24942965   7.728   6.067   1.139  0.0769 -0.0366 -1.3688
  119MOL   H25042966   7.782   6.173   1.266 -0.4556  0.0261  0.5867
  119MOL   H25142967   7.714   6.369   1.145  1.3023  1.2311 -2.8916
  119MOL   H25242968   7.572   6.261   1.122 -0.1700 -1.0494 -0.0674
  119MOL   H25342969   7.691   6.290   0.993 -1.8259  0.5676 -0.5689
  119MOL   C25442970   0.196   6.562   1.121  1.1724  0.1232 -0.3264
  119MOL   C25542971   0.218   6.715   1.157 -0.3801 -0.1956 -0.1339
  119MOL   C25642972   0.358   6.717   1.228 -0.0303 -0.8330  0.0957
  119MOL   O25742973   0.368   6.715   1.350  0.1091 -0.2514  0.3687
  119MOL   O25842974   0.463   6.721   1.143 -0.3596  0.1502  0.1705
  119MOL   C25942975   0.598   6.719   1.184 -0.0221  0.0803  0.0065
  119MOL   C26042976   0.692   6.755   1.074 -0.5901 -0.2612 -0.0942
  119MOL   C26142977   0.653   6.887   1.013  0.3161 -0.2650  0.3165
  119MOL   H26242978   0.091   6.562   1.091  1.7718 -1.9988 -2.5120
  119MOL   H26342979   0.257   6.529   1.038  0.5636  1.2926 -1.2512
  119MOL   H26442980   0.143   6.744   1.231 -0.0979  0.6558 -0.1861
  119MOL   H26542981   0.617   6.796   1.260 -1.7374  1.6202 -1.0825
  119MOL   H26642982   0.609   6.621   1.230  0.1229  1.5536  3.2397
  119MOL   H26742983   0.792   6.758   1.118  0.2888  2.9014 -2.1228
  119MOL   H26842984   0.698   6.677   0.998 -0.6888  0.3419 -0.7219
  119MOL   H26942985   0.633   6.962   1.089  3.2931  0.8398  0.0877
  119MOL   H27042986   0.559   6.878   0.958  0.6478  2.0291 -0.7110
  119MOL   H27142987   0.722   6.926   0.938  1.4900 -1.4814  0.7392
  119MOL   C27242988   0.202   6.800   1.031  1.1769 -0.4548  0.2752
  119MOL   C27342989   0.224   6.951   1.054  0.5200  1.1508 -0.5135
  119MOL   C27442990   0.289   7.012   0.930  0.7757  0.4376 -0.5270
  119MOL   O27542991   0.241   7.001   0.815  0.0722  0.0671  0.7464
  119MOL   O27642992   0.381   7.092   0.966 -0.2084  0.5569 -0.1830
  119MOL   C27742993   0.452   7.160   0.866  0.5712  0.1283 -0.4280
  119MOL   C27842994   0.533   7.271   0.931 -0.8766  0.2523 -0.4769
  119MOL   C27942995   0.652   7.324   0.846  0.0428  0.6689  0.0886
  119MOL   H28042996   0.112   6.778   0.974  0.7486 -1.7748  1.4265
  119MOL   H28142997   0.273   6.757   0.962  1.4279 -1.7048  1.3005
  119MOL   H28242998   0.303   6.961   1.128  1.7803  0.6928 -1.7730
  119MOL   H28342999   0.515   7.082   0.823 -1.5011 -1.2310 -1.0468
  119MOL   H28443000   0.393   7.189   0.779  0.9506 -0.1364 -0.7772
  119MOL   H28543001   0.467   7.354   0.957 -2.0264 -0.8971  0.3525
  119MOL   H28643002   0.576   7.225   1.020 -1.7065  1.7660  0.7217
  119MOL   H28743003   0.719   7.246   0.811  2.3459  2.1395  1.1307
  119MOL   H28843004   0.699   7.403   0.904 -0.6735  0.8208  0.4755
  119MOL   H28943005   0.612   7.377   0.759  2.6435 -0.8879 -2.1566
  119MOL   C29043006   0.095   7.024   1.096  0.2834 -0.0082 -0.2807
  119MOL   C29143007   0.043   7.023   1.246 -0.0015 -0.6114 -0.2956
  119MOL   C29243008   0.155   7.055   1.343 -0.6909  0.6574 -0.4590
  119MOL   O29343009   0.258   7.115   1.314  0.0325 -0.2890 -0.1960
  119MOL   O29443010   0.118   7.014   1.470 -0.1137  0.5433 -0.2027
  119MOL   C29543011   0.198   7.051   1.587 -0.7557  0.0574 -0.2870
  119MOL   C29643012   0.261   6.928   1.649 -0.2167 -0.4371  0.0393
  119MOL   C29743013   0.170   6.833   1.710 -0.2014 -0.4499 -0.0586
  119MOL   H29843014   0.016   6.974   1.040  0.6976 -1.4684  0.4303
  119MOL   H29943015   0.097   7.128   1.063  0.5136  0.1361  0.1873
  119MOL   H30043016   0.026   6.917   1.266  0.6898 -0.6844 -0.0917
  119MOL   H30143017   0.282   7.119   1.571  0.6149 -1.4198  0.5468
  119MOL   H30243018   0.132   7.115   1.646 -2.3196 -0.3666 -1.5351
  119MOL   H30343019   0.332   6.878   1.582  1.7253  1.2612  0.7628
  119MOL   H30443020   0.322   6.962   1.732  0.3118 -1.9006  0.2759
  119MOL   H30543021   0.222   6.757   1.769  3.2034  0.6858 -1.4420
  119MOL   H30643022   0.108   6.775   1.642  2.7890 -2.4246 -1.2104
  119MOL   H30743023   0.099   6.885   1.774 -1.1162  0.2598 -1.6490
  119MOL   C30843024   7.796   7.100   1.279  0.2552  0.2618  0.2859
  119MOL   C30943025   7.672   7.067   1.191  0.4897  0.0536  0.3379
  119MOL   C31043026   7.604   6.945   1.253  0.5099  0.3307  0.3213
  119MOL   O31143027   7.504   6.963   1.323  0.1434 -0.4260  0.4013
  119MOL   O31243028   7.667   6.829   1.232 -0.4362  0.2715  0.4028
  119MOL   C31343029   7.639   6.717   1.317 -0.0689 -0.6816 -0.4227
  119MOL   C31443030   7.530   6.628   1.258 -0.6594  0.9881 -0.4580
  119MOL   C31543031   7.493   6.509   1.340 -0.1216 -0.7176  0.1181
  119MOL   H31643032   7.830   7.203   1.268 -0.2921  0.2548 -1.6388
  119MOL   H31743033   7.779   7.074   1.384  0.0720 -0.0332  0.1844
  119MOL   H31843034   7.699   7.031   1.092  1.2250 -2.6332  1.4760
  119MOL   H31943035   7.734   6.669   1.338  0.6840 -0.3764 -2.9948
  119MOL   H32043036   7.616   6.745   1.420 -1.2180  0.2057 -0.9089
  119MOL   H32143037   7.441   6.687   1.237 -0.4641  1.4000 -0.1446
  119MOL   H32243038   7.561   6.591   1.160  0.3745 -2.9315  1.2427
  119MOL   H32343039   7.582   6.454   1.372 -1.7602 -2.0559  2.5190
  119MOL   H32443040   7.424   6.536   1.420  1.3170 -1.4927  1.6576
  119MOL   H32543041   7.423   6.447   1.284 -1.8011  0.8275  0.4663
  119MOL   C32643042   7.580   7.187   1.155  0.8082  0.2699 -0.6627
  119MOL   C32743043   7.491   7.186   1.026  0.3300 -0.3368 -0.1166
  119MOL   C32843044   7.570   7.150   0.893 -0.0771 -0.6495 -0.4414
  119MOL   O32943045   7.610   7.237   0.813  0.2777 -0.2313 -0.0396
  119MOL   O33043046   7.590   7.017   0.887 -0.4281 -0.6816 -0.3554
  119MOL   C33143047   7.689   6.954   0.804 -1.0150 -0.4115 -0.3485
  119MOL   C33243048   7.714   6.810   0.856  0.6493 -0.2351  0.2053
  119MOL   C33343049   7.800   6.731   0.762 -0.5132 -0.4350 -0.0119
  119MOL   H33443050   7.637   7.279   1.161  2.3819 -0.6539 -1.2189
  119MOL   H33543051   7.516   7.196   1.243  1.7555  1.5534 -0.0936
  119MOL   H33643052   7.449   7.286   1.014 -0.5585 -0.7480 -0.5176
  119MOL   H33743053   7.649   6.976   0.704 -2.2061  1.0518  0.4207
  119MOL   H33843054   7.787   7.000   0.806 -0.0176 -2.5653  1.7761
  119MOL   H33943055   7.763   6.819   0.953  0.6022  2.0673  0.0560
  119MOL   H34043056   7.617   6.765   0.877  1.1926 -1.5061  0.0146
  119MOL   H34143057   7.825   6.633   0.800 -0.0429 -0.3719 -0.1601
  119MOL   H34243058   7.749   6.722   0.666  0.8709  1.3108 -0.9462
  119MOL   H34343059   0.016   6.781   0.757 -1.6334  1.9594  0.9625
  119MOL   C34443060   7.357   7.109   1.045 -1.0476  0.2158 -0.0776
  119MOL   C34543061   7.260   7.087   0.928 -0.2656 -0.7867  0.6864
  119MOL   C34643062   7.193   7.218   0.880  0.0652 -0.3261 -0.2694
  119MOL   O34743063   7.258   7.320   0.858 -0.3648  0.2160 -0.4772
  119MOL   O34843064   7.060   7.208   0.884  0.0543  0.0225 -0.6666
  119MOL   C34943065   6.984   7.329   0.873 -0.1923 -0.7333  0.6196
  119MOL   C35043066   6.851   7.290   0.820  0.8841 -0.4276  0.9639
  119MOL   C35143067   6.771   7.215   0.923  0.7394 -0.3619 -0.7329
  119MOL   H35243068   7.312   7.144   1.138 -1.8466 -1.6486  0.2618
  119MOL   H35343069   7.388   7.007   1.069 -4.1301 -0.9269 -0.6560
  119MOL   H35443070   7.200   7.000   0.956 -0.0481 -1.2248 -0.1914
  119MOL   H35543071   6.987   7.384   0.967  0.8381 -1.7072  1.1658
  119MOL   H35643072   7.026   7.398   0.801  1.2254 -1.7959  0.4142
  119MOL   H35743073   6.806   7.383   0.786 -0.4690 -1.3144  0.2821
  119MOL   H35843074   6.861   7.223   0.735  0.7042  1.2588 -0.4010
  119MOL   H35943075   6.701   7.148   0.872  0.4596 -1.3559  0.9387
  119MOL   H36043076   6.818   7.132   0.975 -0.0464  0.3777  1.2201
  119MOL   H36143077   6.727   7.287   0.992  1.8791 -1.6821  1.4351
  119MOL   H36243078   7.315   7.057   0.839  0.8107  2.2052  0.3111
  120MOL     C143079   7.650   4.122   0.483  0.5927  0.0905 -0.1422
  120MOL     C243080   7.552   4.197   0.581  0.0923 -0.8253  0.2966
  120MOL     C343081   7.414   4.145   0.589  0.6872 -0.0237  1.2315
  120MOL     O443082   7.315   4.197   0.533 -0.4293 -0.0171  0.3799
  120MOL     O543083   7.401   4.035   0.672 -0.5705  0.2235  0.1093
  120MOL     C643084   7.267   3.982   0.704  0.0862 -0.5664  0.6431
  120MOL     C743085   7.260   3.877   0.812  0.0120 -0.4227 -0.3739
  120MOL     C843086   7.359   3.765   0.789  0.1029  0.6214 -0.0563
  120MOL     H943087   7.645   4.013   0.484  1.0828  0.0142 -3.2683
  120MOL    H1043088   7.622   4.148   0.381  2.8414 -0.6163 -0.9677
  120MOL    H1143089   7.530   4.302   0.558  1.7783 -0.6121 -0.4552
  120MOL    H1243090   7.198   4.064   0.724 -0.7699 -0.8292 -1.1852
  120MOL    H1343091   7.237   3.934   0.611  1.8114 -0.4197 -0.0185
  120MOL    H1443092   7.271   3.933   0.905 -1.5958  0.0046 -0.4161
  120MOL    H1543093   7.162   3.830   0.798 -1.0543  0.6774  2.8124
  120MOL    H1643094   7.328   3.679   0.849 -0.8927 -0.6148 -2.2786
  120MOL    H1743095   7.382   3.754   0.683 -3.6552  0.1479 -0.8931
  120MOL    H1843096   7.454   3.797   0.830 -0.7796  0.8396  1.8868
  120MOL    H1943097   7.756   4.136   0.504  0.6732  0.3719 -0.7405
  120MOL    C2043098   7.613   4.207   0.728 -0.1000  0.3257 -0.1803
  120MOL    C2143099   7.519   4.287   0.822 -0.4837  0.1732 -0.2771
  120MOL    C2243100   7.461   4.212   0.947  0.2325 -0.2242  1.1210
  120MOL    O2343101   7.345   4.191   0.970  0.6327  0.1041 -0.1023
  120MOL    O2443102   7.562   4.181   1.029 -0.7659  0.3743 -0.1794
  120MOL    C2543103   7.537   4.091   1.134  0.4749 -1.1078  0.0017
  120MOL    C2643104   7.466   4.165   1.254  0.2863 -0.3826  1.0554
  120MOL    C2743105   7.407   4.072   1.354 -0.3305 -0.2622  0.3117
  120MOL    H2843106   7.713   4.252   0.726 -0.9436  2.2248 -0.8750
  120MOL    H2943107   7.630   4.104   0.757  1.7140  0.2469 -1.4530
  120MOL    H3043108   7.423   4.311   0.777 -0.0650  0.4727 -1.0048
  120MOL    H3143109   7.475   4.004   1.111 -2.9913  1.1557  0.5392
  120MOL    H3243110   7.635   4.056   1.168  1.2143  3.2098  2.7672
  120MOL    H3343111   7.539   4.230   1.304  0.4636  0.3005 -0.0576
  120MOL    H3443112   7.379   4.224   1.224  0.0716 -1.4147 -0.4035
  120MOL    H3543113   7.372   4.124   1.443 -1.5571  0.8813 -0.8054
  120MOL    H3643114   7.483   4.009   1.398 -0.4751  0.9908  2.3909
  120MOL    H3743115   7.327   4.012   1.309 -1.2580 -0.0590  1.6666
  120MOL    C3843116   7.582   4.420   0.864  0.1986  1.5783  0.1722
  120MOL    C3943117   7.626   4.515   0.750 -0.2780 -0.1975 -0.0108
  120MOL    C4043118   7.516   4.572   0.665  0.6561  0.2500 -0.0028
  120MOL    O4143119   7.399   4.578   0.707 -0.9013 -0.4768 -0.3074
  120MOL    O4243120   7.562   4.605   0.542  0.0691 -0.1399  0.1140
  120MOL    C4343121   7.473   4.652   0.439  0.2614 -0.6840  0.4075
  120MOL    C4443122   7.426   4.520   0.360 -0.6859 -0.0284 -0.0715
  120MOL    C4543123   7.524   4.467   0.250  0.5188 -0.1549  0.1951
  120MOL    H4643124   7.663   4.400   0.935 -0.1138  1.8454  0.6080
  120MOL    H4743125   7.508   4.472   0.925  1.0868  3.0353  0.0201
  120MOL    H4843126   7.684   4.457   0.678 -0.4459  0.6144 -0.8214
  120MOL    H4943127   7.392   4.708   0.487  1.1120  0.1132  0.9290
  120MOL    H5043128   7.520   4.728   0.378 -1.5294  0.4918  0.4478
  120MOL    H5143129   7.412   4.440   0.432  0.4493  0.5796  0.8368
  120MOL    H5243130   7.324   4.535   0.323 -0.4013  0.9017 -0.5005
  120MOL    H5343131   7.624   4.451   0.291 -0.1893 -0.5564  1.8302
  120MOL    H5443132   7.532   4.535   0.165  2.0112 -0.2430  0.2532
  120MOL    H5543133   7.499   4.366   0.218  0.9165  0.3669 -1.8560
  120MOL    C5643134   7.729   4.624   0.792  0.6790 -0.0410 -0.0928
  120MOL    C5743135   7.669   4.722   0.901 -0.6452  0.2401  0.6274
  120MOL    C5843136   7.650   4.663   1.041 -0.1715  0.8102  0.5204
  120MOL    O5943137   7.537   4.652   1.092  0.0798 -0.0181  0.3595
  120MOL    O6043138   7.763   4.618   1.093  0.2665 -0.2408  0.5511
  120MOL    C6143139   7.770   4.573   1.235  0.5147  0.0274 -0.4268
  120MOL    C6243140   7.749   4.419   1.239  0.6636 -1.0072  0.1091
  120MOL    C6343141   7.846   4.344   1.156  0.5740  0.0028  0.1928
  120MOL    H6443142   7.766   4.679   0.705  0.9334  0.3779  0.2783
  120MOL    H6543143   7.817   4.580   0.838 -0.6312 -1.2747  1.2801
  120MOL    H6643144   7.571   4.748   0.862  0.2359 -1.5038 -2.9876
  120MOL    H6743145   7.866   4.611   1.271  0.8502 -0.0794 -1.2046
  120MOL    H6843146   7.690   4.624   1.289  1.1793  1.8660 -1.1196
  120MOL    H6943147   7.763   4.378   1.339  1.5196  0.3590  0.5551
  120MOL    H7043148   7.648   4.384   1.213  0.1122  1.4191 -1.2193
  120MOL    H7143149   0.065   4.353   1.200  1.1910  0.7571 -1.3214
  120MOL    H7243150   7.850   4.367   1.050  1.5826  2.4901  0.7383
  120MOL    H7343151   7.816   4.240   1.169  0.8560  0.1998  2.6207
  120MOL    C7443152   7.751   4.852   0.907 -0.9206 -0.3526  0.4041
  120MOL    C7543153   7.755   4.938   0.772 -0.7240 -0.5920 -0.5262
  120MOL    C7643154   7.614   4.966   0.724 -0.0839 -0.0137  0.2323
  120MOL    O7743155   7.574   4.942   0.608  0.0474  0.0016 -0.3011
  120MOL    O7843156   7.539   5.020   0.824  0.2301  0.0467 -0.4790
  120MOL    C7943157   7.402   5.057   0.805 -0.9672 -0.4615 -0.7547
  120MOL    C8043158   7.315   4.929   0.822  0.6190  0.3556 -0.7880
  120MOL    C8143159   7.284   4.884   0.963  0.7260  0.8226  1.1610
  120MOL    H8243160   7.854   4.830   0.932 -0.4453 -0.4610 -1.5425
  120MOL    H8343161   7.717   4.914   0.990  0.8563  1.8760 -0.4981
  120MOL    H8443162   7.795   4.873   0.695  0.9612  1.1053 -1.1220
  120MOL    H8543163   7.380   5.139   0.874 -0.1404 -0.1400 -0.8760
  120MOL    H8643164   7.380   5.103   0.708  1.1616  3.8007  0.6515
  120MOL    H8743165   7.215   4.947   0.783 -0.1393  1.3805  1.5359
  120MOL    H8843166   7.356   4.854   0.755  0.3787 -0.0982 -0.4278
  120MOL    H8943167   7.374   4.861   1.020  1.8678  0.1187 -0.8900
  120MOL    H9043168   7.212   4.803   0.975  0.1042  0.7423 -2.5385
  120MOL    H9143169   7.241   4.967   1.019 -1.2273 -1.6002  3.3841
  120MOL    C9243170   7.847   5.051   0.787 -0.3691 -0.0667 -0.4388
  120MOL    C9343171   0.121   5.015   0.789  0.2232 -0.4167  0.4489
  120MOL    C9443172   0.162   4.934   0.671  0.3990  0.0498  0.6947
  120MOL    O9543173   0.206   4.827   0.681  0.5686 -0.2002 -0.6282
  120MOL    O9643174   0.128   4.995   0.555  0.1538  0.1442 -0.0876
  120MOL    C9743175   0.148   4.934   0.431  0.2612  0.2881 -0.2200
  120MOL    C9843176   0.073   4.988   0.316 -0.1832  0.1883  0.4288
  120MOL    C9943177   7.809   4.942   0.336 -0.3613  0.2823  0.3866
  120MOL   H10043178   7.817   5.108   0.875 -2.9025 -0.7303 -0.8375
  120MOL   H10143179   7.833   5.127   0.709  0.5837  1.1619  0.5622
  120MOL   H10243180   0.145   4.949   0.873  0.9326  2.6827  2.7688
  120MOL   H10343181   0.254   4.944   0.409  0.3369 -3.2092 -1.8093
  120MOL   H10443182   0.143   4.825   0.425  0.3764  0.3483 -1.4900
  120MOL   H10543183   0.092   5.096   0.320  1.8561 -0.1475  0.3700
  120MOL   H10643184   0.111   4.942   0.225  2.4265  3.9878 -0.5186
  120MOL   H10743185   7.739   4.984   0.264 -1.7625  0.3942  1.7785
  120MOL   H10843186   7.773   4.984   0.430 -0.1750  1.7624 -0.1920
  120MOL   H10943187   7.801   4.833   0.337  0.4495  0.1876 -1.9370
  120MOL   C11043188   0.208   5.145   0.800  0.3426 -0.0777 -0.2932
  120MOL   C11143189   0.199   5.214   0.941 -0.2406  0.4333 -0.3025
  120MOL   C11243190   0.254   5.121   1.053  0.2359  0.1494 -0.2686
  120MOL   O11343191   0.366   5.133   1.104 -0.3425 -0.3365 -0.2450
  120MOL   O11443192   0.171   5.015   1.077  0.1981 -0.1743 -0.1573
  120MOL   C11543193   0.198   4.920   1.180 -0.9917  0.1606 -0.0017
  120MOL   C11643194   0.109   4.942   1.296 -0.4420 -0.3642  0.1573
  120MOL   C11743195   7.838   4.959   1.267 -0.2454  0.0999 -0.2371
  120MOL   H11843196   0.161   5.214   0.730 -1.2234 -0.2250  0.6011
  120MOL   H11943197   0.313   5.130   0.773  0.5046 -0.8144  0.7301
  120MOL   H12043198   0.092   5.208   0.960 -0.0357 -3.3570  0.0409
  120MOL   H12143199   0.187   4.820   1.138  3.2450 -1.1268  1.7384
  120MOL   H12243200   0.300   4.918   1.217 -1.0422 -1.6316  0.1044
  120MOL   H12343201   0.115   4.859   1.367 -0.1798 -0.1431  0.3933
  120MOL   H12443202   0.140   5.025   1.359 -0.6674 -0.3722  0.2814
  120MOL   H12543203   7.793   4.874   1.217 -1.1411  1.5667 -1.9865
  120MOL   H12643204   7.823   5.037   1.193  1.7225  0.5713 -0.1642
  120MOL   H12743205   7.775   4.986   1.352 -0.5223 -1.6645  0.1292
  120MOL   C12843206   0.258   5.358   0.946 -0.1488  0.0739  0.5081
  120MOL   C12943207   0.161   5.462   1.015  0.0601  0.6851  0.0661
  120MOL   C13043208   0.185   5.434   1.165  0.2730 -0.3017  0.4350
  120MOL   O13143209   0.088   5.398   1.233  0.1864 -0.5187  0.3117
  120MOL   O13243210   0.308   5.438   1.205  0.5266 -0.2171 -0.7675
  120MOL   C13343211   0.361   5.357   1.309  0.8320  0.2040 -0.2735
  120MOL   C13443212   0.510   5.369   1.312 -0.5631 -0.6004  0.2647
  120MOL   C13543213   0.559   5.516   1.317 -0.1467 -0.3985  0.8931
  120MOL   H13643214   0.279   5.395   0.846 -0.2880  3.6216  1.7097
  120MOL   H13743215   0.356   5.356   0.993  0.4522  0.8056 -0.6866
  120MOL   H13843216   0.056   5.448   0.989  0.4461 -1.7986 -0.2714
  120MOL   H13943217   0.311   5.399   1.395  0.5892  0.0091 -0.3183
  120MOL   H14043218   0.325   5.254   1.305  0.2655  0.3389  1.1602
  120MOL   H14143219   0.547   5.308   1.394  0.3899 -1.2358 -0.6230
  120MOL   H14243220   0.558   5.331   1.222 -1.8486  0.5879 -0.9575
  120MOL   H14343221   0.510   5.568   1.400 -0.4821  2.2897 -0.9083
  120MOL   H14443222   0.522   5.565   1.227 -0.2086 -1.6181  0.2468
  120MOL   H14543223   0.668   5.518   1.327  0.2002  0.1738 -2.4929
  120MOL   C14643224   0.205   5.603   0.975  0.8976 -1.0260 -0.1162
  120MOL   C14743225   0.149   5.719   1.072 -0.2956 -0.2142  0.3750
  120MOL   C14843226   0.236   5.847   1.051  0.7056  0.6710  0.1530
  120MOL   O14943227   0.202   5.920   0.956  0.4044 -0.3312 -0.6180
  120MOL   O15043228   0.354   5.850   1.117  0.5548 -0.5061  0.1380
  120MOL   C15143229   0.448   5.948   1.085 -0.2507 -0.2388  0.4562
  120MOL   C15243230   0.562   5.932   1.181 -0.1270 -0.0088 -0.3375
  120MOL   C15343231   0.530   5.976   1.317  0.4620  0.0039  0.0071
  120MOL   H15443232   0.180   5.614   0.870  2.2936  1.2633 -0.2628
  120MOL   H15543233   0.314   5.595   0.979  0.8579 -0.9312  2.0248
  120MOL   H15643234   0.149   5.699   1.179  0.4855 -1.9029  0.0623
  120MOL   H15743235   0.498   5.929   0.990  0.6456 -1.5425  1.1794
  120MOL   H15843236   0.400   6.046   1.083 -0.9733 -0.5971 -0.3869
  120MOL   H15943237   0.595   5.828   1.188 -0.4193 -0.0560  0.3144
  120MOL   H16043238   0.650   5.986   1.145 -0.0512  0.5590  0.7019
  120MOL   H16143239   0.507   6.082   1.300  1.2043  0.1065 -0.3678
  120MOL   H16243240   0.616   5.973   1.383  0.4271  2.0439  0.1895
  120MOL   H16343241   0.447   5.917   1.356  0.8179  0.6281  1.7792
  120MOL   C16443242   7.880   5.741   1.048  0.6057  0.1753  0.7439
  120MOL   C16543243   7.778   5.688   1.157  0.3410 -0.4413 -0.6977
  120MOL   C16643244   7.801   5.766   1.283 -0.2851  0.2561  0.1656
  120MOL   O16743245   7.747   5.871   1.304  0.4860 -0.4473 -0.0082
  120MOL   O16843246   0.004   5.707   1.371 -0.3241 -0.2323 -0.9941
  120MOL   C16943247   0.040   5.770   1.493  0.3300  0.2815 -0.0724
  120MOL   C17043248   0.183   5.836   1.483  0.1570 -0.7027  0.2226
  120MOL   C17143249   0.173   5.971   1.409  0.1090 -0.3004 -0.2297
  120MOL   H17243250   7.855   5.700   0.950 -0.9265  0.1788  1.1161
  120MOL   H17343251   7.852   5.846   1.038  1.4811  0.1032 -3.0508
  120MOL   H17443252   7.809   5.584   1.172  0.7586 -0.6169 -2.5880
  120MOL   H17543253   7.849   5.841   1.535  0.4135  1.6458 -2.1189
  120MOL   H17643254   0.050   5.692   1.568 -0.2102 -0.1296 -0.4190
  120MOL   H17743255   0.222   5.856   1.583  1.3976 -0.9064 -0.2124
  120MOL   H17843256   0.244   5.759   1.436  0.8955  0.4772 -0.7837
  120MOL   H17943257   0.204   5.957   1.305 -0.3239  2.1453 -0.7244
  120MOL   H18043258   0.267   6.012   1.444 -1.0481  0.6551  1.8150
  120MOL   H18143259   0.091   6.038   1.435 -0.1920 -0.3551 -1.0038
  120MOL   C18243260   7.627   5.690   1.120 -0.2067 -0.0250 -0.0398
  120MOL   C18343261   7.596   5.578   1.016  0.5385 -0.0159  0.1028
  120MOL   C18443262   7.631   5.433   1.065  0.5940  0.2143  0.2981
  120MOL   O18543263   7.684   5.346   0.992  0.5960 -0.3485 -0.2335
  120MOL   O18643264   7.590   5.415   1.190 -0.9739  0.0354  0.1863
  120MOL   C18743265   7.610   5.294   1.261 -0.0819 -0.2195 -0.1382
  120MOL   C18843266   7.594   5.330   1.406 -0.1061 -0.1313 -0.9835
  120MOL   C18943267   7.692   5.433   1.461 -0.1469  0.0866  0.3498
  120MOL   H19043268   7.581   5.781   1.082 -1.7110 -0.2226  1.2688
  120MOL   H19143269   7.570   5.685   1.213  1.7527  0.8516  1.2428
  120MOL   H19243270   7.655   5.597   0.927  1.0290  0.5832  0.5514
  120MOL   H19343271   7.539   5.213   1.242  1.0172 -1.0077 -0.9858
  120MOL   H19443272   7.705   5.241   1.245  0.2910 -0.1229  1.6420
  120MOL   H19543273   7.497   5.377   1.426 -0.1796 -1.2171  1.2661
  120MOL   H19643274   7.597   5.242   1.469 -0.3034  0.6737  0.1804
  120MOL   H19743275   7.793   5.398   1.439 -0.6465 -1.2925  0.1890
  120MOL   H19843276   7.689   5.428   1.569 -2.3253  1.4050  0.3899
  120MOL   H19943277   7.678   5.536   1.429 -0.8017 -0.3724 -0.8914
  120MOL   C20043278   7.445   5.582   0.977 -0.1775 -0.3084 -0.8013
  120MOL   C20143279   7.404   5.626   0.828  0.0595 -0.6731  0.0627
  120MOL   C20243280   7.457   5.523   0.728 -0.0978  0.7842 -0.2054
  120MOL   O20343281   7.396   5.422   0.686 -0.5332  1.2825 -0.2415
  120MOL   O20443282   7.590   5.551   0.709  0.6210 -0.8226  0.4262
  120MOL   C20543283   7.673   5.471   0.624 -0.3516  0.3148 -0.5691
  120MOL   C20643284   7.810   5.524   0.619 -0.2560 -0.1518 -0.2135
  120MOL   C20743285   0.035   5.434   0.553  0.0179  0.3574 -0.5817
  120MOL   H20843286   7.395   5.651   1.045  0.3826  0.0248 -0.7297
  120MOL   H20943287   7.402   5.483   0.989  0.0240 -0.2777  0.1423
  120MOL   H21043288   7.453   5.722   0.815 -0.8122 -0.1671  0.4634
  120MOL   H21143289   7.687   5.375   0.672  3.5546  0.8816 -0.4227
  120MOL   H21243290   7.624   5.463   0.526 -2.4357 -0.5059  0.5100
  120MOL   H21343291   7.809   5.626   0.578 -3.6784 -0.2288 -0.4709
  120MOL   H21443292   7.847   5.546   0.719 -1.1870 -0.7371  0.2721
  120MOL   H21543293   0.044   5.340   0.608 -0.5901  1.7433  1.9632
  120MOL   H21643294   0.134   5.479   0.559  0.2627 -0.1584 -0.6913
  120MOL   H21743295   0.007   5.415   0.449  0.4698  0.8786 -0.7990
  120MOL   C21843296   7.258   5.658   0.802  0.1062  0.6130  0.0775
  120MOL   C21943297   7.176   5.741   0.905  0.2555 -0.0746 -0.0272
  120MOL   C22043298   7.208   5.887   0.910 -0.3976  0.2474  0.4478
  120MOL   O22143299   7.261   5.941   0.809  0.9628  0.0056 -0.3062
  120MOL   O22243300   7.181   5.937   1.026  0.3389 -0.9409  0.5088
  120MOL   C22343301   7.210   6.072   1.063  0.4567  0.1638  1.0133
  120MOL   C22443302   7.350   6.120   1.100 -0.4127 -0.8841  0.4722
  120MOL   C22543303   7.398   6.034   1.219  0.0828 -0.5713 -0.2444
  120MOL   H22643304   7.228   5.553   0.809 -1.8229  1.2101  1.2723
  120MOL   H22743305   7.239   5.677   0.696 -1.5391 -1.0396  0.0436
  120MOL   H22843306   7.198   5.694   1.001 -0.9310  0.2055  0.3874
  120MOL   H22943307   7.158   6.138   0.994 -2.2075 -2.5395  0.3245
  120MOL   H23043308   7.152   6.067   1.155  0.4807 -1.6899  0.9533
  120MOL   H23143309   7.422   6.104   1.020 -1.6746  1.3868 -1.1790
  120MOL   H23243310   7.352   6.220   1.142 -0.8290 -0.8800  0.4858
  120MOL   H23343311   7.402   5.927   1.197 -2.2813 -0.7810  0.2238
  120MOL   H23443312   7.330   6.059   1.299  1.1908  1.4943  0.1029
  120MOL   H23543313   7.497   6.073   1.242 -0.3264  0.4297 -0.1582
  120MOL   C23643314   7.027   5.721   0.902 -0.0053  0.3299 -0.0834
  120MOL   C23743315   6.962   5.581   0.927 -0.2737  0.0964  0.1924
  120MOL   C23843316   6.992   5.529   1.067 -0.6440 -0.6904  0.5510
  120MOL   O23943317   7.061   5.430   1.089 -0.0756  0.1075  0.5142
  120MOL   O24043318   6.949   5.620   1.160  0.1750 -0.1338  0.0560
  120MOL   C24143319   6.974   5.597   1.298  0.1284  0.0169  0.1877
  120MOL   C24243320   7.034   5.719   1.362 -0.0165 -0.4679  0.3984
  120MOL   C24343321   7.187   5.719   1.340  0.1313  0.7143 -0.2162
  120MOL   H24443322   6.980   5.772   0.818  0.5879  1.7354  0.4225
  120MOL   H24543323   6.983   5.784   0.980  0.3909 -0.0038  0.4143
  120MOL   H24643324   7.017   5.518   0.858 -0.4923  0.6984 -0.5400
  120MOL   H24743325   6.873   5.573   1.332 -0.1564 -0.9815 -1.3164
  120MOL   H24843326   7.031   5.505   1.310  0.8575  0.5146  0.5790
  120MOL   H24943327   6.998   5.816   1.327  0.4679 -0.0723  0.9897
  120MOL   H25043328   7.038   5.716   1.470 -0.9764  2.2542  0.5573
  120MOL   H25143329   7.225   5.808   1.390  1.2929 -0.2058  0.5671
  120MOL   H25243330   7.209   5.721   1.234  0.1171 -2.2750 -0.2941
  120MOL   H25343331   7.233   5.627   1.376  0.4206  0.9255 -0.0422
  120MOL   C25443332   6.813   5.574   0.888  0.1468 -0.1558 -0.1843
  120MOL   C25543333   6.788   5.584   0.726 -0.0304 -0.8580 -0.7516
  120MOL   C25643334   6.893   5.501   0.654 -0.5928 -0.0996 -0.6972
  120MOL   O25743335   6.976   5.541   0.576  0.1529  0.3988 -0.6584
  120MOL   O25843336   6.882   5.372   0.681  0.1331  0.0805 -0.0074
  120MOL   C25943337   6.982   5.284   0.629  0.5806 -0.2824 -0.0245
  120MOL   C26043338   7.051   5.225   0.746 -0.6062 -0.3875 -0.5296
  120MOL   C26143339   6.958   5.139   0.827 -0.2390 -0.5458 -0.2011
  120MOL   H26243340   6.756   5.648   0.944  1.5222  0.7555  0.0365
  120MOL   H26343341   6.770   5.478   0.915  0.1249 -0.8188 -2.4599
  120MOL   H26443342   6.814   5.689   0.712 -1.3683 -0.3676  0.2868
  120MOL   H26543343   6.923   5.209   0.575  1.2308  0.0094 -1.1662
  120MOL   H26643344   7.055   5.328   0.561  0.5838 -0.7305 -0.3132
  120MOL   H26743345   7.128   5.157   0.712 -1.4048 -1.4058 -0.3355
  120MOL   H26843346   7.104   5.296   0.810  0.6705 -1.2905 -0.5860
  120MOL   H26943347   6.903   5.076   0.757 -0.5128  1.4914 -1.8690
  120MOL   H27043348   6.886   5.196   0.884 -0.2773  1.9740 -2.6775
  120MOL   H27143349   7.016   5.083   0.900  2.1035  0.4848 -1.2214
  120MOL   C27243350   6.639   5.550   0.694 -0.2009  0.3445  0.0119
  120MOL   C27343351   6.601   5.574   0.548  0.1126  0.3545 -0.2034
  120MOL   C27443352   6.465   5.514   0.517 -0.1540  0.0616  0.3132
  120MOL   O27543353   6.434   5.443   0.423  0.2865  0.1362  0.3083
  120MOL   O27643354   6.381   5.549   0.608  0.1922 -0.2187 -0.2925
  120MOL   C27743355   6.244   5.509   0.619  0.3350  0.3060  0.5754
  120MOL   C27843356   6.234   5.386   0.712  0.7431 -0.0268  0.1144
  120MOL   C27943357   6.237   5.429   0.856 -0.0516 -0.1723 -0.0567
  120MOL   H28043358   6.564   5.613   0.742 -1.1208  1.8742 -3.2468
  120MOL   H28143359   6.616   5.451   0.730 -2.0063  0.2011 -1.4571
  120MOL   H28243360   6.672   5.525   0.481  1.7620  2.6268 -0.1645
  120MOL   H28343361   6.188   5.591   0.664  2.4726  1.2932  1.4598
  120MOL   H28443362   6.206   5.494   0.517  2.3729 -3.6559  0.2992
  120MOL   H28543363   6.147   5.323   0.697 -0.3678  1.4875  0.1728
  120MOL   H28643364   6.324   5.324   0.707  0.9506  0.3468 -0.9026
  120MOL   H28743365   6.337   5.469   0.872 -0.1039 -0.1340  0.1736
  120MOL   H28843366   6.224   5.346   0.925  1.9882 -1.0836 -0.7065
  120MOL   H28943367   6.158   5.498   0.883 -0.1540 -0.7359  1.1256
  120MOL   C29043368   6.592   5.731   0.519 -0.1218 -0.3567  0.5265
  120MOL   C29143369   6.710   5.782   0.425  0.2230  0.1279  0.5963
  120MOL   C29243370   6.729   5.711   0.291  0.3268 -0.3510 -1.1436
  120MOL   O29343371   6.838   5.677   0.247 -0.4476 -0.8256 -0.4719
  120MOL   O29443372   6.616   5.695   0.226 -0.0046 -0.0560 -0.0173
  120MOL   C29543373   6.615   5.636   0.101 -0.2426 -0.5765  0.4283
  120MOL   C29643374   6.618   5.740   7.872  0.5018 -0.1093 -0.4478
  120MOL   C29743375   6.610   5.679   7.735  0.2483 -0.6755 -0.5865
  120MOL   H29843376   6.601   5.772   0.619  2.6190 -1.5813  0.8193
  120MOL   H29943377   6.503   5.774   0.472  0.1531  1.9902  2.0730
  120MOL   H30043378   6.799   5.760   0.484  1.1629  0.7644 -0.5865
  120MOL   H30143379   6.686   5.556   0.085  1.8853  1.3823 -0.2267
  120MOL   H30243380   6.517   5.589   0.095 -0.4991  0.1490 -1.4935
  120MOL   H30343381   6.528   5.796   0.018  1.8349  2.0480 -0.3234
  120MOL   H30443382   6.708   5.802   7.875  0.6695 -0.3785  0.3227
  120MOL   H30543383   6.529   5.606   7.724  0.2387 -0.9059  0.9080
  120MOL   H30643384   6.707   5.637   7.707  0.3766 -1.8620  1.5721
  120MOL   H30743385   6.583   5.760   7.667 -1.5592 -1.1307 -0.4390
  120MOL   C30843386   6.715   5.931   0.391 -0.5031  0.2272  0.1421
  120MOL   C30943387   6.662   6.030   0.495 -0.1206  0.0065 -0.0299
  120MOL   C31043388   6.760   6.048   0.614 -0.2421 -0.2049  0.5962
  120MOL   O31143389   6.734   6.008   0.725 -0.1465  0.1386  0.2847
  120MOL   O31243390   6.872   6.116   0.590  0.4445  0.3848  0.7295
  120MOL   C31343391   6.963   6.141   0.693 -0.0405  0.7778 -0.0531
  120MOL   C31443392   7.075   6.242   0.643 -0.5135  0.3017 -0.4875
  120MOL   C31543393   7.168   6.291   0.753 -0.5155  1.2006 -0.7122
  120MOL   H31643394   6.656   5.948   0.302 -1.5747  0.4775  0.8931
  120MOL   H31743395   6.817   5.959   0.364 -0.7650  0.0200 -1.1019
  120MOL   H31843396   6.577   5.984   0.544 -0.6117  0.6525 -0.2654
  120MOL   H31943397   6.913   6.192   0.776 -0.8558  2.1621 -1.3826
  120MOL   H32043398   7.007   6.051   0.736 -0.8173  0.5830  0.3429
  120MOL   H32143399   7.127   6.184   0.567  0.4685 -0.8263  1.0164
  120MOL   H32243400   7.024   6.328   0.601 -1.1653  0.4159  0.5152
  120MOL   H32343401   7.119   6.319   0.846 -0.2052 -0.7314  0.0602
  120MOL   H32443402   7.247   6.219   0.772 -1.3267  0.2505 -0.8589
  120MOL   H32543403   7.211   6.386   0.723 -0.8139  2.5235  2.8346
  120MOL   C32643404   6.599   6.156   0.432 -0.1380 -0.2223 -0.6734
  120MOL   C32743405   6.542   6.254   0.545  0.2491 -0.2781  0.1689
  120MOL   C32843406   6.637   6.369   0.585 -0.1247 -0.5384  0.4636
  120MOL   O32943407   6.679   6.372   0.707 -0.5177 -0.1491 -0.2953
  120MOL   O33043408   6.648   6.467   0.498 -0.3696  0.0701  0.1985
  120MOL   C33143409   6.739   6.569   0.523 -0.1259 -0.5630 -0.0841
  120MOL   C33243410   6.802   6.605   0.383  0.2598 -0.2195  0.1335
  120MOL   C33343411   6.872   6.481   0.320 -0.7945 -0.0673  0.3181
  120MOL   H33443412   6.523   6.130   0.358  0.8695 -0.2749 -1.6997
  120MOL   H33543413   6.674   6.212   0.377  0.2791 -0.1302 -0.0112
  120MOL   H33643414   6.540   6.195   0.636 -1.0686  0.3862  0.5739
  120MOL   H33743415   6.671   6.646   0.558  0.0584  0.4439 -1.8941
  120MOL   H33843416   6.819   6.544   0.592 -1.2231 -1.2558  0.9651
  120MOL   H33943417   6.712   6.628   0.326  0.1785  0.9551  0.7203
  120MOL   H34043418   6.868   6.692   0.381  0.6200 -0.3718  2.9722
  120MOL   H34143419   6.943   6.447   0.396 -1.1413 -0.3411  0.5169
  120MOL   H34243420   6.803   6.408   0.279  0.8435 -2.0635  1.0280
  120MOL   H34343421   6.936   6.499   0.234  1.3536  0.5340  1.9857
  120MOL   C34443422   6.393   6.288   0.511  0.3141 -0.0970  0.1229
  120MOL   C34543423   6.335   6.395   0.611  0.4642  0.1280 -0.2725
  120MOL   C34643424   6.330   6.350   0.755  0.5116  0.4050  0.3653
  120MOL   O34743425   6.311   6.231   0.774  0.1902  0.4557 -0.4590
  120MOL   O34843426   6.341   6.444   0.849 -0.1528  1.7846 -0.3237
  120MOL   C34943427   6.311   6.414   0.991 -0.2866 -0.3679 -0.5670
  120MOL   C35043428   6.298   6.544   1.070 -0.2070  0.3672 -0.0461
  120MOL   C35143429   6.260   6.527   1.220  0.0918  0.6244  0.5584
  120MOL   H35243430   6.339   6.194   0.523 -0.0608  0.2510  1.2742
  120MOL   H35343431   6.373   6.326   0.411 -1.2128  0.2263  0.5449
  120MOL   H35443432   6.234   6.420   0.579  1.2838  2.9531 -0.7791
  120MOL   H35543433   6.214   6.364   0.996 -0.7419  0.6833  1.7188
  120MOL   H35643434   6.391   6.352   1.031 -2.2064 -2.8730 -0.4947
  120MOL   H35743435   6.393   6.597   1.075  1.1053 -2.0391  1.7449
  120MOL   H35843436   6.225   6.598   1.010 -0.1466  1.3053  0.7032
  120MOL   H35943437   6.228   6.617   1.273  2.5406  2.5092 -1.0323
  120MOL   H36043438   6.187   6.447   1.227  0.5758  0.0979 -0.3534
  120MOL   H36143439   6.346   6.489   1.275 -0.0880 -0.5549  0.0260
  120MOL   H36243440   6.395   6.486   0.601  1.0315 -0.0944  1.0022
  121MOL     C143441   1.900   2.629   1.073 -0.1671 -0.2017 -0.3911
  121MOL     C243442   1.927   2.765   1.014  0.4035 -0.4903  0.4566
  121MOL     C343443   1.857   2.880   1.083 -0.1525  0.0034 -0.5148
  121MOL     O443444   1.913   2.968   1.141 -0.4969 -0.0491  0.7810
  121MOL     O543445   1.718   2.873   1.079 -0.1958 -0.1162  0.4223
  121MOL     C643446   1.649   2.947   1.179 -0.5513  0.2987  0.9124
  121MOL     C743447   1.522   2.873   1.206 -1.2011  1.0287  0.0260
  121MOL     C843448   1.431   2.950   1.304  0.0334 -0.8908  0.0477
  121MOL     H943449   1.797   2.596   1.084 -0.1813 -1.0090 -2.6946
  121MOL    H1043450   1.941   2.558   1.002  0.4813 -0.5314  0.3040
  121MOL    H1143451   1.882   2.772   0.915  1.3914  1.8649  0.1498
  121MOL    H1243452   1.701   2.967   1.273  0.5613  1.7577  0.0156
  121MOL    H1343453   1.620   3.048   1.148 -1.0288  0.0810  0.6491
  121MOL    H1443454   1.473   2.856   1.110  0.2517  3.6872 -1.2323
  121MOL    H1543455   1.548   2.772   1.239  1.0994  1.6351  0.1440
  121MOL    H1643456   1.347   2.890   1.339 -0.3232 -1.7674 -2.2179
  121MOL    H1743457   1.481   2.978   1.397  0.2235 -1.3315  0.0838
  121MOL    H1843458   1.391   3.038   1.255 -1.3044 -1.2330  0.5171
  121MOL    H1943459   1.966   2.623   1.160  2.3404  0.0103 -2.2387
  121MOL    C2043460   2.078   2.794   0.994 -0.1644 -0.0243  0.5608
  121MOL    C2143461   2.136   2.860   0.865 -0.3507  0.3808  0.1224
  121MOL    C2243462   2.084   3.003   0.843  0.1171  0.5564 -0.3918
  121MOL    O2343463   2.004   3.029   0.756 -0.2685 -0.0540 -0.1586
  121MOL    O2443464   2.152   3.092   0.915 -0.2068  0.0950 -0.5970
  121MOL    C2543465   2.121   3.229   0.919  0.0970 -0.1599 -0.1767
  121MOL    C2643466   2.225   3.304   0.833  0.4208  0.0181 -0.0878
  121MOL    C2743467   2.214   3.280   0.683 -0.5529 -0.2833  0.4633
  121MOL    H2843468   2.122   2.695   1.009  0.8178  0.7092  2.6694
  121MOL    H2943469   2.122   2.849   1.077  0.9173  1.3968 -0.9291
  121MOL    H3043470   2.107   2.797   0.780  1.7430  0.6388 -0.8176
  121MOL    H3143471   2.020   3.257   0.888  0.1398  0.4288  0.2086
  121MOL    H3243472   2.130   3.275   1.017  1.4300  0.5319 -0.6143
  121MOL    H3343473   2.203   3.409   0.849 -2.3555 -0.3544 -1.1939
  121MOL    H3443474   2.323   3.277   0.873  0.3369  0.2715  0.2903
  121MOL    H3543475   2.118   3.242   0.649 -0.8572 -0.5309  1.5585
  121MOL    H3643476   2.294   3.214   0.649  0.6512  1.5572 -0.3280
  121MOL    H3743477   2.222   3.374   0.629 -0.6473 -1.2194 -1.1950
  121MOL    C3843478   2.291   2.853   0.867 -0.1333 -0.4597 -0.0554
  121MOL    C3943479   2.370   2.890   0.729 -0.0927 -0.6005 -0.3079
  121MOL    C4043480   2.525   2.886   0.761  0.5173  0.2951  0.1868
  121MOL    O4143481   2.584   2.991   0.750 -0.4710 -0.3263 -1.0222
  121MOL    O4243482   2.573   2.766   0.805  0.0751 -0.7554 -0.0605
  121MOL    C4343483   2.705   2.753   0.844  0.2090 -0.0380 -1.4077
  121MOL    C4443484   2.808   2.732   0.732 -0.2289 -0.3695  0.1182
  121MOL    C4543485   2.759   2.627   0.642 -0.2844  0.1893  0.2364
  121MOL    H4643486   2.319   2.752   0.898  0.7399 -0.4218 -0.6933
  121MOL    H4743487   2.319   2.911   0.955  1.2903 -2.4007  0.8229
  121MOL    H4843488   2.344   2.993   0.707 -1.9110 -0.6015  1.6377
  121MOL    H4943489   2.731   2.835   0.911 -1.3833  0.4443 -1.3457
  121MOL    H5043490   2.714   2.666   0.909  1.0424  0.2145 -1.1847
  121MOL    H5143491   2.829   2.825   0.679 -0.2185 -1.0602 -1.0853
  121MOL    H5243492   2.897   2.684   0.772 -1.9389 -2.4819  1.5116
  121MOL    H5343493   2.661   2.655   0.603  0.8684  2.3450 -1.1809
  121MOL    H5443494   2.746   2.541   0.708  1.5265 -0.2933 -0.0299
  121MOL    H5543495   2.812   2.608   0.549  0.2815  0.9936  0.3828
  121MOL    C5643496   2.342   2.792   0.615  0.4435 -0.3568 -0.3676
  121MOL    C5743497   2.416   2.831   0.475  0.3159  0.6466 -0.2348
  121MOL    C5843498   2.378   2.716   0.385 -0.2843  0.2563 -0.0330
  121MOL    O5943499   2.298   2.736   0.292 -0.3025  0.4632  0.2101
  121MOL    O6043500   2.428   2.604   0.418 -0.6837 -0.1971  0.6887
  121MOL    C6143501   2.377   2.484   0.361  0.5749 -0.2479  0.6093
  121MOL    C6243502   2.448   2.368   0.420  0.7891 -0.0756  0.1175
  121MOL    C6343503   2.591   2.342   0.388  0.1751 -0.6926 -0.1197
  121MOL    H6443504   2.235   2.781   0.598  0.2716  0.1651  0.3629
  121MOL    H6543505   2.366   2.690   0.644 -0.6082 -0.6583 -0.5688
  121MOL    H6643506   2.525   2.838   0.472  0.2625  0.7098 -3.6681
  121MOL    H6743507   2.274   2.475   0.396 -0.6610  1.0333 -2.4600
  121MOL    H6843508   2.379   2.461   0.254 -1.0620 -0.0261  0.5102
  121MOL    H6943509   2.427   2.385   0.525  0.6806  0.4513  0.0121
  121MOL    H7043510   2.388   2.282   0.389 -1.0622  0.3924  2.2679
  121MOL    H7143511   2.661   2.404   0.444  0.2891 -1.5434  0.7101
  121MOL    H7243512   2.615   2.355   0.283 -0.6380  0.6664 -0.1448
  121MOL    H7343513   2.609   2.236   0.410  0.0872 -0.6321  0.2544
  121MOL    C7443514   2.378   2.968   0.416 -0.4302  0.5072 -0.0482
  121MOL    C7543515   2.502   3.057   0.359  0.2635 -0.1314 -0.5051
  121MOL    C7643516   2.579   2.998   0.242 -0.8726 -0.3683 -0.4551
  121MOL    O7743517   2.694   2.950   0.254 -0.1246  0.3520  0.1750
  121MOL    O7843518   2.516   3.006   0.123  0.7117 -0.1114  0.6219
  121MOL    C7943519   2.572   2.945   0.011  0.4758  0.3350 -0.0293
  121MOL    C8043520   2.526   2.796   0.015 -0.8278  0.9610  0.5595
  121MOL    C8143521   2.514   2.728   7.762 -0.0559 -0.2857  0.8315
  121MOL    H8243522   2.332   3.034   0.489 -1.1564  2.5214 -2.2862
  121MOL    H8343523   2.302   2.964   0.339 -1.5044 -0.2998  1.0304
  121MOL    H8443524   2.578   3.050   0.437  1.5923 -0.9664 -1.8493
  121MOL    H8543525   2.546   2.993   7.797  2.2638 -0.3439 -0.8912
  121MOL    H8643526   2.680   2.947   0.021  0.3089 -0.8096  2.3373
  121MOL    H8743527   2.605   2.740   0.065 -0.8853 -0.9336 -1.3553
  121MOL    H8843528   2.442   2.792   0.084 -0.0003 -0.1911  1.5209
  121MOL    H8943529   2.443   2.788   7.705  0.5484 -1.7519 -1.4953
  121MOL    H9043530   2.476   2.627   7.777  0.0618 -0.1626  2.0469
  121MOL    H9143531   2.602   2.719   7.699 -0.3248  0.5146  0.3360
  121MOL    C9243532   2.459   3.202   0.322  0.3510 -0.5330  0.4336
  121MOL    C9343533   2.563   3.316   0.312  0.4840  0.1894  0.2949
  121MOL    C9443534   2.641   3.354   0.440 -0.9023  0.6443 -0.1694
  121MOL    O9543535   2.762   3.338   0.450 -0.0583  0.1743  0.1749
  121MOL    O9643536   2.558   3.407   0.530 -0.0793 -0.4399 -0.0822
  121MOL    C9743537   2.610   3.450   0.652  0.1197  0.0039  0.7832
  121MOL    C9843538   2.627   3.329   0.747  0.3590 -0.1291  0.7304
  121MOL    C9943539   2.630   3.351   0.898 -0.1601  0.2518  0.0611
  121MOL   H10043540   2.384   3.241   0.390  0.2326  2.7606 -1.4661
  121MOL   H10143541   2.408   3.203   0.226  0.4634  0.2672  0.3714
  121MOL   H10243542   2.498   3.402   0.297 -0.6230 -0.7399 -0.3057
  121MOL   H10343543   2.709   3.495   0.640  0.3573 -0.6146  0.4174
  121MOL   H10443544   2.541   3.523   0.694 -0.2299 -0.1356  0.4545
  121MOL   H10543545   2.545   3.259   0.733 -0.1045  0.6277 -0.5193
  121MOL   H10643546   2.717   3.274   0.721  1.2592  1.5944  0.0894
  121MOL   H10743547   2.710   3.418   0.930 -0.9436  0.1458  2.2837
  121MOL   H10843548   2.631   3.259   0.956 -1.2129  1.0981  1.4752
  121MOL   H10943549   2.528   3.374   0.929 -0.4739 -1.2165  0.1427
  121MOL   C11043550   2.647   3.300   0.190  1.0088  0.3459 -0.3424
  121MOL   C11143551   2.691   3.437   0.132  0.3598  0.0146 -0.2775
  121MOL   C11243552   2.840   3.436   0.101 -0.3312 -0.3782 -0.5518
  121MOL   O11343553   2.907   3.529   0.140 -0.3670 -0.2895 -0.1715
  121MOL   O11443554   2.881   3.330   0.027  0.4088 -0.0383 -0.0970
  121MOL   C11543555   3.017   3.295   0.013 -0.0667  0.4602  0.1050
  121MOL   C11643556   3.040   3.153   0.071 -0.5808  0.1330 -0.1743
  121MOL   C11743557   2.969   3.043   7.876  0.6498  0.1207  0.2162
  121MOL   H11843558   2.600   3.245   0.108 -0.0760 -0.0434  0.5279
  121MOL   H11943559   2.732   3.242   0.227 -0.2626 -1.7352 -0.5998
  121MOL   H12043560   2.671   3.508   0.212 -0.5905  0.5764 -0.9922
  121MOL   H12143561   3.059   3.307   7.793  3.1616  1.4275  1.5170
  121MOL   H12243562   3.080   3.358   0.075  1.6986 -2.5186  1.4494
  121MOL   H12343563   3.148   3.134   0.065 -0.8920 -1.5686 -0.7531
  121MOL   H12443564   3.008   3.166   0.175  0.9850  0.9988  0.2299
  121MOL   H12543565   3.005   3.031   7.774 -1.0252  1.2887 -0.5478
  121MOL   H12643566   2.861   3.060   7.869  0.5920  0.8979  2.5233
  121MOL   H12743567   2.976   2.944   0.040 -0.4218 -0.0767 -0.0248
  121MOL   C12843568   2.606   3.486   0.005  0.3919 -0.1608 -0.1543
  121MOL   C12943569   2.577   3.639   7.873  0.2742 -0.3374 -0.0932
  121MOL   C13043570   2.609   3.689   7.733 -0.1452 -0.2629 -0.1235
  121MOL   O13143571   2.694   3.774   7.717 -0.6335 -0.3389  0.3683
  121MOL   O13243572   2.524   3.647   7.640 -0.4518 -0.0306  0.4266
  121MOL   C13343573   2.528   3.695   7.507  0.5658  0.0830 -0.6289
  121MOL   C13443574   2.443   3.824   7.502  0.0703 -0.5836  0.3473
  121MOL   C13543575   2.294   3.813   7.540 -0.0046 -0.2463 -0.1619
  121MOL   H13643576   2.503   3.450   0.012  0.6916 -1.5434 -2.3189
  121MOL   H13743577   2.655   3.448   7.796 -1.0646 -0.5038 -0.8210
  121MOL   H13843578   2.644   3.692   0.060 -1.8418  1.9019  0.3256
  121MOL   H13943579   2.630   3.718   7.478  0.2970 -1.9104 -3.3091
  121MOL   H14043580   2.495   3.627   7.429 -0.5331  1.8860 -1.7751
  121MOL   H14143581   2.499   3.900   7.557  2.6857  0.4195 -3.4595
  121MOL   H14243582   2.441   3.856   7.398  1.6706  0.5388  0.6285
  121MOL   H14343583   2.251   3.913   7.541  0.8789  0.1349  0.1877
  121MOL   H14443584   2.275   3.768   7.638 -0.6410  1.9106  0.7271
  121MOL   H14543585   2.247   3.746   7.468 -0.6495 -1.2387  1.1317
  121MOL   C14643586   2.428   3.680   0.030  0.8660  0.7164 -0.8174
  121MOL   C14743587   2.380   3.683   0.180  0.0707  0.0590  0.1337
  121MOL   C14843588   2.471   3.775   0.270 -0.7754 -0.7290 -0.0218
  121MOL   O14943589   2.450   3.899   0.296  0.3885  0.4148 -0.4183
  121MOL   O15043590   2.584   3.711   0.319  0.3636 -0.2496 -0.0259
  121MOL   C15143591   2.673   3.777   0.409  0.1597  0.1789 -0.2622
  121MOL   C15243592   2.771   3.868   0.335  0.1864 -1.0920  0.2485
  121MOL   C15343593   2.873   3.924   0.432  0.4620 -0.5740  0.4630
  121MOL   H15443594   2.352   3.629   7.851  0.6724  0.0200  0.0132
  121MOL   H15543595   2.415   3.776   7.861  0.9398  1.1760  0.0580
  121MOL   H15643596   2.397   3.589   0.233 -0.2227  0.8942  1.7410
  121MOL   H15743597   2.617   3.830   0.486 -1.2941 -2.0182  0.2593
  121MOL   H15843598   2.722   3.699   0.467  0.4317 -0.3146 -1.1424
  121MOL   H15943599   2.825   3.812   0.258  2.9851  1.3350  0.4005
  121MOL   H16043600   2.720   3.949   0.283  2.5950 -1.3324 -2.6096
  121MOL   H16143601   2.821   3.956   0.523 -0.0535 -2.1465  0.7482
  121MOL   H16243602   2.943   3.996   0.393 -1.3286  0.1510 -1.4928
  121MOL   H16343603   2.929   3.835   0.460  0.6293 -1.2796 -2.0218
  121MOL   C16443604   2.230   3.721   0.185  0.2520 -0.3477  0.0619
  121MOL   C16543605   2.135   3.600   0.189  0.4780 -0.1051 -0.1283
  121MOL   C16643606   2.116   3.550   0.331 -0.5033  0.4781 -0.4257
  121MOL   O16743607   2.168   3.451   0.379  0.4332 -0.3893 -0.0906
  121MOL   O16843608   2.027   3.622   0.396 -0.0080  0.0960  0.1533
  121MOL   C16943609   2.012   3.624   0.542 -0.8773  0.0388 -0.4796
  121MOL   C17043610   2.089   3.735   0.611 -0.4722  0.8607  0.3997
  121MOL   C17143611   2.239   3.722   0.593  0.3840 -0.2948 -0.4454
  121MOL   H17243612   2.207   3.795   0.108  3.3948 -0.9486 -1.5300
  121MOL   H17343613   2.206   3.783   0.271 -0.9588 -1.6723  0.6870
  121MOL   H17443614   2.195   3.520   0.145 -1.2854 -0.7607 -1.3833
  121MOL   H17543615   1.910   3.627   0.579 -0.3896 -0.8863  0.9921
  121MOL   H17643616   2.048   3.528   0.578 -0.6245  0.1931 -0.3155
  121MOL   H17743617   2.059   3.834   0.576  1.5113  1.2003 -0.4047
  121MOL   H17843618   2.066   3.733   0.718  0.2285 -1.6144  0.5359
  121MOL   H17943619   2.284   3.767   0.504  2.9713 -0.0276  0.9463
  121MOL   H18043620   2.279   3.621   0.583 -1.6510 -1.3253  1.4674
  121MOL   H18143621   2.277   3.775   0.681 -0.3285 -0.1619 -0.2166
  121MOL   C18243622   2.007   3.621   0.102  0.1329  0.3931  0.5255
  121MOL   C18343623   2.026   3.625   7.826  0.2665  0.1711  0.0301
  121MOL   C18443624   2.101   3.502   7.776  0.0073 -0.5660 -0.2463
  121MOL   O18543625   2.161   3.505   7.667 -0.5770 -0.6043 -0.2616
  121MOL   O18643626   2.094   3.390   7.853 -0.0237 -0.4553 -0.2421
  121MOL   C18743627   2.154   3.266   7.811  0.3132 -0.0798 -0.0965
  121MOL   C18843628   2.304   3.258   7.852  0.9526 -0.1881  0.5095
  121MOL   C18943629   2.386   3.253   7.729 -0.1004 -0.4726  0.4056
  121MOL   H19043630   1.974   3.717   0.141  0.2695  0.5374  0.2848
  121MOL   H19143631   1.921   3.555   0.116 -0.3450  1.1667  1.2633
  121MOL   H19243632   2.091   3.711   7.811 -0.0304  0.4109  0.1063
  121MOL   H19343633   2.093   3.184   7.848 -0.4984 -0.0823 -1.4112
  121MOL   H19443634   2.145   3.251   7.703 -1.3635 -0.9556  0.1486
  121MOL   H19543635   2.320   3.340   0.041 -0.6334 -0.0132  0.7054
  121MOL   H19643636   2.301   3.170   0.036 -0.6497 -1.0210 -0.6465
  121MOL   H19743637   2.379   3.351   7.682  1.7922 -1.0003 -1.0538
  121MOL   H19843638   2.345   3.201   7.643  0.0385  0.8436 -0.4676
  121MOL   H19943639   2.492   3.234   7.750 -0.0728  1.0706  1.7036
  121MOL   C20043640   1.898   3.645   7.747  0.3290 -0.1229 -0.1393
  121MOL   C20143641   1.910   3.743   7.620 -0.4389  0.7727  0.1675
  121MOL   C20243642   1.786   3.734   7.529  1.1042  0.4932 -0.1722
  121MOL   O20343643   1.691   3.668   7.566  0.3543  0.5815 -0.2840
  121MOL   O20443644   1.802   3.797   7.407  0.4945  0.2645  0.0926
  121MOL   C20543645   1.697   3.804   7.319  0.4744  0.5512  0.1225
  121MOL   C20643646   1.739   3.861   7.180  0.5688  0.8809 -0.4832
  121MOL   C20743647   1.825   3.753   7.111 -1.0505 -0.3273  0.0929
  121MOL   H20843648   1.824   3.689   7.815  1.8466  0.6158  1.0595
  121MOL   H20943649   1.867   3.545   7.717  0.2722  0.7150 -3.0333
  121MOL   H21043650   1.993   3.704   7.562  0.3527  2.5178  0.1088
  121MOL   H21143651   1.662   3.701   7.311  2.9414 -0.2064 -1.3516
  121MOL   H21243652   1.623   3.871   7.363 -2.7706 -1.2336 -2.3495
  121MOL   H21343653   1.654   3.892   7.119  0.5655 -1.1745 -1.5840
  121MOL   H21443654   1.801   3.946   7.206  0.4953  0.9935 -0.6751
  121MOL   H21543655   1.915   3.744   7.171 -0.8009  1.3437 -0.0049
  121MOL   H21643656   1.857   3.789   7.012  0.1086  0.4618  0.7360
  121MOL   H21743657   1.783   3.655   7.092 -0.0684 -1.1847  2.2940
  121MOL   C21843658   1.933   3.893   7.650  0.0220  0.6322 -0.5449
  121MOL   C21943659   1.820   3.988   7.676  0.0869  0.3777 -0.1717
  121MOL   C22043660   1.751   3.969   7.816 -0.3798  0.2339  0.8462
  121MOL   O22143661   1.633   3.931   7.826 -0.0331  0.1821  0.0297
  121MOL   O22243662   1.838   3.977   0.042  0.1486 -0.0841 -0.3623
  121MOL   C22343663   1.792   3.955   0.173 -0.6197  0.8872 -0.4622
  121MOL   C22443664   1.882   4.046   0.258 -0.1825 -0.3404 -0.0595
  121MOL   C22543665   1.870   4.010   0.407 -0.2027 -0.8441  0.0774
  121MOL   H22643666   1.981   3.940   7.565  1.7320 -1.4363 -0.7672
  121MOL   H22743667   2.013   3.911   7.721 -0.3787  0.6616 -0.0979
  121MOL   H22843668   1.747   3.970   7.597 -0.3368 -1.5330  0.6283
  121MOL   H22943669   1.686   3.975   0.186 -0.4076 -0.5948  4.8839
  121MOL   H23043670   1.808   3.856   0.217  0.7151  1.1639 -0.3068
  121MOL   H23143671   1.988   4.039   0.233 -0.1748 -3.6893  0.6440
  121MOL   H23243672   1.869   4.154   0.254 -0.6959 -0.3956  0.0830
  121MOL   H23343673   1.913   3.911   0.421  0.9612  0.1244  3.7543
  121MOL   H23443674   1.765   4.015   0.437 -1.0402 -0.3802 -2.7380
  121MOL   H23543675   1.937   4.072   0.466  0.2422  0.2227 -1.5061
  121MOL   C23643676   1.864   4.142   7.665  0.3572  0.2478  0.0127
  121MOL   C23743677   1.746   4.247   7.634  0.1817 -1.0227 -0.5126
  121MOL   C23843678   1.799   4.389   7.660 -0.0694  0.2561 -0.1149
  121MOL   O23943679   1.899   4.423   7.598  0.4084  0.2044 -0.3827
  121MOL   O24043680   1.728   4.465   7.746  0.5068  0.1044  0.5319
  121MOL   C24143681   1.782   4.582   7.816  0.4638 -0.5608  0.0908
  121MOL   C24243682   1.853   4.536   0.062  0.7963  0.4151  0.4155
  121MOL   C24343683   1.888   4.639   0.167  0.2849  0.4296  0.6413
  121MOL   H24443684   1.942   4.155   7.590 -0.9854  1.0516 -1.2750
  121MOL   H24543685   1.917   4.175   7.754  0.0250 -1.1239  0.7210
  121MOL   H24643686   1.667   4.222   7.705  0.2292  0.4269  0.0757
  121MOL   H24743687   1.848   4.640   7.751  0.1513  0.7003  0.8770
  121MOL   H24843688   1.699   4.645   7.847  1.1500 -0.0314  0.8820
  121MOL   H24943689   1.784   4.460   0.100  0.8456 -0.2048 -0.7257
  121MOL   H25043690   1.937   4.470   0.039  0.1849  0.5963 -2.5374
  121MOL   H25143691   1.808   4.705   0.200  0.0802  2.2543 -3.2474
  121MOL   H25243692   1.965   4.704   0.127 -0.0076  0.2040 -0.3047
  121MOL   H25343693   1.924   4.580   0.251  0.8051 -0.1234  0.0432
  121MOL   C25443694   1.681   4.228   7.492 -0.1440  0.4767  0.5211
  121MOL   C25543695   1.530   4.262   7.464 -0.8927  0.3359 -0.7000
  121MOL   C25643696   1.493   4.410   7.495  0.1404 -0.6943 -0.2166
  121MOL   O25743697   1.417   4.440   7.587  0.6417  0.1561  0.2285
  121MOL   O25843698   1.534   4.501   7.405 -0.0575  0.2737  0.4794
  121MOL   C25943699   1.493   4.639   7.409  0.0028 -0.2852  0.0529
  121MOL   C26043700   1.581   4.718   7.505 -0.7960 -0.3685 -0.5766
  121MOL   C26143701   1.729   4.708   7.477  0.8760  0.2623 -0.5438
  121MOL   H26243702   1.694   4.123   7.466 -0.3774  1.1094 -2.2685
  121MOL   H26343703   1.741   4.282   7.418 -1.3266  2.2490  0.8252
  121MOL   H26443704   1.460   4.204   7.525  0.0241  0.2462  0.2738
  121MOL   H26543705   1.495   4.686   7.310 -0.3704 -1.2858 -0.4369
  121MOL   H26643706   1.386   4.648   7.426 -0.0631  0.5287 -0.7237
  121MOL   H26743707   1.545   4.820   7.516 -1.9141 -0.9942  2.0087
  121MOL   H26843708   1.563   4.684   7.607 -2.9006  1.3206 -0.3472
  121MOL   H26943709   1.747   4.803   7.426  0.7490  0.4429 -0.2571
  121MOL   H27043710   1.760   4.626   7.412  0.8859 -0.2198  0.0653
  121MOL   H27143711   1.777   4.700   7.575  0.7253  0.5060 -0.4482
  121MOL   C27243712   1.485   4.216   7.317  0.0106 -0.4369  0.6605
  121MOL   C27343713   1.341   4.161   7.295 -0.4423 -0.1522 -0.6805
  121MOL   C27443714   1.314   4.029   7.361  0.1312 -0.3745 -0.4191
  121MOL   O27543715   1.292   3.932   7.294  0.2175  0.3431 -0.7537
  121MOL   O27643716   1.328   4.026   7.502 -0.6679  0.0058  0.4738
  121MOL   C27743717   1.319   3.908   7.567 -0.0999 -0.1513 -0.2982
  121MOL   C27843718   1.174   3.890   7.610 -0.3844 -0.7368 -0.3209
  121MOL   C27943719   1.154   3.753   7.680 -0.6768  0.3107  0.5067
  121MOL   H28043720   1.549   4.138   7.275  1.3559  0.6995  0.5413
  121MOL   H28143721   1.509   4.302   7.255  1.7530  0.0119  1.9016
  121MOL   H28243722   1.340   4.160   7.186 -1.1246  0.6237 -0.6901
  121MOL   H28343723   1.359   3.824   7.512  0.3713 -0.2868  0.2503
  121MOL   H28443724   1.376   3.914   7.660 -0.7348 -1.1598  0.1617
  121MOL   H28543725   1.134   3.970   7.671 -1.0715 -1.3981  0.0923
  121MOL   H28643726   1.107   3.895   7.524 -0.6377 -0.5849 -0.1112
  121MOL   H28743727   1.143   3.675   7.604  2.6704 -0.5542  0.8412
  121MOL   H28843728   1.064   3.742   7.740 -1.6125  3.1587 -0.3058
  121MOL   H28943729   1.244   3.724   7.733 -1.2706  0.0491  1.3703
  121MOL   C29043730   1.223   4.259   7.334 -0.0468  0.2085 -0.0500
  121MOL   C29143731   1.079   4.218   7.297  0.4527  0.1278 -0.6164
  121MOL   C29243732   0.980   4.310   7.374 -0.3971  0.4010  0.3422
  121MOL   O29343733   0.898   4.263   7.448  0.4040  0.3631  0.4398
  121MOL   O29443734   1.008   4.442   7.358  0.0252 -0.0301  0.3540
  121MOL   C29543735   0.924   4.537   7.428  0.0067 -0.6747 -0.3223
  121MOL   C29643736   0.962   4.588   7.568  0.2238 -0.9114  0.2490
  121MOL   C29743737   1.110   4.619   7.586 -0.1053 -0.0882 -0.1125
  121MOL   H29843738   1.239   4.357   7.288  0.9765  0.6374  1.1678
  121MOL   H29943739   1.239   4.283   7.439  0.4061  1.0921 -0.3146
  121MOL   H30043740   1.076   4.119   7.342 -0.5250  0.1237 -0.6809
  121MOL   H30143741   0.921   4.624   7.363  3.1804 -1.1375 -1.1996
  121MOL   H30243742   0.823   4.499   7.419 -1.1502  2.0385  0.8764
  121MOL   H30343743   0.896   4.673   7.584  0.0318 -0.6188 -1.9275
  121MOL   H30443744   0.910   4.528   7.643 -2.7137 -0.0028 -0.9912
  121MOL   H30543745   1.158   4.650   7.493  3.1648 -0.9031  1.2460
  121MOL   H30643746   1.161   4.525   7.606  0.9965  0.2302 -1.3488
  121MOL   H30743747   1.132   4.679   7.675  0.4722 -1.4001  0.6328
  121MOL   C30843748   1.038   4.207   7.145  0.0963  0.0012 -0.0910
  121MOL   C30943749   0.910   4.125   7.112  0.3293  0.0171  0.3465
  121MOL   C31043750   0.775   4.200   7.135 -0.2305 -0.3401  0.6040
  121MOL   O31143751   0.764   4.321   7.106 -0.4142 -0.7746 -0.3984
  121MOL   O31243752   0.684   4.114   7.176  0.2228  0.3301  0.6649
  121MOL   C31343753   0.551   4.163   7.206  0.1022  0.3737 -0.3112
  121MOL   C31443754   0.463   4.039   7.239 -0.0240  0.1971 -0.6564
  121MOL   C31543755   0.420   3.987   7.107  0.2848 -0.0052 -0.0084
  121MOL   H31643756   1.120   4.164   7.088  2.4130  2.2885  1.4084
  121MOL   H31743757   1.033   4.305   7.098  1.5158 -0.3614 -1.0212
  121MOL   H31843758   0.906   4.033   7.170  1.9571 -1.2445 -1.4915
  121MOL   H31943759   0.556   4.226   7.295 -2.1979  1.5186 -0.9500
  121MOL   H32043760   0.510   4.225   7.126  0.2290  0.3049 -0.4299
  121MOL   H32143761   0.518   3.968   7.302  0.8284  2.3830  1.1307
  121MOL   H32243762   0.368   4.069   7.285 -0.2756  0.1463 -1.1439
  121MOL   H32343763   0.504   3.959   7.043 -1.8830 -1.7360 -2.2029
  121MOL   H32443764   0.358   3.897   7.112  1.6638 -0.9831 -0.1516
  121MOL   H32543765   0.358   4.064   7.062 -0.1094 -1.0145 -1.2218
  121MOL   C32643766   0.912   4.082   6.964  0.8756  0.2613  0.8458
  121MOL   C32743767   0.987   3.956   6.931  0.7810 -0.1594  0.4332
  121MOL   C32843768   0.915   3.826   6.983 -0.0451 -0.0765 -0.0241
  121MOL   O32943769   0.832   3.762   6.924 -0.1417  0.1049  0.9847
  121MOL   O33043770   0.956   3.789   7.103  0.3263 -0.6176 -0.7617
  121MOL   C33143771   0.920   3.674   7.171 -0.4830  0.0734  0.2256
  121MOL   C33243772   0.980   3.689   7.309 -0.0325 -0.6261 -0.5444
  121MOL   C33343773   0.933   3.576   7.395  0.0234 -0.3160  0.1074
  121MOL   H33443774   0.962   4.160   6.906  0.5058  0.2119  0.4594
  121MOL   H33543775   0.813   4.066   6.921  1.7208 -0.6606 -0.8222
  121MOL   H33643776   1.087   3.972   6.972  2.2341 -1.8402 -2.3057
  121MOL   H33743777   0.814   3.651   7.187 -0.2878 -0.2337  1.1256
  121MOL   H33843778   0.968   3.588   7.125  0.0249 -1.1601  2.9376
  121MOL   H33943779   1.085   3.718   7.312 -0.1402 -0.2888  0.3323
  121MOL   H34043780   0.930   3.770   7.362  0.6959 -0.1803 -0.5273
  121MOL   H34143781   0.971   3.585   7.497 -0.1541 -0.4198  0.1828
  121MOL   H34243782   0.827   3.553   7.386 -0.5639  1.0709  3.1148
  121MOL   H34343783   0.980   3.480   7.370  0.4787  0.3762 -1.8011
  121MOL   C34443784   1.012   3.940   6.780 -0.6000  0.0822  0.1795
  121MOL   C34543785   1.105   3.825   6.741  0.3243  0.0088 -0.0278
  121MOL   C34643786   1.078   3.757   6.613  0.0640 -0.1953  0.0161
  121MOL   O34743787   1.069   3.630   6.602  0.5298 -0.1239 -0.1662
  121MOL   O34843788   1.084   3.840   6.510  0.1360  0.0127 -0.4579
  121MOL   C34943789   1.052   3.794   6.379  0.6570  0.3326  0.1059
  121MOL   C35043790   0.912   3.848   6.337 -0.1643  0.5171 -0.0971
  121MOL   C35143791   0.903   3.833   6.186 -0.1517 -0.8801 -0.0855
  121MOL   H35243792   1.075   4.027   6.761  0.7866 -0.7140  1.0390
  121MOL   H35343793   0.923   3.945   6.717 -0.8073 -2.4299  0.2224
  121MOL   H35443794   1.111   3.744   6.814  1.0232 -0.8730 -1.0487
  121MOL   H35543795   1.129   3.819   6.306  3.5377 -1.7466  2.3158
  121MOL   H35643796   1.052   3.685   6.376 -1.9463  0.3064 -0.4870
  121MOL   H35743797   0.831   3.790   6.382  1.7124 -1.9875  0.1028
  121MOL   H35843798   0.901   3.954   6.361  1.1051  0.3369  1.3876
  121MOL   H35943799   0.806   3.848   6.138  0.2713  0.1383 -0.6383
  121MOL   H36043800   0.968   3.894   6.125 -1.7829  0.6893 -0.2982
  121MOL   H36143801   0.931   3.732   6.157  0.5706 -1.4335  2.4076
  121MOL   H36243802   1.204   3.867   6.724  0.9253 -1.6826 -0.8441
  122MOL     C143803   2.157   0.057   6.492 -0.0063  0.3093  0.0630
  122MOL     C243804   2.085   7.876   6.614  0.5710  0.0792  0.6501
  122MOL     C343805   2.184   7.871   6.733 -0.3894 -0.1066  0.6814
  122MOL     O443806   2.201   7.770   6.795  0.0867  0.4632 -0.1188
  122MOL     O543807   2.243   0.107   6.755  0.5230 -0.4409  0.0672
  122MOL     C643808   2.331   0.119   6.863 -0.5010  0.0384 -0.0114
  122MOL     C743809   2.291   0.243   6.950 -0.5246  0.2516 -0.0635
  122MOL     C843810   2.397   0.263   7.065 -0.4449  0.2853  0.8398
  122MOL     H943811   2.266   0.051   6.492  0.0056 -0.2865  2.7806
  122MOL    H1043812   2.121   0.024   6.394  1.2121 -0.6141 -0.0844
  122MOL    H1143813   2.067   7.771   6.595 -0.8462  0.1109  1.7622
  122MOL    H1243814   2.335   0.028   6.922 -0.6339  0.3490  0.4794
  122MOL    H1343815   2.429   0.150   6.827 -0.7436 -0.4047 -1.0552
  122MOL    H1443816   2.281   0.326   6.881 -0.7703  0.1655 -0.1288
  122MOL    H1543817   2.195   0.223   6.996 -1.8849  1.7156 -2.1980
  122MOL    H1643818   2.476   0.334   7.041 -1.0956  1.3713  1.8967
  122MOL    H1743819   2.349   0.286   7.160 -0.2458 -0.3469  1.0999
  122MOL    H1843820   2.449   0.168   7.078 -0.7869 -0.0983 -0.4554
  122MOL    H1943821   2.141   0.165   6.486  2.5787  0.6174 -2.2421
  122MOL    C2043822   1.951   0.059   6.653  0.3740  0.5541  0.3226
  122MOL    C2143823   1.843   0.034   6.547  0.3306  0.0660  0.6473
  122MOL    C2243824   1.733   7.823   6.605 -0.1771 -0.9970  0.3645
  122MOL    O2343825   1.645   7.866   6.681  0.1781 -0.0108 -0.2862
  122MOL    O2443826   1.758   7.693   6.575 -0.0604 -0.0272  0.2404
  122MOL    C2543827   1.671   7.591   6.605  0.4654 -0.2596 -0.4718
  122MOL    C2643828   1.725   7.451   6.601 -0.0892 -0.2333  0.1439
  122MOL    C2743829   1.859   7.433   6.669 -0.1248 -0.1107  0.2782
  122MOL    H2843830   1.961   0.167   6.646  3.0590  0.4724  2.1791
  122MOL    H2943831   1.922   0.039   6.756  1.3204 -0.9489  0.3209
  122MOL    H3043832   1.882   7.876   6.453 -1.0949  3.6812 -1.5132
  122MOL    H3143833   1.651   7.605   6.711 -1.2860  1.2704 -0.9828
  122MOL    H3243834   1.578   7.608   6.552 -0.4670 -0.5627  1.0370
  122MOL    H3343835   1.652   7.380   6.641  0.9369 -1.1301  0.4822
  122MOL    H3443836   1.742   7.430   6.496 -1.5940  0.7394 -0.2981
  122MOL    H3543837   1.892   7.329   6.662 -1.6569 -0.5312 -1.0224
  122MOL    H3643838   1.862   7.473   6.770 -1.2847  2.1111 -0.5358
  122MOL    H3743839   1.932   7.484   6.606  0.0455 -0.4738  0.1789
  122MOL    C3843840   1.779   0.167   6.497 -0.0299 -0.8137 -0.3127
  122MOL    C3943841   1.654   0.154   6.415  0.2067  0.5096  1.0659
  122MOL    C4043842   1.595   0.295   6.400 -0.5540 -0.9806 -0.3697
  122MOL    O4143843   1.668   0.397   6.422 -0.1705 -0.3558  0.2320
  122MOL    O4243844   1.465   0.284   6.378  0.4312  0.3284  0.2121
  122MOL    C4343845   1.394   0.400   6.355  0.7544 -0.0024  0.2901
  122MOL    C4443846   1.248   0.358   6.330 -0.1672 -0.5710 -0.1928
  122MOL    C4543847   1.172   0.287   6.445 -0.2390 -0.3717  0.6392
  122MOL    H4643848   1.859   0.221   6.446 -1.9777  1.5546 -0.9419
  122MOL    H4743849   1.745   0.225   6.582  0.7378  1.5447 -1.5808
  122MOL    H4843850   1.582   0.107   6.482  0.1481 -1.1919 -0.1543
  122MOL    H4943851   1.407   0.465   6.441  1.3561 -1.2223  1.1199
  122MOL    H5043852   1.438   0.449   6.268 -0.0373  0.4151  0.1168
  122MOL    H5143853   1.190   0.444   6.296  0.3020 -0.4299 -0.6228
  122MOL    H5243854   1.237   0.296   6.242 -3.1401  0.2079 -0.4416
  122MOL    H5343855   1.162   0.333   6.543  0.5702 -2.0131  1.5144
  122MOL    H5443856   1.235   0.200   6.464  0.5254  0.3703  1.5652
  122MOL    H5543857   1.075   0.250   6.413  0.5231 -1.7315 -0.1721
  122MOL    C5643858   1.676   0.081   6.281 -0.0725  0.3443  0.5252
  122MOL    C5743859   1.638   7.816   6.272  0.3984  0.0213 -0.1147
  122MOL    C5843860   1.486   7.799   6.281  0.0804 -0.0830  0.4000
  122MOL    O5943861   1.443   7.750   6.383 -0.2571 -0.2252 -0.2279
  122MOL    O6043862   1.404   7.858   6.178 -0.2833 -0.1436 -0.2199
  122MOL    C6143863   1.261   7.858   6.201  0.2257  0.5289 -0.5730
  122MOL    C6243864   1.207   7.848   6.054 -0.0205  0.1379  0.1253
  122MOL    C6343865   1.230   0.097   5.966 -0.4925 -0.0538  0.2486
  122MOL    H6443866   1.781   0.095   6.254 -0.0835 -0.9126 -0.2150
  122MOL    H6543867   1.617   0.138   6.209 -0.5230  1.4250  1.7429
  122MOL    H6643868   1.682   7.760   6.354 -1.8920 -1.7439 -0.0560
  122MOL    H6743869   1.215   7.778   6.260  3.1152 -0.6076  0.2423
  122MOL    H6843870   1.235   0.075   6.243 -2.2879 -0.0515 -0.7035
  122MOL    H6943871   1.236   7.755   6.006  0.8899 -0.2517  1.4045
  122MOL    H7043872   1.099   7.844   6.067 -0.0292 -0.8241 -0.2095
  122MOL    H7143873   1.191   0.193   5.997 -0.0410 -0.3043  1.6389
  122MOL    H7243874   1.187   0.087   5.867 -0.8318  2.7059  0.0892
  122MOL    H7343875   1.338   0.109   5.956  0.4600 -5.8048  1.7693
  122MOL    C7443876   1.675   7.747   6.137 -0.2831 -0.2697 -0.2808
  122MOL    C7543877   1.824   7.733   6.106  0.5234 -0.4815 -0.2480
  122MOL    C7643878   1.907   7.643   6.200  0.0595 -0.5423  0.0514
  122MOL    O7743879   1.959   7.690   6.303  0.6528 -0.2498  0.6904
  122MOL    O7843880   1.921   7.516   6.149 -0.2456  0.3209  0.6273
  122MOL    C7943881   1.998   7.433   6.227 -0.6940 -0.3050 -0.2296
  122MOL    C8043882   1.953   7.288   6.212  0.4635 -0.2132  1.2009
  122MOL    C8143883   1.970   7.219   6.072 -0.2108 -0.0148 -0.4338
  122MOL    H8243884   1.621   7.790   6.052  0.1542  0.7953 -0.0252
  122MOL    H8343885   1.636   7.645   6.145 -0.0325 -0.2445  1.3107
  122MOL    H8443886   1.856   7.837   6.120 -1.1809 -0.0405  0.4604
  122MOL    H8543887   2.098   7.456   6.191  0.0085 -2.1312  0.4722
  122MOL    H8643888   1.984   7.464   6.331 -0.4413  2.5264 -0.9989
  122MOL    H8743889   2.017   7.218   6.266  0.0754 -1.4515  0.0949
  122MOL    H8843890   1.848   7.283   6.239 -0.1524 -1.9448 -1.3222
  122MOL    H8943891   1.912   7.130   6.049 -0.5647 -0.4690  2.0659
  122MOL    H9043892   2.075   7.198   6.050 -0.0164 -0.6554  1.0782
  122MOL    H9143893   1.942   7.292   5.996  1.6626  1.1760 -0.0267
  122MOL    C9243894   1.842   7.709   5.956  0.0748 -0.4331 -0.2441
  122MOL    C9343895   1.991   7.722   5.909 -0.0335  0.1869  0.0967
  122MOL    C9443896   2.036   7.585   5.847  0.1373  0.9708 -0.4757
  122MOL    O9543897   2.118   7.510   5.909 -0.2217 -0.2567  0.3220
  122MOL    O9643898   1.986   7.559   5.721  0.0557 -0.0315  0.1244
  122MOL    C9743899   2.015   7.433   5.655 -0.0256 -0.3702  0.8135
  122MOL    C9843900   1.918   7.324   5.689  0.1406 -0.2504 -0.2463
  122MOL    C9943901   1.988   7.196   5.654 -0.0267 -0.1073 -0.2627
  122MOL   H10043902   1.776   7.765   5.890  2.4633 -0.4545 -2.7484
  122MOL   H10143903   1.809   7.607   5.936  1.8961 -0.9681 -0.6172
  122MOL   H10243904   2.058   7.739   5.993  0.8912 -0.5505 -0.4709
  122MOL   H10343905   2.012   7.463   5.550 -0.9079  0.2619  1.0226
  122MOL   H10443906   2.118   7.407   5.679 -0.1905 -2.2246 -0.3938
  122MOL   H10543907   1.883   7.333   5.792 -5.1319 -1.8206 -1.7176
  122MOL   H10643908   1.823   7.332   5.636 -0.1838  0.6434  0.4594
  122MOL   H10743909   2.038   7.190   5.557 -0.8690 -0.2365 -0.6961
  122MOL   H10843910   1.920   7.110   5.652  2.2250 -1.9558  0.4621
  122MOL   H10943911   2.064   7.184   5.730  1.0943  3.0644 -0.8129
  122MOL   C11043912   2.027   7.830   5.811  0.3707  0.0302 -0.2799
  122MOL   C11143913   2.036   0.090   5.883  0.2890  0.1732 -0.0444
  122MOL   C11243914   2.147   0.102   5.983  0.8725  0.6987 -0.6138
  122MOL   O11343915   2.237   0.023   5.993 -0.1051 -0.3816  0.2690
  122MOL   O11443916   2.123   0.196   6.068  0.2752  0.0571  0.2468
  122MOL   C11543917   2.210   0.213   6.172  0.3526  0.3244  0.6926
  122MOL   C11643918   2.333   0.298   6.126 -0.6874  0.4198 -0.9187
  122MOL   C11743919   2.300   0.453   6.137 -0.3615 -0.1740 -0.2639
  122MOL   H11843920   1.957   7.838   5.728  0.3291  2.6094 -0.0375
  122MOL   H11943921   2.128   7.824   5.771  1.2529  0.4638  1.7884
  122MOL   H12043922   1.943   0.097   5.939  1.0921  0.9413  1.2109
  122MOL   H12143923   2.153   0.256   6.254  1.4829  3.2143  0.0183
  122MOL   H12243924   2.239   0.116   6.213 -1.2420  0.2681  1.7113
  122MOL   H12343925   2.418   0.273   6.189 -1.2493  0.4928 -0.1359
  122MOL   H12443926   2.354   0.266   6.024  0.7756 -1.4536 -0.0577
  122MOL   H12543927   2.283   0.482   6.241 -0.9521 -1.2185 -0.0591
  122MOL   H12643928   2.214   0.471   6.073  0.5056  0.5130 -1.2470
  122MOL   H12743929   2.376   0.518   6.094 -0.2357  3.1104  4.5850
  122MOL   C12843930   2.029   0.209   5.780 -0.3386 -0.1296 -0.4693
  122MOL   C12943931   2.139   0.218   5.674 -0.8369  0.5525 -0.3505
  122MOL   C13043932   2.089   0.216   5.527  0.6434 -0.6590 -0.3305
  122MOL   O13143933   2.086   0.320   5.463 -0.2918 -0.1497  0.6742
  122MOL   O13243934   2.048   0.099   5.496 -0.0969 -0.3476  0.1598
  122MOL   C13343935   1.972   0.078   5.380 -1.2096 -0.3040 -0.6658
  122MOL   C13443936   1.848   7.863   5.407 -0.1633 -1.4016  0.2853
  122MOL   C13543937   1.882   7.724   5.467  0.1273 -0.4829  0.0978
  122MOL   H13643938   2.008   0.304   5.828 -0.6521 -0.5302  0.1927
  122MOL   H13743939   1.933   0.188   5.732 -0.5783 -1.1639  0.4391
  122MOL   H13843940   2.202   0.130   5.689 -1.1628  0.1692 -1.2125
  122MOL   H13943941   1.936   0.172   5.339 -1.6864 -0.8829 -1.6113
  122MOL   H14043942   2.033   0.029   5.304  0.7616 -1.9176  1.8752
  122MOL   H14143943   1.794   0.030   5.490  1.4396  0.4213  0.3494
  122MOL   H14243944   1.780   7.861   5.323  1.6579 -1.0202 -1.2319
  122MOL   H14343945   1.863   7.722   5.574 -1.7692 -1.7803 -0.2489
  122MOL   H14443946   1.985   7.691   5.447 -0.3751 -1.1378 -1.4996
  122MOL   H14543947   1.813   7.645   5.436 -0.1338 -1.3749  2.8263
  122MOL   C14643948   2.239   0.327   5.708  0.2734 -0.3512 -0.4783
  122MOL   C14743949   2.367   0.345   5.621  0.3868 -0.5208 -0.4987
  122MOL   C14843950   2.419   0.486   5.626  0.2301  0.0621  0.6795
  122MOL   O14943951   2.465   0.546   5.528 -0.3792 -0.2474 -0.4364
  122MOL   O15043952   2.430   0.531   5.757 -0.3870 -0.3602  0.2010
  122MOL   C15143953   2.507   0.647   5.782  0.3081  0.5177  0.5784
  122MOL   C15243954   2.632   0.602   5.865 -0.4373 -0.5139  1.0629
  122MOL   C15343955   2.726   0.716   5.884  1.0249 -0.4568 -0.3119
  122MOL   H15443956   2.272   0.304   5.809  1.0769  0.2929 -0.5925
  122MOL   H15543957   2.180   0.419   5.715  1.0006  0.3053 -2.5416
  122MOL   H15643958   2.340   0.329   5.516 -2.2214 -1.1626  0.2158
  122MOL   H15743959   2.529   0.703   5.691 -0.0061 -1.0151 -0.4632
  122MOL   H15843960   2.454   0.715   5.848  2.4673  1.1458  1.7038
  122MOL   H15943961   2.590   0.557   5.955  1.3657 -2.5118  0.9303
  122MOL   H16043962   2.685   0.528   5.805  0.3460 -0.0004  1.1189
  122MOL   H16143963   2.802   0.690   5.957  2.0500  0.1621 -1.1423
  122MOL   H16243964   2.675   0.801   5.930 -1.0741 -0.3163 -2.7572
  122MOL   H16343965   2.764   0.765   5.794  1.9472  0.8400  0.7629
  122MOL   C16443966   2.484   0.250   5.661 -0.0237 -0.2181 -0.4822
  122MOL   C16543967   2.530   0.130   5.568 -1.0456 -0.3446  0.0528
  122MOL   C16643968   2.545   0.166   5.415 -0.1500  0.3806  0.4344
  122MOL   O16743969   2.656   0.171   5.365 -0.0382 -0.2350  0.0760
  122MOL   O16843970   2.431   0.160   5.352  0.1000 -0.2922  0.3172
  122MOL   C16943971   2.418   0.184   5.212  0.2076  0.2185 -0.0763
  122MOL   C17043972   2.275   0.155   5.158 -0.8671 -0.5956  0.2277
  122MOL   C17143973   2.238   0.251   5.045 -0.2019  0.3954  0.4304
  122MOL   H17243974   2.469   0.210   5.761 -1.5793 -0.0214 -0.6203
  122MOL   H17343975   2.573   0.311   5.672  0.9319 -1.6555 -0.0314
  122MOL   H17443976   2.455   0.051   5.566 -0.1075 -1.3063  1.5819
  122MOL   H17543977   2.470   0.274   5.178 -0.2786  0.8606  0.8760
  122MOL   H17643978   2.478   0.108   5.161 -0.6254 -0.6933  0.2859
  122MOL   H17743979   2.277   0.050   5.128  2.4750 -1.0131  1.7245
  122MOL   H17843980   2.209   0.167   5.244  0.3831  0.6419  1.0323
  122MOL   H17943981   2.145   0.221   4.996  0.0077  2.0182 -1.0211
  122MOL   H18043982   2.311   0.251   4.964  0.1929  0.4292  0.7834
  122MOL   H18143983   2.235   0.356   5.074  0.2416  0.0558  1.7119
  122MOL   C18243984   2.657   0.055   5.626  0.4533 -0.1094 -0.3060
  122MOL   C18343985   2.703   7.803   5.568  0.8176  0.7204  0.5639
  122MOL   C18443986   2.850   7.772   5.592 -0.1058  0.8979 -0.7698
  122MOL   O18543987   2.904   7.829   5.693  0.1076  0.9684  0.6903
  122MOL   O18643988   2.908   7.693   5.504  0.1264  0.6577  0.0230
  122MOL   C18743989   3.037   7.642   5.526  0.3960  0.1216  0.1717
  122MOL   C18843990   3.057   7.518   5.441 -0.2560 -0.3959 -0.2443
  122MOL   C18943991   3.196   7.468   5.442 -0.7176 -0.4542 -0.2261
  122MOL   H19043992   2.632   0.028   5.729 -0.9498 -2.7480 -1.2763
  122MOL   H19143993   2.736   0.122   5.657 -1.6279  2.0696  0.4517
  122MOL   H19243994   2.697   7.816   5.459  0.7498  3.0624  0.8183
  122MOL   H19343995   3.109   7.715   5.488  1.0077 -0.0863  0.9179
  122MOL   H19443996   3.056   7.610   5.628  2.4149 -0.7255 -0.4423
  122MOL   H19543997   2.993   7.442   5.485  1.1328 -1.9031 -0.7842
  122MOL   H19643998   3.038   7.545   5.337 -0.4641 -2.3750 -0.7415
  122MOL   H19743999   3.213   7.398   5.360  2.1485  2.0031 -1.8323
  122MOL   H19844000   3.235   7.426   5.535 -0.5596 -0.3778 -0.2582
  122MOL   H19944001   3.268   7.550   5.437  0.8361 -1.6613  1.6246
  122MOL   C20044002   2.609   7.685   5.596  0.7320  0.1313 -0.2189
  122MOL   C20144003   2.579   7.599   5.476 -0.0359  0.1517  0.4420
  122MOL   C20244004   2.618   7.455   5.495  0.0757  0.7110 -0.0072
  122MOL   O20344005   2.709   7.409   5.424 -0.0834 -0.2753  0.1887
  122MOL   O20444006   2.563   7.389   5.598 -0.4085  0.4393 -0.2572
  122MOL   C20544007   2.597   7.254   5.626 -0.7296 -0.6131 -0.4691
  122MOL   C20644008   2.476   7.168   5.619 -0.1732 -0.0674 -0.1292
  122MOL   C20744009   2.424   7.146   5.474  0.1915  0.9793 -0.1024
  122MOL   H20844010   2.512   7.727   5.621  0.7556  0.0168  0.0655
  122MOL   H20944011   2.643   7.625   5.681 -1.1476 -0.5875  0.0505
  122MOL   H21044012   2.641   7.626   5.391 -0.9381 -0.7269 -0.4980
  122MOL   H21144013   2.656   7.218   5.541 -1.8793 -0.8276 -1.1817
  122MOL   H21244014   2.648   7.226   5.718  0.3694 -0.8212 -1.1233
  122MOL   H21344015   2.506   7.067   5.648 -0.3550 -0.1254 -0.1429
  122MOL   H21444016   2.401   7.206   5.688  2.3904  0.5034  2.4072
  122MOL   H21544017   2.333   7.085   5.470  0.1703  0.9309  0.8731
  122MOL   H21644018   2.493   7.101   5.404 -0.5083 -0.5716  0.1788
  122MOL   H21744019   2.391   7.240   5.430  2.8356  2.2895  0.6108
  122MOL   C21844020   2.438   7.616   5.416 -0.1780  0.3310 -0.5004
  122MOL   C21944021   2.442   7.565   5.266 -0.0315 -0.3791  0.0798
  122MOL   C22044022   2.305   7.512   5.221  0.9321  0.1846  0.4566
  122MOL   O22144023   2.205   7.558   5.272 -0.1221 -0.2952  0.4561
  122MOL   O22244024   2.305   7.426   5.111 -0.1484 -0.3480 -0.1775
  122MOL   C22344025   2.194   7.369   5.051  0.9766  0.0390  0.6057
  122MOL   C22444026   2.257   7.255   4.961 -0.1266  0.1511 -0.2173
  122MOL   C22544027   2.326   7.319   4.837  0.6264  0.0057  0.8642
  122MOL   H22644028   2.396   7.717   5.417 -0.5386  0.1760  0.2586
  122MOL   H22744029   2.375   7.549   5.474  1.0181  1.4712  2.2125
  122MOL   H22844030   2.505   7.477   5.262  0.2062 -0.1605 -1.2078
  122MOL   H22944031   2.126   7.329   5.127 -1.6171  1.4449 -0.9249
  122MOL   H23044032   2.141   7.441   4.989  1.3569  0.0645  0.3072
  122MOL   H23144033   2.320   7.188   5.020  0.7928  0.4733 -0.8109
  122MOL   H23244034   2.170   7.197   4.931  0.1385 -0.2178 -0.2878
  122MOL   H23344035   2.278   7.412   4.808  2.6488  0.9639  0.4551
  122MOL   H23444036   2.328   7.251   4.752 -0.1065 -1.1946  1.7921
  122MOL   H23544037   2.430   7.345   4.859  0.6757  1.5406 -1.0049
  122MOL   C23644038   2.504   7.671   5.174 -0.4227  0.3783 -0.2543
  122MOL   C23744039   2.588   7.602   5.059  0.5577 -0.6930 -0.6058
  122MOL   C23844040   2.554   7.668   4.926 -0.0658 -0.0251  0.7163
  122MOL   O23944041   2.480   7.613   4.848 -0.1875 -0.0044  0.2195
  122MOL   O24044042   2.612   7.792   4.909  0.2577  0.3536 -0.0462
  122MOL   C24144043   2.612   7.851   4.779  0.6632 -0.5037 -0.0825
  122MOL   C24244044   2.714   0.084   4.766 -0.1095  0.4161 -0.1138
  122MOL   C24344045   2.673   0.187   4.657  0.7736  0.2187 -0.0290
  122MOL   H24444046   2.564   7.754   5.210 -1.1724 -0.3926  2.9004
  122MOL   H24544047   2.422   7.730   5.134  1.1328  1.5330 -1.7780
  122MOL   H24644048   2.558   7.499   5.041 -3.2654  0.3634 -0.6893
  122MOL   H24744049   2.638   7.769   4.712  0.8197 -1.8694  1.6092
  122MOL   H24844050   2.507   7.870   4.754 -0.3113  0.4068  4.2880
  122MOL   H24944051   2.699   0.137   4.860 -1.6536 -1.3235  0.6615
  122MOL   H25044052   2.822   0.072   4.765 -0.2026 -0.4822 -0.5905
  122MOL   H25144053   2.680   0.140   4.559  1.8962 -1.7634  0.9739
  122MOL   H25244054   2.735   0.277   4.660  0.6652  0.2697  1.0632
  122MOL   H25344055   2.572   0.220   4.683  0.6656 -1.0331  1.1990
  122MOL   C25444056   2.736   7.592   5.101  0.0412  0.4132 -0.3625
  122MOL   C25544057   2.815   7.529   4.985  0.0202 -0.4605 -0.0809
  122MOL   C25644058   2.901   7.636   4.912  0.3171  0.4475 -0.0035
  122MOL   O25744059   2.902   7.648   4.787 -0.2468 -0.0592  0.0200
  122MOL   O25844060   2.970   7.715   4.994  0.4012  0.4119 -0.7111
  122MOL   C25944061   3.044   7.820   4.929  0.1705 -0.2213 -0.0898
  122MOL   C26044062   3.142   7.880   5.031 -0.1174  0.9715  0.0286
  122MOL   C26144063   3.227   7.767   5.099 -0.5464 -0.5141  0.4709
  122MOL   H26244064   2.751   7.538   5.194 -0.5484  0.8103 -0.0340
  122MOL   H26344065   2.788   7.680   5.139  0.8850 -0.2379  0.0026
  122MOL   H26444066   2.743   7.486   4.916 -1.0114 -0.1376  0.7650
  122MOL   H26544067   3.092   7.792   4.836  1.8088  2.1406 -0.0046
  122MOL   H26644068   2.970   0.014   4.901  0.1502 -0.4151 -0.5553
  122MOL   H26744069   3.216   0.062   4.981  0.3231 -0.2119 -0.8311
  122MOL   H26844070   3.083   0.051   5.106 -1.2444  3.2390 -2.3176
  122MOL   H26944071   3.322   7.815   5.123 -0.5588 -0.1779 -0.1702
  122MOL   H27044072   3.247   7.691   5.024  0.7970  0.1089  0.1730
  122MOL   H27144073   3.190   7.708   5.183 -1.5263  0.4661  0.7351
  122MOL   C27244074   2.910   7.421   5.036 -0.3498 -0.4413  0.0626
  122MOL   C27344075   2.847   7.309   5.118  0.5553  0.6102  0.0487
  122MOL   C27444076   2.737   7.235   5.043 -0.0459 -0.0626 -0.2759
  122MOL   O27544077   2.634   7.200   5.100 -0.1131 -0.5158 -0.3642
  122MOL   O27644078   2.765   7.190   4.916  0.1210  0.2874  0.4212
  122MOL   C27744079   2.670   7.115   4.846 -0.5391 -0.0469  0.4852
  122MOL   C27844080   2.684   6.965   4.888 -0.0993  0.2769 -0.7006
  122MOL   C27944081   2.623   6.864   4.791 -0.1129  0.2327 -0.0326
  122MOL   H28044082   2.990   7.473   5.089 -1.3040  0.1324  0.9538
  122MOL   H28144083   2.961   7.378   4.949  2.5382  2.2334  0.3094
  122MOL   H28244084   2.788   7.353   5.198 -2.4821 -0.5990 -1.4414
  122MOL   H28344085   2.567   7.149   4.857  0.6459  2.9509  2.9490
  122MOL   H28444086   2.704   7.128   4.743  1.2002 -0.5572  0.9774
  122MOL   H28544087   2.791   6.946   4.896 -0.3542 -0.9383  0.0332
  122MOL   H28644088   2.640   6.956   4.987 -0.5247  0.0630 -0.9097
  122MOL   H28744089   2.634   6.762   4.827  1.0502  0.1986 -0.4683
  122MOL   H28844090   2.652   6.874   4.687 -1.9684 -1.8589 -0.7911
  122MOL   H28944091   2.518   6.894   4.783 -0.5550 -1.2385  0.1946
  122MOL   C29044092   2.965   7.209   5.172  0.5096 -0.1060  0.2748
  122MOL   C29144093   2.933   7.110   5.284 -0.2499 -0.0730 -0.0515
  122MOL   C29244094   2.835   6.991   5.245  0.0185 -0.2049 -0.1204
  122MOL   O29344095   2.861   6.920   5.144 -0.1621 -0.3278  0.3359
  122MOL   O29444096   2.726   6.969   5.324 -0.6906 -0.2508  0.0913
  122MOL   C29544097   2.639   6.852   5.317  0.2334  0.5821  0.8117
  122MOL   C29644098   2.646   6.754   5.435 -0.2984 -0.3372  0.0133
  122MOL   C29744099   2.548   6.641   5.410  0.2356  0.7259  0.0526
  122MOL   H29844100   3.044   7.279   5.199  1.3697 -1.5239  1.5284
  122MOL   H29944101   2.999   7.159   5.081  0.1811  1.3838 -0.6901
  122MOL   H30044102   2.872   7.164   5.357  1.1024  2.2744 -0.6207
  122MOL   H30144103   2.532   6.873   5.324 -0.1997 -1.2311 -0.0038
  122MOL   H30244104   2.647   6.798   5.223  0.1650  2.8990 -0.5799
  122MOL   H30344105   2.746   6.712   5.448 -1.0074 -1.8717  0.6588
  122MOL   H30444106   2.629   6.800   5.533  0.2429  0.9841 -0.5094
  122MOL   H30544107   2.569   6.556   5.474 -2.7407 -0.8259 -0.9059
  122MOL   H30644108   2.560   6.598   5.311 -1.0756  1.4920 -0.4525
  122MOL   H30744109   2.447   6.679   5.428  0.2021 -0.3790  2.4029
  122MOL   C30844110   3.057   7.049   5.350 -0.3239  0.0307  0.6141
  122MOL   C30944111   3.028   6.975   5.490 -0.3267 -0.2535  0.6137
  122MOL   C31044112   3.133   6.878   5.539 -0.2689 -0.0736  0.4145
  122MOL   O31144113   3.104   6.782   5.611 -0.0846 -0.3136 -0.2966
  122MOL   O31244114   3.256   6.914   5.488  0.3790 -0.0775  0.2680
  122MOL   C31344115   3.376   6.839   5.536  0.0907  0.5006 -0.4810
  122MOL   C31444116   3.503   6.908   5.505  0.7094  0.0484 -0.5117
  122MOL   C31544117   3.544   7.023   5.597 -0.0090 -0.3360  0.1344
  122MOL   H31644118   3.133   7.123   5.376  1.8941 -0.3902 -4.1672
  122MOL   H31744119   3.109   6.984   5.280  0.5658  0.1358  1.1613
  122MOL   H31844120   2.943   6.913   5.463 -0.7779 -0.0020  1.4280
  122MOL   H31944121   3.362   6.812   5.640  3.2057  0.3399 -0.0705
  122MOL   H32044122   3.388   6.750   5.474  0.3582  1.5223 -1.9290
  122MOL   H32144123   3.586   6.836   5.502  0.7872  0.0637  1.1694
  122MOL   H32244124   3.504   6.955   5.406  2.0587 -0.3230 -0.6917
  122MOL   H32344125   3.479   7.107   5.572  1.2556  0.6317  0.0501
  122MOL   H32444126   3.541   7.007   5.704  0.2837 -0.2741  0.1529
  122MOL   H32544127   3.646   7.053   5.575 -0.3956  1.7332  1.0502
  122MOL   C32644128   2.997   7.089   5.591  0.7461 -0.4217 -0.3332
  122MOL   C32744129   2.946   7.049   5.731  0.0930 -0.1800  0.0296
  122MOL   C32844130   2.941   7.173   5.829 -0.3423 -0.1243 -0.3815
  122MOL   O32944131   2.968   7.170   5.948 -0.1751 -0.4205  0.0610
  122MOL   O33044132   2.892   7.283   5.771  0.5707 -0.1379  0.4803
  122MOL   C33144133   2.888   7.409   5.836 -1.1067 -0.3205 -0.0955
  122MOL   C33244134   2.765   7.423   5.924  0.4592  0.4630 -1.4080
  122MOL   C33344135   2.777   7.519   6.042 -0.2557 -0.2243 -0.1347
  122MOL   H33444136   2.921   7.156   5.552  0.0970 -0.4055  0.9628
  122MOL   H33544137   3.083   7.156   5.595  1.4102 -1.2707 -0.2710
  122MOL   H33644138   3.013   6.985   5.788  2.5045  2.4872  0.3557
  122MOL   H33744139   2.977   7.421   5.897 -0.2981 -0.4232 -1.2301
  122MOL   H33844140   2.899   7.490   5.763  3.2054 -0.1187  0.6478
  122MOL   H33944141   2.681   7.456   5.862  0.0569  1.3219 -0.4094
  122MOL   H34044142   2.726   7.326   5.957  3.0430  0.3542  1.5721
  122MOL   H34144143   2.863   7.499   6.106 -1.1585 -0.3374  1.0544
  122MOL   H34244144   2.787   7.616   5.992 -0.2468 -1.4245 -2.5448
  122MOL   H34344145   2.692   7.525   6.110 -0.6463 -0.6945 -0.5797
  122MOL   C34444146   2.820   6.972   5.729  0.1133  0.3811 -0.1209
  122MOL   C34544147   2.762   6.907   5.856 -0.4892 -0.1186  0.0050
  122MOL   C34644148   2.615   6.935   5.880 -0.4061 -0.2576 -0.3842
  122MOL   O34744149   2.529   6.840   5.871 -0.2555  0.4885 -0.0201
  122MOL   O34844150   2.589   7.061   5.921 -0.5620 -0.0483  0.1358
  122MOL   C34944151   2.456   7.097   5.953  0.6410 -0.2219  0.3611
  122MOL   C35044152   2.450   7.236   6.013 -0.3797 -0.3548  0.3198
  122MOL   C35144153   2.520   7.233   6.153 -0.2539 -0.8005 -0.6219
  122MOL   H35244154   2.822   6.892   5.655  0.5736  1.1719 -0.9776
  122MOL   H35344155   2.738   7.032   5.690 -1.2431 -0.0320  2.0465
  122MOL   H35444156   2.811   6.946   5.946  1.7700  1.5837 -1.9005
  122MOL   H35544157   2.396   7.089   5.863  1.1333 -2.6881  0.2147
  122MOL   H35644158   2.412   7.038   6.034 -0.3193  1.2230  0.9210
  122MOL   H35744159   2.500   7.302   5.943 -0.4059 -0.2806  0.3702
  122MOL   H35844160   2.351   7.283   6.018 -0.2794  0.1149 -1.8680
  122MOL   H35944161   2.603   7.163   6.160 -0.4965 -1.0224  0.0458
  122MOL   H36044162   2.571   7.322   6.190 -2.2599 -0.7817  2.2116
  122MOL   H36144163   2.451   7.205   6.232  1.3066 -0.1405  0.9882
  122MOL   H36244164   2.794   6.802   5.854 -1.6700 -0.5652  2.5695
  123MOL     C144165   5.539   6.168   2.405 -0.1272 -0.5790  0.0880
  123MOL     C244166   5.427   6.203   2.514 -0.0835 -0.4891  0.2634
  123MOL     C344167   5.281   6.164   2.483  0.0998  0.0571  0.8212
  123MOL     O444168   5.197   6.240   2.440 -0.2652 -0.3315 -0.7172
  123MOL     O544169   5.262   6.038   2.511  0.7774 -0.2270  0.4450
  123MOL     C644170   5.133   5.981   2.494  0.0014 -0.1910 -0.2243
  123MOL     C744171   5.046   6.009   2.620  0.3207  0.7369  0.0456
  123MOL     C844172   5.035   5.899   2.715  0.2442 -0.3940 -1.2777
  123MOL     H944173   5.582   6.071   2.433 -0.3800 -0.4799  0.8356
  123MOL    H1044174   5.502   6.186   2.305 -2.9072  1.2080  1.3822
  123MOL    H1144175   5.417   6.312   2.514 -0.6266 -0.5384 -0.4615
  123MOL    H1244176   5.079   6.033   2.415  0.4206  0.8686  0.1767
  123MOL    H1344177   5.151   5.879   2.461  0.2979  0.4945 -2.2604
  123MOL    H1444178   5.079   6.101   2.669  1.0403 -1.0160  2.9487
  123MOL    H1544179   4.942   6.026   2.590 -0.4662  1.7880  3.2242
  123MOL    H1644180   5.012   5.804   2.667 -2.5592 -0.4171 -0.0178
  123MOL    H1744181   5.125   5.892   2.775 -0.4281 -0.9802 -0.3198
  123MOL    H1844182   4.954   5.932   2.780  1.1603 -0.4657 -0.0865
  123MOL    H1944183   5.624   6.235   2.422  0.0205 -0.9200  0.7477
  123MOL    C2044184   5.474   6.155   2.651  0.7037  0.0158 -0.2052
  123MOL    C2144185   5.379   6.184   2.769 -0.2120  1.3551  0.5527
  123MOL    C2244186   5.416   6.109   2.896 -0.5667 -0.3446  0.1098
  123MOL    O2344187   5.532   6.094   2.929  0.1645  0.1137 -0.2156
  123MOL    O2444188   5.310   6.062   2.964 -0.1512  0.0931  0.0524
  123MOL    C2544189   5.326   5.985   3.077  0.7498  0.7751 -0.2085
  123MOL    C2644190   5.194   5.937   3.130  0.3069 -0.5548 -0.1136
  123MOL    C2744191   5.090   6.045   3.177  0.2170 -0.1204 -0.3751
  123MOL    H2844192   5.565   6.210   2.674  0.3527 -0.0383  1.3924
  123MOL    H2944193   5.493   6.048   2.658  1.3717 -0.0039 -2.0621
  123MOL    H3044194   5.278   6.153   2.741 -0.1732 -0.6142  2.4862
  123MOL    H3144195   5.390   5.900   3.052  3.2134  2.2265  0.9636
  123MOL    H3244196   5.385   6.034   3.154  0.9241  0.7976 -0.3571
  123MOL    H3344197   5.151   5.886   3.043  0.1149 -0.8118  0.1318
  123MOL    H3444198   5.208   5.862   3.208  2.0894  0.7687  0.8602
  123MOL    H3544199   4.993   6.003   3.202  0.3568 -0.6323 -0.6923
  123MOL    H3644200   5.085   6.110   3.090  0.2610  0.2641 -0.0945
  123MOL    H3744201   5.127   6.116   3.251 -0.6903  0.0651 -0.1009
  123MOL    C3844202   5.359   6.333   2.804  0.9175 -0.0564 -0.7598
  123MOL    C3944203   5.275   6.370   2.929  0.2713 -0.1620  0.5195
  123MOL    C4044204   5.353   6.419   3.052  0.0351 -0.4891  0.3081
  123MOL    O4144205   5.388   6.536   3.069 -0.1198  0.1188  0.8805
  123MOL    O4244206   5.388   6.319   3.127 -0.1227 -0.3055  0.3184
  123MOL    C4344207   5.465   6.336   3.239  0.4818 -0.4613  0.0194
  123MOL    C4444208   5.409   6.423   3.349 -0.5701 -0.5079 -0.0265
  123MOL    C4544209   5.277   6.387   3.418  0.2747  0.2036  0.0677
  123MOL    H4644210   5.306   6.388   2.725  0.7152  0.6760 -0.1177
  123MOL    H4744211   5.456   6.380   2.815  0.0703  1.1376  1.9970
  123MOL    H4844212   5.214   6.285   2.962 -0.0588  0.0130  0.3589
  123MOL    H4944213   5.478   6.234   3.273 -0.6578 -0.0255  1.8300
  123MOL    H5044214   5.564   6.370   3.209 -0.1487  1.1993 -0.2466
  123MOL    H5144215   5.484   6.443   3.425 -0.7342  0.2855 -0.0633
  123MOL    H5244216   5.387   6.525   3.316  0.1516  0.1363  1.4667
  123MOL    H5344217   5.235   6.470   3.474  0.1667  0.7880 -0.8641
  123MOL    H5444218   5.305   6.312   3.492  2.4249 -0.3849 -1.2827
  123MOL    H5544219   5.198   6.336   3.364 -0.3346  1.4492 -0.2439
  123MOL    C5644220   5.169   6.476   2.895 -0.9356  0.4725 -0.3760
  123MOL    C5744221   5.038   6.426   2.841  0.8291  0.3011  0.4508
  123MOL    C5844222   4.952   6.346   2.940  0.7325 -0.3189  0.4283
  123MOL    O5944223   4.893   6.237   2.912 -0.1951  0.3329 -0.2423
  123MOL    O6044224   4.935   6.408   3.062  0.3105 -0.0110 -0.3290
  123MOL    C6144225   4.887   6.333   3.172  0.1953 -0.2717 -0.0623
  123MOL    C6244226   4.813   6.429   3.271 -0.5812  0.2019 -0.6142
  123MOL    C6344227   4.754   6.377   3.401  0.7809  0.4399 -0.3320
  123MOL    H6444228   5.208   6.560   2.837  1.0750 -1.0232 -1.2520
  123MOL    H6544229   5.146   6.534   2.984 -0.9754 -0.7339  0.4072
  123MOL    H6644230   5.055   6.364   2.753  0.5044  3.1941 -1.7444
  123MOL    H6744231   4.825   6.248   3.145 -1.5628  0.9342  0.1155
  123MOL    H6844232   4.976   6.293   3.220  0.1651 -0.3476 -0.0708
  123MOL    H6944233   4.875   6.512   3.304 -0.0908 -1.2799  2.3529
  123MOL    H7044234   4.727   6.473   3.220 -1.6521  0.8491  1.6785
  123MOL    H7144235   4.829   6.352   3.476  1.4525 -0.5641 -1.3142
  123MOL    H7244236   4.699   6.284   3.387  0.7975  0.4561 -0.5012
  123MOL    H7344237   4.678   6.444   3.443  0.2586 -0.7370  0.6437
  123MOL    C7444238   4.958   6.543   2.776  0.7231  0.7596 -0.3859
  123MOL    C7544239   4.935   6.676   2.859  0.9338 -0.5176  0.0093
  123MOL    C7644240   5.040   6.787   2.834 -0.3479  0.2875 -0.1119
  123MOL    O7744241   5.106   6.787   2.732  0.0048  0.1251 -0.0037
  123MOL    O7844242   5.055   6.871   2.939  0.3757 -0.5413  0.0077
  123MOL    C7944243   5.133   6.992   2.928  0.3853  0.7795  0.5747
  123MOL    C8044244   5.138   7.066   3.064 -0.2681 -0.5905  0.8308
  123MOL    C8144245   5.001   7.127   3.109  0.6099  0.3070  0.0513
  123MOL    H8244246   4.862   6.502   2.744  0.7049 -0.6318  1.3516
  123MOL    H8344247   4.997   6.566   2.677 -0.7533  0.4790 -1.0332
  123MOL    H8444248   4.960   6.638   2.959  0.2483  0.6763  0.6475
  123MOL    H8544249   5.235   6.979   2.893 -0.3051 -0.6339 -0.9821
  123MOL    H8644250   5.090   7.065   2.859  1.2828 -0.4278 -1.3035
  123MOL    H8744251   5.161   6.992   3.142 -0.4494  0.7711  2.2011
  123MOL    H8844252   5.207   7.149   3.053  0.7734 -1.7776 -1.8875
  123MOL    H8944253   5.007   7.235   3.099 -3.0468  0.6375  0.6282
  123MOL    H9044254   4.990   7.095   3.213 -1.2544 -1.6442 -0.6939
  123MOL    H9144255   4.917   7.089   3.050  0.3745 -1.6836  1.6122
  123MOL    C9244256   4.790   6.733   2.854  0.2934 -0.0974 -0.2179
  123MOL    C9344257   4.704   6.701   2.979 -0.0388 -0.1323  0.6371
  123MOL    C9444258   4.733   6.782   3.106 -0.0672 -1.0442 -0.0637
  123MOL    O9544259   4.838   6.852   3.120  0.1108  0.1488  0.4315
  123MOL    O9644260   4.647   6.759   3.210  0.4785 -0.1258 -0.0842
  123MOL    C9744261   4.662   6.828   3.341 -0.6768  0.4770 -0.1124
  123MOL    C9844262   4.526   6.859   3.394  0.2181 -0.0225 -0.9897
  123MOL    C9944263   4.431   6.737   3.405  0.3203  0.7871 -0.0412
  123MOL   H10044264   4.733   6.704   2.766 -0.2547 -1.7821  0.6784
  123MOL   H10144265   4.789   6.840   2.830 -2.6056 -0.5757 -2.5634
  123MOL   H10244266   4.730   6.602   3.016 -1.3898 -0.7412  0.0151
  123MOL   H10344267   4.737   6.780   3.404 -0.1980  1.5585  0.1508
  123MOL   H10444268   4.702   6.925   3.310 -0.4036  0.0179 -1.2312
  123MOL   H10544269   4.533   6.902   3.494 -3.2462  0.7365 -1.0250
  123MOL   H10644270   4.480   6.937   3.333 -2.0570 -1.2777 -0.9306
  123MOL   H10744271   4.407   6.714   3.301 -0.0824  1.7068 -0.1564
  123MOL   H10844272   4.343   6.770   3.460 -0.5874 -1.9609  0.2263
  123MOL   H10944273   4.471   6.651   3.460 -1.4203  1.0275  1.6785
  123MOL   C11044274   4.554   6.704   2.928 -0.3011  0.0824  0.2264
  123MOL   C11144275   4.515   6.560   2.877 -0.0472  0.6480 -0.4767
  123MOL   C11244276   4.494   6.469   2.992  0.5406  0.4280  0.1118
  123MOL   O11344277   4.573   6.382   3.019  0.0746 -0.3405  0.1732
  123MOL   O11444278   4.374   6.486   3.057 -0.2404  0.2015 -0.0743
  123MOL   C11544279   4.328   6.393   3.151  0.0014  0.4546 -0.0965
  123MOL   C11644280   4.176   6.410   3.180 -1.0944 -0.3833 -0.7716
  123MOL   C11744281   4.122   6.316   3.288 -0.3037  0.3449  0.3516
  123MOL   H11844282   4.537   6.782   2.854  2.0247 -0.0183 -0.4428
  123MOL   H11944283   4.486   6.744   3.004  0.5618  3.3735 -0.6884
  123MOL   H12044284   4.589   6.516   2.810  1.0617 -2.4249  2.6611
  123MOL   H12144285   4.334   6.292   3.111 -0.4407 -0.3062  1.7308
  123MOL   H12244286   4.375   6.400   3.249 -0.2776  1.8573 -0.0484
  123MOL   H12344287   4.163   6.510   3.221 -0.7589 -0.8354  0.4659
  123MOL   H12444288   4.126   6.406   3.083 -0.8012 -1.0114 -0.8981
  123MOL   H12544289   4.023   6.347   3.321  0.5976  0.5620  2.9732
  123MOL   H12644290   4.195   6.328   3.368  0.8901 -1.0693 -0.4931
  123MOL   H12744291   4.132   6.214   3.250  0.0116  0.0066  1.3290
  123MOL   C12844292   4.380   6.569   2.794 -1.4937 -0.7723  0.1919
  123MOL   C12944293   4.393   6.600   2.645  1.0361 -0.3946  0.1642
  123MOL   C13044294   4.490   6.503   2.570  0.3140 -0.6235  0.5918
  123MOL   O13144295   4.602   6.535   2.543  0.5457 -0.9191  0.6304
  123MOL   O13244296   4.435   6.378   2.552 -0.1968 -0.4639  0.3819
  123MOL   C13344297   4.515   6.281   2.479 -0.1311 -1.4822  0.4305
  123MOL   C13444298   4.643   6.235   2.550  0.7647  0.1957 -0.3708
  123MOL   C13544299   4.618   6.173   2.689 -0.6455 -0.1116  0.1219
  123MOL   H13644300   4.317   6.647   2.837 -2.1236 -0.2248 -1.6532
  123MOL   H13744301   4.321   6.479   2.781  0.2058 -1.4809 -3.4930
  123MOL   H13844302   4.439   6.698   2.633 -1.7706  0.9752  0.1446
  123MOL   H13944303   4.455   6.192   2.463  2.8770 -3.4521 -0.1438
  123MOL   H14044304   4.534   6.323   2.381 -0.6364 -0.1317  0.8840
  123MOL   H14144305   4.677   6.151   2.490  0.4199  0.7289 -1.3265
  123MOL   H14244306   4.728   6.302   2.552 -0.3919  1.6948 -0.3196
  123MOL   H14344307   4.536   6.104   2.708 -2.0267  1.9448  1.9201
  123MOL   H14444308   4.602   6.254   2.760  1.5613 -1.2028  1.8853
  123MOL   H14544309   4.707   6.122   2.724 -0.0192  0.6100 -0.4192
  123MOL   C14644310   4.256   6.594   2.577  0.1711  0.4303 -0.0344
  123MOL   C14744311   4.160   6.705   2.617 -0.4575 -0.1732 -0.8307
  123MOL   C14844312   4.223   6.843   2.615  0.2624  0.3328 -0.7026
  123MOL   O14944313   4.241   6.901   2.723  0.1547  0.1781 -0.1645
  123MOL   O15044314   4.252   6.887   2.490  0.3288  0.2327 -0.0405
  123MOL   C15144315   4.307   7.017   2.484  0.0767  0.2523 -0.1859
  123MOL   C15244316   4.398   7.033   2.361 -0.0936 -0.1650  0.3079
  123MOL   C15344317   4.516   6.939   2.359  0.5300 -0.2484 -0.0069
  123MOL   H15444318   4.199   6.503   2.592  1.1172 -0.2220 -0.4011
  123MOL   H15544319   4.259   6.618   2.470 -0.1488  0.4392 -0.0435
  123MOL   H15644320   4.135   6.680   2.720 -0.1841 -4.2133 -1.6296
  123MOL   H15744321   4.231   7.094   2.491 -1.3411 -1.1313 -0.1563
  123MOL   H15844322   4.370   7.036   2.571  0.7421 -0.6162 -0.4742
  123MOL   H15944323   4.333   7.018   2.274 -0.3462 -2.9193  0.9275
  123MOL   H16044324   4.438   7.134   2.366  0.5297 -0.3512 -0.8341
  123MOL   H16144325   4.571   6.934   2.265 -0.7719 -0.0097 -0.7803
  123MOL   H16244326   4.482   6.838   2.383 -0.5096  0.8000  3.2063
  123MOL   H16344327   4.585   6.979   2.434 -0.8825  1.5941  0.3362
  123MOL   C16444328   4.016   6.697   2.568 -0.2403  0.0613 -0.7972
  123MOL   C16544329   3.903   6.745   2.671 -0.7396 -0.2612  0.2194
  123MOL   C16644330   3.888   6.899   2.680 -0.4470 -0.6223  0.6130
  123MOL   O16744331   3.846   6.952   2.788 -0.0890  0.0642  0.2967
  123MOL   O16844332   3.937   6.967   2.576 -0.1478  0.0234  0.0066
  123MOL   C16944333   3.938   7.110   2.584 -0.4429  0.4128  0.6519
  123MOL   C17044334   3.815   7.172   2.526 -0.3544  0.0904  0.4618
  123MOL   C17144335   3.795   7.145   2.376  0.1959  0.2690  0.1964
  123MOL   H17244336   3.988   6.592   2.558  0.4371 -0.1055 -0.9532
  123MOL   H17344337   4.009   6.735   2.466  0.2049 -1.0831 -1.2547
  123MOL   H17444338   3.931   6.711   2.771  0.2145 -0.4123 -0.1001
  123MOL   H17544339   3.960   7.146   2.685 -0.3453 -0.3846  0.9211
  123MOL   H17644340   4.019   7.149   2.523  0.0823 -1.9263 -0.2089
  123MOL   H17744341   3.735   7.128   2.584 -0.2114 -1.9728 -0.8710
  123MOL   H17844342   3.823   7.280   2.537  1.5535  0.2435 -1.9093
  123MOL   H17944343   3.703   7.190   2.338  0.5464 -1.9846 -3.5201
  123MOL   H18044344   3.789   7.042   2.343  1.4740  0.5210 -0.8553
  123MOL   H18144345   3.881   7.181   2.320 -0.3680  1.3112 -0.0231
  123MOL   C18244346   3.767   6.670   2.632  0.2525 -0.1020  0.6894
  123MOL   C18344347   3.657   6.670   2.745 -1.0656  0.2843 -0.1646
  123MOL   C18444348   3.524   6.615   2.701 -0.1987  0.1296 -0.4568
  123MOL   O18544349   3.511   6.500   2.660 -0.2487 -0.1252 -0.1776
  123MOL   O18644350   3.420   6.704   2.706 -0.5771 -0.5554  0.4463
  123MOL   C18744351   3.292   6.664   2.661 -0.2650 -0.0180 -0.0664
  123MOL   C18844352   3.200   6.646   2.783 -0.0977  0.0637 -0.0205
  123MOL   C18944353   3.229   6.516   2.859  0.0763  0.0062  0.3373
  123MOL   H19044354   3.778   6.568   2.598 -1.6330 -0.5048  1.2289
  123MOL   H19144355   3.734   6.717   2.540 -2.9704  1.3375  2.4782
  123MOL   H19244356   3.647   6.774   2.777  1.3526  0.2620  0.8146
  123MOL   H19344357   3.258   6.745   2.596  2.5040  0.2151 -1.3087
  123MOL   H19444358   3.296   6.578   2.593  1.4738  0.6767 -0.8648
  123MOL   H19544359   3.199   6.736   2.844  1.6200  0.3539 -0.3743
  123MOL   H19644360   3.102   6.638   2.736  0.0208 -3.3399  0.1762
  123MOL   H19744361   3.141   6.506   2.921  0.4605  1.1941  1.1020
  123MOL   H19844362   3.320   6.528   2.918 -0.2033  1.0090  0.5787
  123MOL   H19944363   3.242   6.431   2.792  1.2211  0.1530  0.3552
  123MOL   C20044364   3.699   6.586   2.864  1.3575 -0.3856 -0.5688
  123MOL   C20144365   3.628   6.637   2.994  0.0090 -0.4480  0.6910
  123MOL   C20244366   3.616   6.521   3.087 -0.5926  0.0472  0.2168
  123MOL   O20344367   3.713   6.471   3.142 -0.7563 -0.7038 -0.2207
  123MOL   O20444368   3.486   6.475   3.111 -0.0535 -0.1113  0.7101
  123MOL   C20544369   3.462   6.375   3.210 -0.6051 -0.8822  0.7735
  123MOL   C20644370   3.455   6.236   3.154 -0.3053 -0.2158 -0.2737
  123MOL   C20744371   3.338   6.228   3.050  0.0033  0.1933  0.2976
  123MOL   H20844372   3.805   6.594   2.889  1.6762 -3.1753 -0.8633
  123MOL   H20944373   3.701   6.479   2.844 -0.5253 -0.5815  0.2362
  123MOL   H21044374   3.525   6.663   2.971  0.5619  0.4478 -0.8982
  123MOL   H21144375   3.535   6.381   3.291 -1.3253  0.0257  1.3713
  123MOL   H21244376   3.371   6.413   3.257 -0.3062  1.7926 -0.7277
  123MOL   H21344377   3.549   6.206   3.108  1.0670  4.1752 -0.5886
  123MOL   H21444378   3.438   6.156   3.226  0.3340 -3.4902 -3.6284
  123MOL   H21544379   3.337   6.129   3.005  0.3886  0.3410 -0.0412
  123MOL   H21644380   3.367   6.292   2.967  1.7672 -1.0799 -0.0942
  123MOL   H21744381   3.250   6.256   3.108  0.1681 -1.0951  1.1770
  123MOL   C21844382   3.699   6.773   3.053 -0.0650 -0.3461 -0.1222
  123MOL   C21944383   3.599   6.883   3.094  0.2924 -0.6377 -0.3487
  123MOL   C22044384   3.499   6.839   3.205  0.1924  0.4482 -0.3399
  123MOL   O22144385   3.527   6.769   3.306  0.1008  0.0443  0.1689
  123MOL   O22244386   3.380   6.897   3.180 -0.3440  0.2026  0.4999
  123MOL   C22344387   3.271   6.868   3.263 -0.4191  0.1576  0.1032
  123MOL   C22444388   3.210   6.729   3.225 -0.0779  0.1572  0.0660
  123MOL   C22544389   3.088   6.690   3.298  0.0799 -0.3119  0.1117
  123MOL   H22644390   3.781   6.801   2.987  0.3009 -1.5816 -0.1988
  123MOL   H22744391   3.744   6.751   3.150  1.4333  1.4963 -0.3653
  123MOL   H22844392   3.534   6.908   3.010  0.7164  1.8020  0.0097
  123MOL   H22944393   3.300   6.870   3.368 -0.6365  0.0103  0.1658
  123MOL   H23044394   3.197   6.945   3.239 -1.5921 -0.9487  0.1505
  123MOL   H23144395   3.194   6.727   3.118 -1.1283 -2.0563  0.2210
  123MOL   H23244396   3.288   6.656   3.246 -1.1594 -1.0487 -0.0050
  123MOL   H23344397   3.047   6.596   3.263  0.4766 -0.5432  0.2702
  123MOL   H23444398   3.010   6.766   3.307  0.6473  0.0449  2.4436
  123MOL   H23544399   3.125   6.665   3.397  1.3610  1.5507  0.1248
  123MOL   C23644400   3.673   7.021   3.125 -0.4470  0.4719  0.6454
  123MOL   C23744401   3.755   7.020   3.259 -0.3261 -0.7184  0.3090
  123MOL   C23844402   3.907   7.036   3.230  0.1681 -0.0436 -0.4682
  123MOL   O23944403   3.962   7.146   3.248  0.0743  0.4792  0.0795
  123MOL   O24044404   3.957   6.929   3.173 -0.1911  0.5125 -0.2861
  123MOL   C24144405   4.101   6.935   3.148 -0.3779  0.7645 -0.0216
  123MOL   C24244406   4.154   6.801   3.110  0.0858 -0.3658 -0.0499
  123MOL   C24344407   4.077   6.732   2.996 -0.5018  0.2634  0.2582
  123MOL   H24444408   3.607   7.105   3.145 -0.1851  0.9163 -0.3276
  123MOL   H24544409   3.737   7.043   3.040  1.1447  0.4631  1.8115
  123MOL   H24644410   3.736   6.927   3.312 -2.0560 -1.4062 -1.4246
  123MOL   H24744411   4.116   7.004   3.065 -0.9993  0.4452 -0.3973
  123MOL   H24844412   4.158   6.975   3.232 -2.5004  0.8785  1.4198
  123MOL   H24944413   4.262   6.801   3.094 -0.0217 -1.3031 -0.8298
  123MOL   H25044414   4.146   6.734   3.196  1.1548 -0.9692 -0.4128
  123MOL   H25144415   4.140   6.666   2.936  1.8217  2.8207 -0.2285
  123MOL   H25244416   4.035   6.810   2.932 -0.8809 -0.4433 -0.3551
  123MOL   H25344417   3.989   6.680   3.034  0.0892  0.2757  1.6800
  123MOL   C25444418   3.716   7.135   3.353 -0.1958 -0.1071 -0.7374
  123MOL   C25544419   3.581   7.112   3.433  1.3011  0.0112  0.6023
  123MOL   C25644420   3.593   7.008   3.548 -0.8882  0.0918  0.2749
  123MOL   O25744421   3.704   6.998   3.599 -0.4501  0.2728  0.3317
  123MOL   O25844422   3.487   6.930   3.568  0.1903  0.6021 -0.3604
  123MOL   C25944423   3.496   6.816   3.659  0.7580  0.0562  0.7098
  123MOL   C26044424   3.381   6.814   3.759  0.3538  0.1755 -0.3130
  123MOL   C26144425   3.242   6.811   3.695 -0.0418  1.9220 -1.1035
  123MOL   H26244426   3.697   7.230   3.303 -0.8368  0.8227  1.2195
  123MOL   H26344427   3.795   7.157   3.424  0.0613 -0.8830 -0.7867
  123MOL   H26444428   3.503   7.075   3.367  1.0685  0.9805  0.3163
  123MOL   H26544429   3.502   6.728   3.595  0.6236  0.6016 -0.0621
  123MOL   H26644430   3.592   6.810   3.710 -1.0015 -1.5684  4.0374
  123MOL   H26744431   3.386   6.728   3.825  0.1303  0.5715  0.2262
  123MOL   H26844432   3.384   6.906   3.818  1.8157  0.3709 -0.6837
  123MOL   H26944433   3.227   6.726   3.628  1.6278 -1.9655  3.2392
  123MOL   H27044434   3.220   6.902   3.638  1.5140  2.6438 -0.5951
  123MOL   H27144435   3.166   6.814   3.772 -0.1272  0.6618 -1.1369
  123MOL   C27244436   3.518   7.241   3.489  0.4404  0.1494 -0.0182
  123MOL   C27344437   3.365   7.236   3.527  0.2575  0.4619 -0.2205
  123MOL   C27444438   3.347   7.288   3.670 -0.3236  0.3559 -0.2298
  123MOL   O27544439   3.342   7.412   3.698  0.0972 -0.0198 -0.5335
  123MOL   O27644440   3.333   7.187   3.755  0.2619  0.0782  0.2307
  123MOL   C27744441   3.299   7.213   3.884 -0.7230  0.8064  0.2537
  123MOL   C27844442   3.153   7.250   3.899  0.0884 -0.2309 -0.0324
  123MOL   C27944443   3.065   7.123   3.883 -0.2302  0.1083  0.0539
  123MOL   H28044444   3.529   7.316   3.411 -1.3553 -0.6518 -1.0578
  123MOL   H28144445   3.576   7.278   3.574  1.4135 -0.1397 -0.5485
  123MOL   H28244446   3.329   7.133   3.525 -1.5049  1.0078  1.7048
  123MOL   H28344447   3.315   7.124   3.946 -1.0671  0.3958 -0.2474
  123MOL   H28444448   3.362   7.293   3.924 -0.2437  0.3139  0.4885
  123MOL   H28544449   3.128   7.292   3.997 -2.3491 -0.9324 -0.3289
  123MOL   H28644450   3.131   7.328   3.826 -0.3961  1.2972  1.7087
  123MOL   H28744451   3.066   7.065   3.975 -0.8888 -1.5828 -0.9953
  123MOL   H28844452   3.090   7.053   3.804  0.0341 -0.6912  0.8361
  123MOL   H28944453   2.962   7.151   3.862 -0.5314 -1.0793 -0.0637
  123MOL   C29044454   3.275   7.316   3.418 -0.3808  0.1239  0.3479
  123MOL   C29144455   3.193   7.221   3.326  0.0517 -0.0125  0.0452
  123MOL   C29244456   3.074   7.163   3.404 -0.2106 -0.2665  0.3801
  123MOL   O29344457   3.050   7.039   3.405 -0.9729  0.7243 -0.1632
  123MOL   O29444458   3.000   7.251   3.467  0.0597  0.6803  0.3094
  123MOL   C29544459   2.883   7.223   3.539  0.8296  0.3518 -0.7558
  123MOL   C29644460   2.809   7.354   3.583  0.0569  1.0136  0.0464
  123MOL   C29744461   2.686   7.345   3.666 -0.4087 -0.2684 -0.1106
  123MOL   H29844462   3.339   7.377   3.355 -0.5601  2.2611  2.1779
  123MOL   H29944463   3.208   7.387   3.468  0.0321 -0.0271  1.1325
  123MOL   H30044464   3.261   7.144   3.292  0.7073  0.6474 -0.1579
  123MOL   H30144465   2.809   7.175   3.475  0.2118 -0.1828  0.3384
  123MOL   H30244466   2.904   7.161   3.626  1.8659  0.6343 -0.8022
  123MOL   H30344467   2.884   7.419   3.628 -1.1853  2.3275  0.2274
  123MOL   H30444468   2.785   7.404   3.489 -3.4538 -0.4188  0.1146
  123MOL   H30544469   2.632   7.440   3.662  0.1041  0.0385  0.2623
  123MOL   H30644470   2.713   7.324   3.769  1.3513  0.3862 -0.4241
  123MOL   H30744471   2.609   7.273   3.638  0.8477 -1.5198 -0.3838
  123MOL   C30844472   3.139   7.300   3.200 -0.1398  0.2936  0.3340
  123MOL   C30944473   3.119   7.212   3.076  0.1376  0.3468  0.2357
  123MOL   C31044474   2.986   7.139   3.070  0.4297  0.4098 -0.4439
  123MOL   O31144475   2.884   7.179   3.122 -0.0309  0.9976  0.3590
  123MOL   O31244476   3.003   7.008   3.031 -0.3477  0.3030 -0.4879
  123MOL   C31344477   2.885   6.926   2.997 -0.6891 -1.1303  0.1745
  123MOL   C31444478   2.911   6.893   2.850 -0.2232  0.7433  0.8309
  123MOL   C31544479   2.821   6.781   2.804  0.5175  0.3510 -0.6287
  123MOL   H31644480   3.213   7.378   3.181  0.0610 -0.5737 -2.8952
  123MOL   H31744481   3.042   7.347   3.212  0.8065  2.3963 -0.1163
  123MOL   H31844482   3.193   7.133   3.088 -2.0975 -2.2011 -1.7147
  123MOL   H31944483   2.888   6.836   3.059 -1.5725 -0.0474  1.8369
  123MOL   H32044484   2.786   6.970   3.012 -1.3736 -1.6154 -2.6240
  123MOL   H32144485   2.913   6.986   2.793  0.1278 -0.8889 -1.8987
  123MOL   H32244486   3.009   6.847   2.832 -0.5406  1.3347 -2.9336
  123MOL   H32344487   2.726   6.827   2.777  0.6700  0.9590 -0.1407
  123MOL   H32444488   2.848   6.724   2.715  0.0931 -1.5288  0.4035
  123MOL   H32544489   2.791   6.709   2.880  0.2234  2.3181  1.1761
  123MOL   C32644490   3.123   7.287   2.941  0.0270 -0.2148 -0.5489
  123MOL   C32744491   3.261   7.336   2.908 -0.5287  0.3229 -0.3038
  123MOL   C32844492   3.358   7.225   2.884  0.1900  0.1083 -0.2126
  123MOL   O32944493   3.468   7.221   2.939 -0.8308 -0.1728 -1.2910
  123MOL   O33044494   3.314   7.137   2.798  0.6370 -0.3403 -0.0374
  123MOL   C33144495   3.389   7.014   2.773 -0.6162 -0.0710  0.1651
  123MOL   C33244496   3.484   7.030   2.655 -0.1661  0.0714  0.0009
  123MOL   C33344497   3.426   7.076   2.525 -0.4960  0.1080  0.2530
  123MOL   H33444498   3.053   7.370   2.954  0.2147  0.2768 -2.4602
  123MOL   H33544499   3.071   7.233   2.861  0.7704 -1.5044 -0.1709
  123MOL   H33644500   3.305   7.395   2.988  1.0763 -0.4019 -0.6245
  123MOL   H33744501   3.442   6.964   2.854 -1.3253 -2.1105 -0.5868
  123MOL   H33844502   3.318   6.932   2.764  0.0669 -0.5058 -1.3356
  123MOL   H33944503   3.550   7.114   2.677  0.0471  0.0502 -0.5405
  123MOL   H34044504   3.542   6.939   2.639 -0.4675  0.2385 -2.1252
  123MOL   H34144505   3.491   7.121   2.449 -2.5082  1.3306 -0.7615
  123MOL   H34244506   3.368   6.997   2.477 -2.3317  1.2640  0.5172
  123MOL   H34344507   3.353   7.154   2.547  0.7118  0.7461  2.1449
  123MOL   C34444508   3.254   7.424   2.779 -1.0220 -0.0398 -0.0666
  123MOL   C34544509   3.383   7.496   2.746  0.4894 -1.0782  0.2477
  123MOL   C34644510   3.377   7.567   2.604  0.2158 -0.3278  0.4320
  123MOL   O34744511   3.336   7.684   2.590 -0.2038 -0.3919 -0.2640
  123MOL   O34844512   3.407   7.475   2.510 -0.2868 -0.3593 -0.1151
  123MOL   C34944513   3.440   7.521   2.377  0.6449  0.1354 -0.3123
  123MOL   C35044514   3.318   7.519   2.280  0.0158  0.3881  0.4230
  123MOL   C35144515   3.239   7.387   2.278  0.2416  0.2555 -1.2708
  123MOL   H35244516   3.184   7.507   2.787  0.6448  1.5587 -1.5970
  123MOL   H35344517   3.218   7.373   2.689 -2.4729 -1.6096  1.3592
  123MOL   H35444518   3.465   7.425   2.756  0.7059 -0.9859 -0.7749
  123MOL   H35544519   3.476   7.623   2.366 -0.2930  0.4134 -0.8326
  123MOL   H35644520   3.509   7.448   2.334 -1.0348 -2.6984  1.6145
  123MOL   H35744521   3.249   7.596   2.313 -1.1461 -0.2359 -0.5194
  123MOL   H35844522   3.350   7.547   2.180  0.5339 -2.1601 -0.1680
  123MOL   H35944523   3.149   7.395   2.216 -2.3223 -0.2391  2.2638
  123MOL   H36044524   3.305   7.314   2.231  0.3639 -0.8356  0.5858
  123MOL   H36144525   3.203   7.353   2.375 -0.6084  2.9803 -0.5822
  123MOL   H36244526   3.404   7.576   2.816 -0.6108  0.5237 -1.2089
  124MOL     C144527   7.397   4.522   3.813  1.3284  0.4698  0.4013
  124MOL     C244528   7.452   4.613   3.699 -0.0635  0.1769 -0.1802
  124MOL     C344529   7.554   4.532   3.619  0.1790 -0.1488 -0.1438
  124MOL     O444530   7.587   4.413   3.650 -0.0106  0.2145  0.2347
  124MOL     O544531   7.602   4.594   3.508 -0.0999 -0.5377  0.0895
  124MOL     C644532   7.666   4.512   3.413  0.2506 -0.1262 -0.2847
  124MOL     C744533   7.718   4.607   3.306 -0.0448 -0.0356  0.2273
  124MOL     C844534   7.614   4.626   3.195  0.0568 -0.9863  0.0554
  124MOL     H944535   7.484   4.508   3.877  1.5067 -1.3673 -0.2243
  124MOL    H1044536   7.324   4.579   3.870  0.0381 -3.1249  2.4265
  124MOL    H1144537   7.516   4.686   3.749  0.4880  0.2073 -0.9170
  124MOL    H1244538   7.745   4.457   3.463 -0.4545  0.2043  1.2444
  124MOL    H1344539   7.608   4.431   3.367 -0.2591  0.4463 -0.6499
  124MOL    H1444540   7.747   4.703   3.350 -0.7177 -0.3841  1.4220
  124MOL    H1544541   7.810   4.576   3.256 -0.1663 -0.7143  0.4238
  124MOL    H1644542   7.532   4.682   3.240 -0.5477 -0.8713 -1.1658
  124MOL    H1744543   7.651   4.687   3.113 -1.5106  0.6147  0.5137
  124MOL    H1844544   7.573   4.538   3.145 -1.1598  0.2922 -1.2342
  124MOL    H1944545   7.367   4.421   3.785  0.4303  0.7711  0.2556
  124MOL    C2044546   7.335   4.682   3.617  0.0188  0.2295 -0.4459
  124MOL    C2144547   7.235   4.581   3.539  0.1289  0.0760  0.0608
  124MOL    C2244548   7.090   4.633   3.564  0.3099  0.6881  0.0011
  124MOL    O2344549   7.067   4.750   3.533  0.0505 -0.2467 -0.3195
  124MOL    O2444550   7.004   4.544   3.611  0.1908  0.0726  0.5886
  124MOL    C2544551   6.868   4.583   3.634 -0.7433 -0.2063 -0.1641
  124MOL    C2644552   6.773   4.486   3.563  0.2048 -0.3452  0.7637
  124MOL    C2744553   6.782   4.339   3.607 -0.1292 -0.3674  0.4210
  124MOL    H2844554   7.391   4.746   3.549 -1.8904  2.3627 -0.0646
  124MOL    H2944555   7.279   4.756   3.672 -1.1678 -1.3435  0.5125
  124MOL    H3044556   7.236   4.482   3.584 -4.7198  0.1281  0.5920
  124MOL    H3144557   6.848   4.579   3.741  0.7988 -0.3590  0.1245
  124MOL    H3244558   6.844   4.684   3.600 -0.6675 -0.7851 -1.9999
  124MOL    H3344559   6.672   4.527   3.564  0.2844 -0.0989 -0.4782
  124MOL    H3444560   6.800   4.495   3.458  0.3040 -4.0068  0.3970
  124MOL    H3544561   6.711   4.271   3.559  1.3890 -0.0580 -2.3708
  124MOL    H3644562   6.777   4.340   3.716  0.3826 -2.8636  0.5018
  124MOL    H3744563   6.877   4.291   3.586 -0.8441 -1.7757  0.3207
  124MOL    C3844564   7.261   4.566   3.391  0.7242  0.1216  0.6836
  124MOL    C3944565   7.223   4.436   3.317 -0.0853  1.2861  0.1238
  124MOL    C4044566   7.333   4.328   3.334 -0.3654 -0.1238 -0.1722
  124MOL    O4144567   7.396   4.281   3.237  0.0481  0.1750  0.3931
  124MOL    O4244568   7.344   4.280   3.458  0.4762  0.1610  0.5003
  124MOL    C4344569   7.444   4.184   3.488 -0.0331 -0.4495  0.0641
  124MOL    C4444570   7.398   4.041   3.473 -0.3901 -0.1444  0.1425
  124MOL    C4544571   7.309   3.988   3.584 -0.0021 -0.8888 -0.0055
  124MOL    H4644572   7.368   4.572   3.373  0.6935  0.4788  0.6150
  124MOL    H4744573   7.221   4.653   3.339  2.1307 -0.7106 -1.8969
  124MOL    H4844574   7.225   4.454   3.209 -1.2519 -1.3491 -0.3827
  124MOL    H4944575   7.532   4.194   3.424  0.3170 -3.2050  0.0260
  124MOL    H5044576   7.475   4.192   3.593 -2.2017  0.5538  0.6549
  124MOL    H5144577   7.348   4.035   3.377  0.4292  2.5026 -0.5093
  124MOL    H5244578   7.492   3.987   3.460  0.5192  1.7810 -1.5636
  124MOL    H5344579   7.240   4.062   3.625  1.0746 -0.4641  1.0579
  124MOL    H5444580   7.367   3.957   3.671 -2.1110 -2.2788  0.9483
  124MOL    H5544581   7.251   3.898   3.564 -0.6305 -0.8713  1.6469
  124MOL    C5644582   7.080   4.377   3.353 -0.5108 -0.2675  0.3680
  124MOL    C5744583   7.026   4.277   3.248  0.3593  0.1027  0.3180
  124MOL    C5844584   7.012   4.136   3.307  0.7511 -0.1031  0.0936
  124MOL    O5944585   7.093   4.052   3.283  0.0148  0.5155  0.4564
  124MOL    O6044586   6.904   4.124   3.390  0.0823  0.0013  0.2303
  124MOL    C6144587   6.870   3.996   3.449 -0.1409 -0.0818  0.3238
  124MOL    C6244588   6.742   3.931   3.395 -0.4075 -0.0650 -0.2402
  124MOL    C6344589   6.680   3.817   3.485 -0.4967  0.2748 -0.3510
  124MOL    H6444590   7.015   4.464   3.363  0.4062  0.6361 -1.3282
  124MOL    H6544591   7.096   4.340   3.455 -0.3498 -1.7945 -0.2132
  124MOL    H6644592   7.094   4.283   3.164  0.7829 -0.1831  0.6406
  124MOL    H6744593   6.942   3.915   3.440  3.0276  2.7736 -0.8703
  124MOL    H6844594   6.843   4.025   3.551 -1.1821  1.4648 -0.3832
  124MOL    H6944595   6.682   4.019   3.373  1.7333  1.2479 -1.0104
  124MOL    H7044596   6.746   3.904   3.289 -2.7284 -1.6850  0.0612
  124MOL    H7144597   6.728   3.720   3.473 -0.4926 -0.0356  1.8741
  124MOL    H7244598   6.584   3.792   3.440 -0.0803 -1.4334 -0.3143
  124MOL    H7344599   6.662   3.827   3.592  0.7781  1.0319 -0.1972
  124MOL    C7444600   6.889   4.315   3.191 -0.5773 -0.2732 -0.0181
  124MOL    C7544601   6.879   4.434   3.087  0.5334  0.6690 -0.5328
  124MOL    C7644602   6.989   4.436   2.976  0.1651 -0.3697 -0.5730
  124MOL    O7744603   7.080   4.524   2.969 -0.3531 -0.3338  0.3791
  124MOL    O7844604   6.974   4.326   2.892  0.0118 -0.4053 -0.3430
  124MOL    C7944605   7.091   4.311   2.809 -0.4436  0.9327  0.0574
  124MOL    C8044606   7.127   4.165   2.801  0.1215  0.4592 -0.7316
  124MOL    C8144607   7.123   4.089   2.930 -0.6520 -0.5043 -0.3589
  124MOL    H8244608   6.831   4.332   3.282  0.0061 -0.1433  0.3281
  124MOL    H8344609   6.846   4.229   3.140  0.3793  0.4188 -2.0515
  124MOL    H8444610   6.894   4.524   3.146 -1.4984  0.7770 -0.1505
  124MOL    H8544611   7.090   4.359   2.711  3.7955 -1.6472 -1.4339
  124MOL    H8644612   7.182   4.356   2.848 -0.7140  1.4857  0.0482
  124MOL    H8744613   7.063   4.107   2.736  0.0245  0.7019 -0.8527
  124MOL    H8844614   7.226   4.147   2.758  1.8511  1.2553  2.6721
  124MOL    H8944615   7.167   3.989   2.931 -0.4610 -0.4282 -1.3456
  124MOL    H9044616   7.022   4.084   2.970 -1.4102  2.1591 -1.8609
  124MOL    H9144617   7.182   4.141   3.007 -1.4232 -1.0283  0.5975
  124MOL    C9244618   6.736   4.439   3.022 -0.5172 -0.0695  0.9431
  124MOL    C9344619   6.619   4.483   3.116 -0.5446 -0.1981  0.0272
  124MOL    C9444620   6.624   4.631   3.144  0.4763  0.4492  0.3344
  124MOL    O9544621   6.648   4.704   3.049  0.0159 -0.0962 -0.0034
  124MOL    O9644622   6.574   4.666   3.263 -0.8319  0.3954  0.0035
  124MOL    C9744623   6.550   4.804   3.288 -0.3590 -0.1699 -0.7095
  124MOL    C9844624   6.608   4.842   3.423 -0.2967 -0.2624  0.6122
  124MOL    C9944625   6.548   4.782   3.545  0.0003  0.2403  0.2288
  124MOL   H10044626   6.713   4.339   2.986  2.1605 -0.1709 -0.6110
  124MOL   H10144627   6.740   4.492   2.927  0.1524 -0.2204  0.8826
  124MOL   H10244628   6.635   4.432   3.212  3.6014 -0.5358 -0.7641
  124MOL   H10344629   6.594   4.868   3.212  0.9955  2.0674  1.8508
  124MOL   H10444630   6.442   4.817   3.282 -0.7612 -3.2511 -0.6577
  124MOL   H10544631   6.713   4.815   3.434 -0.2284 -0.4633 -0.5143
  124MOL   H10644632   6.620   4.950   3.434 -0.6107 -0.3455  1.9090
  124MOL   H10744633   6.454   4.831   3.567 -0.2412  0.5298 -1.3984
  124MOL   H10844634   6.609   4.801   3.634 -0.2144  1.6694  0.0803
  124MOL   H10944635   6.528   4.674   3.544 -1.3147  0.4882 -1.2475
  124MOL   C11044636   6.479   4.443   3.065  0.1334 -0.3602 -0.0430
  124MOL   C11144637   6.389   4.368   3.170 -0.1715 -0.0084 -0.0131
  124MOL   C11244638   6.442   4.222   3.202 -0.1082  0.9570  0.2575
  124MOL   O11344639   6.562   4.202   3.228 -0.2997 -0.4507 -0.3576
  124MOL   O11444640   6.338   4.133   3.190 -0.1388 -0.2140 -0.2419
  124MOL   C11544641   6.359   3.996   3.208 -0.0438  0.4559  0.6592
  124MOL   C11644642   6.322   3.943   3.075 -0.0851 -0.1808 -0.1290
  124MOL   C11744643   6.316   3.794   3.074 -0.2438  0.3717  0.3665
  124MOL   H11844644   6.474   4.391   2.969 -1.1378  1.5135 -1.0081
  124MOL   H11944645   6.426   4.535   3.042  0.4564  0.0787  0.9296
  124MOL   H12044646   6.296   4.354   3.116 -0.2328  3.0310 -0.8019
  124MOL   H12144647   6.461   3.973   3.239 -0.2008 -1.2373 -0.0460
  124MOL   H12244648   6.291   3.975   3.290  0.5196  1.2341  1.3374
  124MOL   H12344649   6.223   3.982   3.051  0.6822  2.7959  1.2584
  124MOL   H12444650   6.388   3.984   2.999  1.4447 -1.0492  0.6905
  124MOL   H12544651   6.415   3.748   3.076 -0.1973  0.4132 -0.6624
  124MOL   H12644652   6.282   3.756   2.978  0.3663 -1.3134  0.7998
  124MOL   H12744653   6.256   3.749   3.153  0.3637  1.5032  1.4887
  124MOL   C12844654   6.359   4.444   3.305 -0.0852  0.5972 -0.3721
  124MOL   C12944655   6.255   4.372   3.392  0.8099  0.4174  0.1630
  124MOL   C13044656   6.237   4.444   3.522  0.2428  0.5239 -0.3992
  124MOL   O13144657   6.260   4.569   3.538  0.0548  0.3380 -0.3847
  124MOL   O13244658   6.196   4.368   3.630 -0.2028  0.0938 -0.2584
  124MOL   C13344659   6.175   4.429   3.755 -0.3115  0.5096 -0.8577
  124MOL   C13444660   6.030   4.450   3.779 -0.4644  0.3172  0.2194
  124MOL   C13544661   5.998   4.456   3.928 -0.1092 -0.5310  0.3703
  124MOL   H13644662   6.326   4.545   3.279 -0.3890  0.4303 -0.6521
  124MOL   H13744663   6.449   4.457   3.364  0.0325 -1.1772 -0.1140
  124MOL   H13844664   6.291   4.272   3.415  0.8178 -0.2854 -2.7633
  124MOL   H13944665   6.203   4.350   3.825 -1.6781  1.4827  0.8462
  124MOL   H14044666   6.231   4.518   3.785  0.3651  0.1921 -1.1738
  124MOL   H14144667   5.996   4.537   3.724 -0.7675 -0.5872 -1.0428
  124MOL   H14244668   5.965   4.371   3.740 -1.6776  1.9626 -1.1672
  124MOL   H14344669   6.022   4.359   3.971  0.2523  1.0306  3.8647
  124MOL   H14444670   5.893   4.483   3.942 -0.2088  1.2560 -3.2418
  124MOL   H14544671   6.065   4.532   3.968 -0.1031  0.2276 -1.0483
  124MOL   C14644672   6.117   4.349   3.321 -0.3232  0.3026  0.3237
  124MOL   C14744673   6.009   4.264   3.394 -0.0498 -0.4465 -0.2415
  124MOL   C14844674   5.877   4.259   3.314  0.4223 -0.7286  0.2566
  124MOL   O14944675   5.855   4.185   3.220  0.1483  0.2601  0.0997
  124MOL   O15044676   5.798   4.363   3.349 -0.0381  0.3164  0.1829
  124MOL   C15144677   5.684   4.390   3.274 -0.3042 -0.1526 -0.0725
  124MOL   C15244678   5.564   4.307   3.321  0.0341 -0.3460 -0.0081
  124MOL   C15344679   5.440   4.383   3.286  0.7319 -0.6777 -0.0337
  124MOL   H15444680   6.123   4.295   3.227  0.0428 -0.8259  0.9897
  124MOL   H15544681   6.086   4.451   3.296 -1.8800 -0.4636 -0.9074
  124MOL   H15644682   5.980   4.298   3.494 -0.6252  1.9086 -1.1938
  124MOL   H15744683   5.655   4.493   3.297 -2.8727 -1.1641  1.4070
  124MOL   H15844684   5.693   4.375   3.167 -0.7926 -1.0412  0.0073
  124MOL   H15944685   5.571   4.212   3.267 -3.4667 -1.1825  0.8522
  124MOL   H16044686   5.570   4.289   3.428 -2.1676 -0.8335  0.0575
  124MOL   H16144687   5.426   4.402   3.179 -1.9411 -3.0509 -0.1444
  124MOL   H16244688   5.432   4.470   3.352 -1.4818 -0.9965  0.1732
  124MOL   H16344689   5.347   4.335   3.318  1.7122 -1.6847  1.3608
  124MOL   C16444690   6.067   4.120   3.410 -0.1488 -0.5327 -0.1840
  124MOL   C16544691   5.984   4.008   3.481 -0.7646  0.9984 -0.2584
  124MOL   C16644692   6.057   3.873   3.471 -0.2556  0.3031 -0.0776
  124MOL   O16744693   6.010   3.781   3.417  0.1463  0.9873  0.2159
  124MOL   O16844694   6.188   3.878   3.527 -0.5195 -0.1306 -0.1369
  124MOL   C16944695   6.275   3.765   3.506 -0.1083 -0.5648  0.3343
  124MOL   C17044696   6.265   3.687   3.638  0.3948  0.3105 -0.1020
  124MOL   C17144697   6.311   3.753   3.764  0.3487 -0.0759  0.0977
  124MOL   H17244698   6.164   4.135   3.456 -0.9416  1.2533  0.9876
  124MOL   H17344699   6.094   4.076   3.314  2.5602 -2.7124  1.5405
  124MOL   H17444700   5.887   3.990   3.434 -0.6109 -4.4899  1.2339
  124MOL   H17544701   6.246   3.706   3.419 -1.0018  0.3330  0.0246
  124MOL   H17644702   6.375   3.801   3.480 -1.1863  2.7836  0.6343
  124MOL   H17744703   6.160   3.666   3.659  0.2090  1.5291  0.2253
  124MOL   H17844704   6.313   3.589   3.641 -0.4815 -0.1617 -0.7967
  124MOL   H17944705   6.415   3.782   3.752  0.2233 -0.7267 -3.2618
  124MOL   H18044706   6.299   3.697   3.856 -0.3503  0.4549  0.3373
  124MOL   H18144707   6.268   3.852   3.784  2.2579  0.8633 -0.3483
  124MOL   C18244708   5.964   4.052   3.630  0.9813  0.0817  0.1769
  124MOL   C18344709   5.870   3.960   3.708 -0.3232  0.1876 -0.2163
  124MOL   C18444710   5.948   3.881   3.821 -0.2676  0.5157 -0.5220
  124MOL   O18544711   5.957   3.762   3.829  0.9901 -0.2485  0.0515
  124MOL   O18644712   5.995   3.968   3.913 -0.0169  0.2574 -0.0960
  124MOL   C18744713   6.058   3.929   4.033 -0.4009  1.2121  0.7177
  124MOL   C18844714   6.111   4.053   4.107 -0.1414  0.2182  1.1544
  124MOL   C18944715   6.178   4.021   4.236 -0.0220  0.4392  0.8499
  124MOL   H19044716   5.914   4.149   3.632 -1.1228 -0.9957  1.3009
  124MOL   H19144717   6.062   4.066   3.677  2.2339  0.0293 -2.2926
  124MOL   H19244718   5.829   3.883   3.643  2.2556 -3.3416  2.1245
  124MOL   H19344719   5.998   3.862   4.095  2.7312 -3.7533 -1.2888
  124MOL   H19444720   6.143   3.870   3.999 -0.7805 -0.1142  2.0348
  124MOL   H19544721   6.178   4.114   4.047 -1.7707  0.7326 -0.1735
  124MOL   H19644722   6.025   4.115   4.129  1.4921  3.0657 -0.1695
  124MOL   H19744723   6.236   4.103   4.279  0.8827 -0.3645  1.1781
  124MOL   H19844724   6.247   3.937   4.234 -1.1106 -0.4189 -1.0537
  124MOL   H19944725   6.104   3.989   4.310 -0.2021 -1.4284 -0.1091
  124MOL   C20044726   5.752   4.048   3.771  0.2038  0.4641 -0.6217
  124MOL   C20144727   5.643   4.099   3.679  0.1718  0.2257 -0.8578
  124MOL   C20244728   5.578   3.981   3.613  0.2863  0.2628  0.3062
  124MOL   O20344729   5.561   3.978   3.489 -0.6379 -0.7210 -0.2576
  124MOL   O20444730   5.543   3.881   3.702  0.3394  0.1862  1.0431
  124MOL   C20544731   5.475   3.765   3.654 -0.1188 -0.4813  0.0584
  124MOL   C20644732   5.568   3.672   3.561 -0.4876  0.3976  0.0333
  124MOL   C20744733   5.661   3.595   3.652 -0.0061 -0.7075  0.0385
  124MOL   H20844734   5.794   4.131   3.828  0.9760 -0.0604 -0.4094
  124MOL   H20944735   5.703   3.999   3.855  2.0149 -1.0840 -0.4159
  124MOL   H21044736   5.691   4.168   3.609  5.0787 -0.6150  1.4278
  124MOL   H21144737   5.442   3.704   3.738 -2.6247 -0.1383 -0.6485
  124MOL   H21244738   5.389   3.804   3.600  0.6511  0.6426 -0.3810
  124MOL   H21344739   5.509   3.613   3.491 -1.1621  1.2166 -0.1099
  124MOL   H21444740   5.634   3.740   3.507  0.0186 -0.5955 -0.5954
  124MOL   H21544741   5.744   3.550   3.597  0.4876 -0.7456  0.8036
  124MOL   H21644742   5.600   3.514   3.693  1.3377 -1.7503  0.0358
  124MOL   H21744743   5.699   3.661   3.729  0.1383 -0.0233 -0.6102
  124MOL   C21844744   5.537   4.185   3.745 -0.2964 -0.0355  0.2064
  124MOL   C21944745   5.591   4.325   3.791  0.0093 -0.5856  0.4845
  124MOL   C22044746   5.598   4.431   3.678  0.2641 -0.0224  0.3004
  124MOL   O22144747   5.707   4.438   3.614 -0.0450 -0.1963  0.2364
  124MOL   O22244748   5.488   4.501   3.659 -0.0385 -0.5013 -0.4039
  124MOL   C22344749   5.501   4.614   3.574  0.7553  0.0141 -0.3436
  124MOL   C22444750   5.363   4.688   3.558  0.7580  0.0484  0.2993
  124MOL   C22544751   5.240   4.596   3.557 -0.1381  1.0262  0.1493
  124MOL   H22644752   5.492   4.130   3.828 -1.4876 -1.1456 -1.1655
  124MOL   H22744753   5.453   4.207   3.679 -0.8458 -0.4251  0.7600
  124MOL   H22844754   5.698   4.318   3.810 -0.1463 -1.4228  1.1091
  124MOL   H22944755   5.580   4.677   3.614  0.0120 -0.0437  1.2307
  124MOL   H23044756   5.532   4.582   3.474  1.2755  0.7134 -0.4068
  124MOL   H23144757   5.343   4.764   3.633 -1.4135 -1.0801  0.9133
  124MOL   H23244758   5.356   4.752   3.470 -0.6281  0.4362  0.6820
  124MOL   H23344759   5.154   4.641   3.508 -0.8652  1.5667  1.9024
  124MOL   H23444760   5.210   4.586   3.661  1.1216  0.6593  0.4960
  124MOL   H23544761   5.263   4.501   3.509  3.0654  1.8812 -0.1232
  124MOL   C23644762   5.519   4.381   3.915 -0.3172 -0.3083 -0.2246
  124MOL   C23744763   5.522   4.301   4.050 -0.0232 -0.1745 -0.5332
  124MOL   C23844764   5.666   4.267   4.103 -1.0396 -0.5206 -0.2410
  124MOL   O23944765   5.712   4.154   4.088 -0.2748 -0.4023 -0.3162
  124MOL   O24044766   5.718   4.380   4.165 -0.2324 -0.2514 -0.3222
  124MOL   C24144767   5.852   4.374   4.217 -0.1717  0.1365  0.2110
  124MOL   C24244768   5.854   4.368   4.374 -0.1453 -1.0501 -0.1962
  124MOL   C24344769   5.832   4.226   4.430 -0.3497 -0.0360  0.5204
  124MOL   H24444770   5.419   4.410   3.885 -0.8097  0.2150  1.8132
  124MOL   H24544771   5.567   4.475   3.943 -0.0676 -0.5950  0.3238
  124MOL   H24644772   5.475   4.204   4.036  0.4477 -0.1425 -2.5033
  124MOL   H24744773   5.905   4.292   4.170  0.9846  0.3841  1.0643
  124MOL   H24844774   5.922   4.454   4.193 -0.6119  0.5948  0.4428
  124MOL   H24944775   5.949   4.408   4.410 -0.5537  1.1619 -1.5176
  124MOL   H25044776   5.770   4.429   4.407 -0.2230 -1.9881  1.4176
  124MOL   H25144777   5.820   4.218   4.538  0.0374  1.1067  0.6569
  124MOL   H25244778   5.918   4.162   4.412 -1.4476 -1.3089 -0.2828
  124MOL   H25344779   5.743   4.184   4.383  0.9814  1.1623 -3.2080
  124MOL   C25444780   5.443   4.374   4.161 -0.5634 -0.3818  0.2353
  124MOL   C25544781   5.430   4.295   4.298  0.3832 -0.8493 -0.8386
  124MOL   C25644782   5.382   4.396   4.401 -0.5531  0.4340  0.2971
  124MOL   O25744783   5.451   4.429   4.500  0.1454 -0.5040 -0.4127
  124MOL   O25844784   5.259   4.427   4.378  0.0515  0.3884  0.5090
  124MOL   C25944785   5.192   4.513   4.467 -0.4702 -0.5933 -0.3282
  124MOL   C26044786   5.139   4.441   4.587  1.1088 -0.4819  0.1354
  124MOL   C26144787   5.080   4.533   4.687  0.0216 -0.8159 -0.4889
  124MOL   H26244788   5.347   4.397   4.116 -0.6490 -1.5821 -0.2284
  124MOL   H26344789   5.492   4.469   4.183 -0.3622  0.0282 -1.8915
  124MOL   H26444790   5.534   4.277   4.323 -0.3327 -3.3655  0.5445
  124MOL   H26544791   5.259   4.594   4.496 -0.1102 -1.5580  1.5801
  124MOL   H26644792   5.105   4.552   4.414 -0.4288 -1.0610 -0.7458
  124MOL   H26744793   5.060   4.371   4.560 -1.0260  1.2423  1.7191
  124MOL   H26844794   5.214   4.389   4.646  0.9009 -0.4193  0.4548
  124MOL   H26944795   5.151   4.609   4.722 -0.4086 -1.0894  1.0378
  124MOL   H27044796   5.051   4.483   4.779 -0.7017 -0.1491 -0.3492
  124MOL   H27144797   4.989   4.576   4.645  1.2166  0.9511 -1.3542
  124MOL   C27244798   5.336   4.166   4.287  0.3574  0.3596 -0.1357
  124MOL   C27344799   5.334   4.066   4.411 -0.1955  0.0363 -0.3559
  124MOL   C27444800   5.214   3.977   4.420 -0.0469 -0.2268 -0.0362
  124MOL   O27544801   5.141   3.951   4.326  0.1224 -0.3089  0.0124
  124MOL   O27644802   5.184   3.937   4.546  0.9460  0.2858 -0.2150
  124MOL   C27744803   5.051   3.899   4.588 -0.5948 -0.6549  0.2151
  124MOL   C27844804   4.984   4.011   4.671 -0.3066 -0.5622 -0.6029
  124MOL   C27944805   4.855   3.953   4.736 -0.1572 -0.3042 -0.2709
  124MOL   H28044806   5.363   4.105   4.200  0.0427  0.3122 -0.2049
  124MOL   H28144807   5.234   4.202   4.273  0.7399  1.4791 -0.1034
  124MOL   H28244808   5.320   4.136   4.493  0.7315  0.6212 -0.6953
  124MOL   H28344809   4.986   3.876   4.503  0.0142 -0.4800 -0.2982
  124MOL   H28444810   5.053   3.806   4.645  1.9783 -1.3926 -1.0167
  124MOL   H28544811   5.033   4.056   4.757 -1.7546  1.3279 -0.7066
  124MOL   H28644812   4.956   4.093   4.604  0.9811 -0.0611 -0.5276
  124MOL   H28744813   4.888   3.867   4.794  1.6545  0.0499 -0.7341
  124MOL   H28844814   4.779   3.936   4.661 -0.7122  0.4348  0.1189
  124MOL   H28944815   4.820   4.023   4.812  1.7133  1.3661 -0.9068
  124MOL   C29044816   5.467   3.998   4.432 -0.4730 -0.2388  0.7893
  124MOL   C29144817   5.495   3.954   4.576 -0.0969  0.2842 -0.3325
  124MOL   C29244818   5.606   3.855   4.578  0.4159  0.5450 -0.0546
  124MOL   O29344819   5.579   3.738   4.618 -0.3687 -0.6108 -0.0885
  124MOL   O29444820   5.714   3.905   4.513  0.8530  0.1704 -0.3083
  124MOL   C29544821   5.826   3.825   4.486 -1.0161 -0.2511 -0.4767
  124MOL   C29644822   5.833   3.828   4.327 -0.4639 -1.0018 -0.7240
  124MOL   C29744823   5.724   3.756   4.249 -0.4996  0.4332 -1.1090
  124MOL   H29844824   5.553   4.056   4.399 -1.9955  2.1548  0.9355
  124MOL   H29944825   5.479   3.915   4.363  1.2986  0.4204  0.2681
  124MOL   H30044826   5.409   3.900   4.616  0.0277 -0.3350 -0.8710
  124MOL   H30144827   5.910   3.876   4.534 -0.0020 -2.7030  0.4095
  124MOL   H30244828   5.827   3.720   4.515  0.7741 -0.4450 -1.1648
  124MOL   H30344829   5.842   3.932   4.297 -0.1345 -1.1401 -1.1114
  124MOL   H30444830   5.924   3.776   4.297 -0.1937  0.1060 -1.8631
  124MOL   H30544831   5.716   3.813   4.156  0.1663  1.4996 -0.5220
  124MOL   H30644832   5.630   3.764   4.304  0.0568 -0.4583 -0.0324
  124MOL   H30744833   5.756   3.654   4.228  2.0435  0.8210  0.6467
  124MOL   C30844834   5.516   4.076   4.667 -0.4763  0.8766 -0.1007
  124MOL   C30944835   5.503   4.042   4.815 -0.3346  0.1920  0.0291
  124MOL   C31044836   5.538   4.172   4.891  0.2273  0.3222 -0.4723
  124MOL   O31144837   5.619   4.163   4.985  0.1777  0.2842  0.6506
  124MOL   O31244838   5.469   4.279   4.867 -0.1934 -0.2049 -0.1103
  124MOL   C31344839   5.480   4.404   4.934 -0.2278 -0.1643 -0.2658
  124MOL   C31444840   5.376   4.500   4.872 -0.3906  0.8660 -0.2290
  124MOL   C31544841   5.361   4.641   4.931  0.1961 -0.0966  0.3885
  124MOL   H31644842   5.442   4.154   4.647 -1.3813 -0.8631 -4.0647
  124MOL   H31744843   5.620   4.107   4.659  0.3484 -1.5693  0.6746
  124MOL   H31844844   5.563   3.958   4.851 -1.0508  0.0088  0.8159
  124MOL   H31944845   5.444   4.386   5.035  1.6147  0.3999  0.5191
  124MOL   H32044846   5.583   4.435   4.919  0.0281 -1.4331 -1.3092
  124MOL   H32144847   5.393   4.523   4.767 -3.3674  0.4613 -0.8237
  124MOL   H32244848   5.278   4.453   4.876  0.0945 -0.0445  1.0845
  124MOL   H32344849   5.308   4.705   4.860  0.1946 -0.7165 -0.1686
  124MOL   H32444850   5.313   4.633   5.028  0.2127  1.4041  0.5354
  124MOL   H32544851   5.456   4.694   4.941  0.3808 -0.3079 -0.2175
  124MOL   C32644852   5.357   3.998   4.855 -0.1425  0.4545  0.7215
  124MOL   C32744853   5.333   3.987   5.005 -0.3644  0.3350 -0.4981
  124MOL   C32844854   5.182   4.006   5.037  0.1616 -0.3317  0.1972
  124MOL   O32944855   5.088   3.944   4.989 -0.4999  0.4428  0.7283
  124MOL   O33044856   5.171   4.093   5.137 -0.0301  0.2440 -0.1444
  124MOL   C33144857   5.046   4.124   5.194  0.1817  0.1180  0.3256
  124MOL   C33244858   4.983   4.246   5.113 -0.2591  0.0462  0.3791
  124MOL   C33344859   5.070   4.368   5.105 -0.6468  0.0263 -0.0893
  124MOL   H33444860   5.328   3.907   4.801  2.4448 -0.6593  1.1199
  124MOL   H33544861   5.284   4.068   4.814 -0.3334 -0.5485 -0.6983
  124MOL   H33644862   5.371   4.077   5.051 -3.4122  2.3641 -1.7504
  124MOL   H33744863   4.978   4.040   5.205 -0.8509  1.0616  1.2602
  124MOL   H33844864   5.069   4.163   5.293  1.6700 -4.1132  1.7721
  124MOL   H33944865   4.961   4.217   5.010 -0.3497  4.0420 -0.8148
  124MOL   H34044866   4.887   4.273   5.156 -1.7024  0.5965 -3.0398
  124MOL   H34144867   5.069   4.410   5.205 -2.1976 -0.4188  0.0900
  124MOL   H34244868   5.168   4.353   5.060 -0.8281 -0.9408 -0.1895
  124MOL   H34344869   5.027   4.448   5.045  1.6565  0.7695 -0.7965
  124MOL   C34444870   5.399   3.853   5.060 -0.2495  0.0027  0.9198
  124MOL   C34544871   5.418   3.845   5.218  0.0559 -0.4539 -0.2143
  124MOL   C34644872   5.552   3.888   5.274 -0.6425 -0.3556  0.1867
  124MOL   O34744873   5.652   3.821   5.247  0.3144 -0.3235  0.3574
  124MOL   O34844874   5.563   4.006   5.337  0.1075 -0.3390  0.3121
  124MOL   C34944875   5.687   4.052   5.384 -0.3780  0.1596  0.4012
  124MOL   C35044876   5.734   4.172   5.299 -0.1443 -0.5469 -0.9223
  124MOL   C35144877   5.861   4.230   5.349  0.9921  0.4086 -0.2392
  124MOL   H35244878   5.502   3.845   5.025 -1.3107 -2.5820 -1.7549
  124MOL   H35344879   5.346   3.765   5.024 -0.3275  0.4485 -0.0745
  124MOL   H35444880   5.408   3.745   5.260 -3.1351 -2.0501 -4.4333
  124MOL   H35544881   5.680   4.078   5.489 -0.6462 -0.8029  0.6206
  124MOL   H35644882   5.753   3.965   5.381  0.0745  0.5194 -0.4283
  124MOL   H35744883   5.744   4.144   5.194  0.1408 -0.9098 -0.7983
  124MOL   H35844884   5.657   4.247   5.315  0.7184 -0.4459  3.3550
  124MOL   H35944885   5.940   4.160   5.322  1.0980 -0.1631  1.5318
  124MOL   H36044886   5.879   4.331   5.312  0.6049  0.4824 -0.2332
  124MOL   H36144887   5.862   4.241   5.457  1.2396  3.4553 -0.5191
  124MOL   H36244888   5.340   3.903   5.269 -1.0868 -2.1077 -0.0330
  125MOL     C144889   5.639   3.040   1.596  0.3950  0.3054  0.2941
  125MOL     C244890   5.640   2.904   1.675 -0.1932 -0.4676 -0.2687
  125MOL     C344891   5.507   2.817   1.663 -0.0215  0.3866 -0.1250
  125MOL     O444892   5.434   2.830   1.566 -0.9615 -0.1349  0.1000
  125MOL     O544893   5.479   2.729   1.769  0.8283 -0.2925  0.4231
  125MOL     C644894   5.355   2.661   1.776  0.9623  0.0603  0.9248
  125MOL     C744895   5.340   2.561   1.662  0.5177 -0.2003  0.4161
  125MOL     C844896   5.457   2.453   1.663  0.2614  0.4755  0.5214
  125MOL     H944897   5.677   3.030   1.495 -2.0159  1.6462 -0.7951
  125MOL    H1044898   5.541   3.087   1.601 -0.0186 -0.6029  0.9876
  125MOL    H1144899   5.656   2.928   1.780 -3.2756  3.6530 -0.6182
  125MOL    H1244900   5.352   2.610   1.872  2.0421  0.0256  0.9516
  125MOL    H1344901   5.271   2.730   1.762 -0.4845 -2.2683 -2.4848
  125MOL    H1444902   5.242   2.514   1.669  0.3437  0.3886  2.2487
  125MOL    H1544903   5.331   2.604   1.562 -0.0591  0.2059  0.6407
  125MOL    H1644904   5.460   2.394   1.755  0.5477 -1.2790 -0.5833
  125MOL    H1744905   5.444   2.379   1.584 -1.4007 -1.5222  2.5913
  125MOL    H1844906   5.554   2.501   1.650  0.3131 -0.0379 -1.1402
  125MOL    H1944907   5.712   3.104   1.646 -1.5761  1.9227  1.1962
  125MOL    C2044908   5.753   2.820   1.615 -0.0257 -0.0147  0.2285
  125MOL    C2144909   5.896   2.871   1.658 -0.1362 -0.2938 -0.2365
  125MOL    C2244910   5.916   2.858   1.807 -0.4740  0.5832  0.1672
  125MOL    O2344911   5.899   2.957   1.883  0.1889  0.0212 -0.0772
  125MOL    O2444912   5.968   2.745   1.846  0.2180  0.6401  0.2050
  125MOL    C2544913   6.010   2.727   1.981  0.1631 -0.0414 -0.1349
  125MOL    C2644914   6.012   2.571   1.997  0.2597 -0.0583 -0.3409
  125MOL    C2744915   6.067   2.525   2.129 -0.9301 -0.2071 -0.5031
  125MOL    H2844916   5.736   2.812   1.507  0.4828 -1.0885  0.2270
  125MOL    H2944917   5.746   2.717   1.649 -2.0919  0.5398  1.5490
  125MOL    H3044918   5.891   2.975   1.624 -1.4061  0.0084  0.8083
  125MOL    H3144919   6.109   2.769   1.996  0.3077 -0.9729  1.6323
  125MOL    H3244920   5.936   2.779   2.042  0.4766 -1.0965  1.1518
  125MOL    H3344921   5.916   2.523   1.983  0.4062 -0.0959 -1.2228
  125MOL    H3444922   6.068   2.527   1.915  2.6205  0.2818  1.0239
  125MOL    H3544923   6.014   2.557   2.219 -0.9049  0.7886 -0.8381
  125MOL    H3644924   6.168   2.565   2.140 -0.4972 -1.3116 -0.3752
  125MOL    H3744925   6.087   2.418   2.123  2.1927  0.3073 -0.2836
  125MOL    C3844926   5.998   2.789   1.574  0.0307 -0.1202  0.3728
  125MOL    C3944927   6.140   2.844   1.550 -0.1434 -0.4494  0.3875
  125MOL    C4044928   6.228   2.861   1.677 -0.0979  0.3355 -0.0612
  125MOL    O4144929   6.238   2.973   1.728  0.3706  0.1243 -0.6560
  125MOL    O4244930   6.271   2.741   1.723  0.5701  0.1071  0.5538
  125MOL    C4344931   6.348   2.746   1.844  0.3231 -1.0998  0.3486
  125MOL    C4444932   6.377   2.609   1.900 -1.3788 -1.1035 -0.2454
  125MOL    C4544933   6.500   2.536   1.835  0.2687 -0.5220  0.4381
  125MOL    H4644934   5.960   2.773   1.473 -1.0714  0.5968  0.6639
  125MOL    H4744935   6.002   2.685   1.606 -1.4298 -0.3068 -0.0325
  125MOL    H4844936   6.117   2.943   1.510 -0.1089 -0.5316  0.1637
  125MOL    H4944937   6.442   2.794   1.818  0.5127 -0.4363  2.2140
  125MOL    H5044938   6.295   2.797   1.924 -0.5345 -1.2787 -0.0934
  125MOL    H5144939   6.388   2.631   2.006  1.2259 -0.9734 -0.5073
  125MOL    H5244940   6.298   2.535   1.891 -1.2473 -1.2443 -0.2445
  125MOL    H5344941   6.520   2.439   1.879  0.5267 -0.2639  0.8887
  125MOL    H5444942   6.593   2.593   1.828 -0.0201  0.1122  1.6422
  125MOL    H5544943   6.482   2.509   1.731  5.5280  0.4401 -0.8751
  125MOL    C5644944   6.212   2.771   1.442  0.3841 -0.2234  0.1193
  125MOL    C5744945   6.261   2.875   1.337  0.8143 -0.3337 -0.0671
  125MOL    C5844946   6.382   2.958   1.385 -0.0883  0.4750  0.7124
  125MOL    O5944947   6.371   3.082   1.383 -0.6887  0.9972 -0.0967
  125MOL    O6044948   6.486   2.891   1.425  0.2252 -0.3009  0.1128
  125MOL    C6144949   6.601   2.966   1.462  0.2960  0.1149  0.0394
  125MOL    C6244950   6.709   2.851   1.483  0.5883 -0.2529  0.1254
  125MOL    C6344951   6.677   2.756   1.602 -0.4277 -0.2095  0.0568
  125MOL    H6444952   6.149   2.702   1.387 -0.2844  0.4416  0.0346
  125MOL    H6544953   6.303   2.717   1.468  0.2248 -1.5053 -1.9159
  125MOL    H6644954   6.178   2.941   1.314  0.2615 -1.2264 -0.6940
  125MOL    H6744955   6.622   3.021   1.370  1.5393  1.8308  1.3325
  125MOL    H6844956   6.597   3.037   1.544  2.9213  1.4467 -0.9274
  125MOL    H6944957   6.729   2.789   1.396 -0.3035  0.8464 -0.8701
  125MOL    H7044958   6.809   2.895   1.487  1.3874 -1.5083 -3.8693
  125MOL    H7144959   6.659   2.804   1.698  1.2092 -1.7580  1.1764
  125MOL    H7244960   6.758   2.683   1.607 -2.4741 -2.6741 -1.6112
  125MOL    H7344961   6.583   2.702   1.593 -1.8195  2.2448 -0.2298
  125MOL    C7444962   6.304   2.799   1.205 -0.1039 -0.4880 -0.5807
  125MOL    C7544963   6.192   2.776   1.103 -0.1341  1.1171 -0.2830
  125MOL    C7644964   6.178   2.899   1.015 -0.1408 -0.4640  0.3707
  125MOL    O7744965   6.242   2.914   0.911  0.0513  0.0019  0.3820
  125MOL    O7844966   6.101   3.000   1.069 -0.0014 -0.1671  0.1055
  125MOL    C7944967   6.055   3.116   1.002 -0.1714  0.0657  0.8962
  125MOL    C8044968   6.162   3.234   1.006  0.1232 -0.1921  0.5481
  125MOL    C8144969   6.171   3.278   1.146 -0.0318 -0.8695 -0.0587
  125MOL    H8244970   6.340   2.705   1.246  1.6815  0.6420  0.4763
  125MOL    H8344971   6.391   2.840   1.155 -0.5107  0.7741 -0.2564
  125MOL    H8444972   6.096   2.785   1.153  0.1224 -1.6816  0.7714
  125MOL    H8544973   6.031   3.088   0.899  0.4973 -0.7289  0.9584
  125MOL    H8644974   5.962   3.152   1.045 -0.3859 -1.8510  2.0866
  125MOL    H8744975   6.261   3.210   0.966  0.5584 -0.6329  1.8473
  125MOL    H8844976   6.121   3.315   0.946  1.7351  0.5071  0.3697
  125MOL    H8944977   6.254   3.230   1.196  0.2546  0.3691  0.6835
  125MOL    H9044978   6.075   3.284   1.199 -1.0810  2.8125 -2.1667
  125MOL    H9144979   6.188   3.386   1.152 -0.9791 -0.7338  0.3206
  125MOL    C9244980   6.204   2.632   1.030  0.2371  0.5546  0.0939
  125MOL    C9344981   6.137   2.511   1.107 -0.8475  0.2613  0.0147
  125MOL    C9444982   5.986   2.510   1.103  0.0172  1.3570 -0.1694
  125MOL    O9544983   5.928   2.496   0.994 -0.0118 -0.1040  0.5122
  125MOL    O9644984   5.931   2.512   1.222 -0.1464 -0.1009 -0.2331
  125MOL    C9744985   5.787   2.492   1.242  0.0645 -0.4037 -0.2697
  125MOL    C9844986   5.769   2.400   1.360 -0.2691 -0.1734 -0.4663
  125MOL    C9944987   5.804   2.473   1.489  0.0139 -0.4382 -0.3067
  125MOL   H10044988   6.308   2.612   1.007  0.2230 -0.0094  0.5270
  125MOL   H10144989   6.170   2.640   0.927  1.9562  0.7771 -0.4725
  125MOL   H10244990   6.169   2.517   1.211 -0.3504 -1.9478  0.0107
  125MOL   H10344991   5.732   2.584   1.263  0.1886 -0.1857 -0.9109
  125MOL   H10444992   5.740   2.437   1.161  1.0836 -1.7343  0.0275
  125MOL   H10544993   5.666   2.367   1.366 -0.1696 -1.2351 -3.7388
  125MOL   H10644994   5.830   2.311   1.341  0.8768  0.3315  0.7121
  125MOL   H10744995   5.913   2.466   1.497  0.2086  0.7203 -1.7365
  125MOL   H10844996   5.770   2.431   1.583 -0.4842  1.8773  0.5852
  125MOL   H10944997   5.768   2.576   1.491  1.2461  0.0157 -0.7643
  125MOL   C11044998   6.187   2.377   1.057  0.8986  0.0147  0.2284
  125MOL   C11144999   6.344   2.350   1.074  0.1365 -0.0271  0.4357
  125MOL   C11245000   6.389   2.370   1.225 -0.4705 -0.4240  0.2281
  125MOL   O11345001   6.471   2.453   1.252 -0.3714 -0.0907  0.0564
  125MOL   O11445002   6.332   2.286   1.302 -0.2048  0.4978  0.6879
  125MOL   C11545003   6.346   2.285   1.443 -0.4569  0.1397 -0.0131
  125MOL   C11645004   6.211   2.323   1.510  0.0358 -0.1854 -0.4274
  125MOL   C11745005   6.226   2.420   1.626 -0.3095  0.1460  0.3031
  125MOL   H11845006   6.159   2.358   0.954  2.2272 -0.1240 -0.1245
  125MOL   H11945007   6.139   2.308   1.126  0.1476  0.5838  0.2908
  125MOL   H12045008   6.402   2.424   1.018  1.4617 -1.3735  0.0087
  125MOL   H12145009   6.368   2.180   1.462 -0.6031  0.2116  0.5477
  125MOL   H12245010   6.439   2.329   1.480 -0.2316 -0.6855  0.4059
  125MOL   H12345011   6.143   2.374   1.442 -0.2623  0.3424  0.2700
  125MOL   H12445012   6.147   2.238   1.532 -2.9828  0.8336 -4.6138
  125MOL   H12545013   6.266   2.375   1.716  0.8434  0.2287 -0.1655
  125MOL   H12645014   6.134   2.476   1.648  0.6978  2.1173 -0.3839
  125MOL   H12745015   6.302   2.494   1.602 -0.9305  0.9650  0.8090
  125MOL   C12845016   6.394   2.210   1.021  0.4780 -0.6659  0.2466
  125MOL   C12945017   6.412   2.205   0.866 -0.6062  0.1010  0.7541
  125MOL   C13045018   6.525   2.299   0.822  0.6528  0.2099 -0.6813
  125MOL   O13145019   6.497   2.404   0.764  0.1568  0.3150  0.0773
  125MOL   O13245020   6.643   2.267   0.858 -0.2137 -0.2328  0.1432
  125MOL   C13345021   6.757   2.340   0.815  0.1714  0.6857 -0.1599
  125MOL   C13445022   6.876   2.337   0.915  0.6213  0.1691 -0.6561
  125MOL   C13545023   6.919   2.194   0.957 -0.4600  0.1857  0.6498
  125MOL   H13645024   6.332   2.131   1.062 -1.2762 -0.5849 -2.1232
  125MOL   H13745025   6.493   2.187   1.060  0.4144 -0.3994  0.5651
  125MOL   H13845026   6.320   2.241   0.820  0.8451  1.9454 -0.7290
  125MOL   H13945027   6.805   2.304   0.724  0.5172  0.8163 -0.0328
  125MOL   H14045028   6.732   2.443   0.790 -2.2518  0.1904  0.1221
  125MOL   H14145029   6.960   2.393   0.874  0.9246  0.4619  0.3336
  125MOL   H14245030   6.844   2.399   0.998 -2.1850 -1.4789 -0.4411
  125MOL   H14345031   6.977   2.213   1.048  0.5810  1.9562 -0.3459
  125MOL   H14445032   6.979   2.153   0.875 -0.4354  0.0517  0.7353
  125MOL   H14545033   6.842   2.124   0.986 -0.0542  0.6506  2.9564
  125MOL   C14645034   6.441   2.056   0.829  0.2336  0.4411 -0.7850
  125MOL   C14745035   6.434   2.010   0.681  0.0746  0.5348 -0.6605
  125MOL   C14845036   6.304   2.039   0.608 -0.4029 -0.5471  0.3024
  125MOL   O14945037   6.275   2.152   0.569 -0.2926  0.0002  0.0818
  125MOL   O15045038   6.224   1.928   0.601  0.0421 -0.0163 -0.1876
  125MOL   C15145039   6.119   1.937   0.506  0.4898 -0.4952  0.0511
  125MOL   C15245040   6.032   1.815   0.530  0.4620  0.8534  0.9103
  125MOL   C15345041   5.953   1.819   0.666  0.4458 -0.2407 -0.2129
  125MOL   H15445042   6.363   1.998   0.878  1.1899  0.8251  1.2738
  125MOL   H15545043   6.533   2.026   0.879  0.3276  0.8560 -0.7085
  125MOL   H15645044   6.442   1.901   0.691 -0.4365  0.6690  1.4747
  125MOL   H15745045   6.060   2.028   0.510  1.6690  0.3299 -1.1128
  125MOL   H15845046   6.165   1.929   0.408  1.0012 -1.4053  0.3554
  125MOL   H15945047   5.973   1.792   0.442  0.9357  1.1160  0.5188
  125MOL   H16045048   6.099   1.732   0.554  0.0911  0.8135  1.8134
  125MOL   H16145049   5.891   1.730   0.667 -2.9105  1.9874 -1.1545
  125MOL   H16245050   5.886   1.904   0.680 -2.4259 -2.0609 -2.2355
  125MOL   H16345051   6.012   1.825   0.757  1.1983  1.1483 -0.7566
  125MOL   C16445052   6.557   2.059   0.597 -0.2320  0.0674 -0.1147
  125MOL   C16545053   6.609   1.983   0.479  0.6007 -0.6059 -0.1899
  125MOL   C16645054   6.626   1.834   0.504 -0.0257  0.6567  0.0454
  125MOL   O16745055   6.730   1.801   0.564  0.3760  0.1278 -0.1188
  125MOL   O16845056   6.520   1.751   0.468 -0.2747 -0.5314 -0.3012
  125MOL   C16945057   6.529   1.619   0.504  0.0049 -0.5866  0.1758
  125MOL   C17045058   6.388   1.551   0.484 -0.9405  0.4256  0.5532
  125MOL   C17145059   6.336   1.586   0.341  0.9798  0.2096  0.8147
  125MOL   H17245060   6.637   2.055   0.671 -0.4623  2.7144  0.2968
  125MOL   H17345061   6.539   2.163   0.571  2.5757  0.7313  0.5212
  125MOL   H17445062   6.708   2.029   0.485  0.8931 -1.2724  0.1184
  125MOL   H17545063   6.597   1.564   0.438 -2.8160 -2.8812 -0.9003
  125MOL   H17645064   6.567   1.592   0.602 -1.2586 -0.0143  0.8259
  125MOL   H17745065   6.408   1.443   0.487  0.6481  0.7194  1.6938
  125MOL   H17845066   6.311   1.557   0.561 -2.0877  0.5335 -0.5947
  125MOL   H17945067   6.305   1.690   0.336  0.8363  0.1091 -0.6117
  125MOL   H18045068   6.258   1.517   0.309 -1.3690  3.0895  0.1355
  125MOL   H18145069   6.416   1.586   0.267 -0.1257  1.7413 -0.4149
  125MOL   C18245070   6.524   2.018   0.350 -1.0047  0.1054  0.0408
  125MOL   C18345071   6.603   1.992   0.229 -0.6612  0.6942  0.3974
  125MOL   C18445072   6.547   1.867   0.166  0.1406  0.3466  0.0561
  125MOL   O18545073   6.607   1.763   0.159 -0.9002 -0.3366 -0.5686
  125MOL   O18645074   6.423   1.884   0.115  0.5302 -0.5545 -0.2485
  125MOL   C18745075   6.359   1.784   0.028 -0.0088 -0.0930  0.6495
  125MOL   C18845076   6.211   1.812   0.039  1.1804  0.2873  0.3909
  125MOL   C18945077   6.160   1.924   7.828 -0.0834  1.4118 -0.3201
  125MOL   H19045078   6.491   2.122   0.345 -1.8178 -0.0521  1.6820
  125MOL   H19145079   6.423   1.978   0.361 -1.1636  0.7206  0.9296
  125MOL   H19245080   6.705   1.965   0.257  0.0111  1.2607 -1.4832
  125MOL   H19345081   6.386   1.807   7.805 -2.0212 -1.0166 -0.1047
  125MOL   H19445082   6.399   1.683   0.042  1.1827  0.0635 -1.3388
  125MOL   H19545083   6.165   1.727   7.868  1.4801  1.3025 -1.5915
  125MOL   H19645084   6.173   1.823   0.140 -0.4444  0.1341 -0.1759
  125MOL   H19745085   6.209   2.020   7.841  0.5814  1.3407 -2.1251
  125MOL   H19845086   6.058   1.955   7.850 -0.9173  1.1650 -3.5028
  125MOL   H19945087   6.157   1.881   7.728 -1.0630 -2.1209  1.1472
  125MOL   C20045088   6.617   2.104   0.125 -0.3531  0.0086 -0.2442
  125MOL   C20145089   6.746   2.189   0.149 -0.4039  1.0243 -0.1169
  125MOL   C20245090   6.875   2.110   0.101 -0.2917 -0.3082 -0.2126
  125MOL   O20345091   6.909   2.112   7.862  0.1827  0.2211  0.8133
  125MOL   O20445092   6.941   2.054   0.197 -0.4822 -0.4798 -0.0783
  125MOL   C20545093   7.048   1.960   0.164 -0.0462  0.3681 -0.5329
  125MOL   C20645094   7.088   1.884   0.292  0.1475  0.3648 -0.2941
  125MOL   C20745095   7.012   1.752   0.312  0.0612 -0.6259  0.0273
  125MOL   H20845096   6.529   2.168   0.123 -1.1101 -1.0363 -1.2817
  125MOL   H20945097   6.621   2.052   0.029 -0.3498 -0.5357  0.0477
  125MOL   H21045098   6.765   2.186   0.256  1.7091  1.7621 -0.4451
  125MOL   H21145099   7.007   1.904   0.080  1.6271 -0.5771 -0.7345
  125MOL   H21245100   7.130   2.026   0.134  0.4853 -0.2443 -0.4356
  125MOL   H21345101   7.196   1.870   0.300  0.1782  0.3161 -0.7667
  125MOL   H21445102   7.062   1.945   0.378 -1.8615 -0.4588 -0.3027
  125MOL   H21545103   6.907   1.764   0.287  0.3561  3.4617  0.3491
  125MOL   H21645104   7.003   1.722   0.416 -0.1652  1.4869  0.6451
  125MOL   H21745105   7.053   1.670   0.253  0.8588  0.0367 -0.3441
  125MOL   C21845106   6.736   2.338   0.107 -0.2000  0.0203 -0.5362
  125MOL   C21945107   6.790   2.433   0.213 -0.5301  0.2768  0.1340
  125MOL   C22045108   6.703   2.433   0.334  0.0277  0.1286 -0.0934
  125MOL   O22145109   6.754   2.410   0.444 -0.1913 -1.1519  0.0359
  125MOL   O22245110   6.576   2.464   0.301 -0.0868  0.7651 -0.9576
  125MOL   C22345111   6.478   2.459   0.403 -0.3233  0.5611 -1.0929
  125MOL   C22445112   6.356   2.399   0.342  0.7581  0.2661  0.0508
  125MOL   C22545113   6.287   2.494   0.237  0.0808 -0.1966  0.5132
  125MOL   H22645114   6.634   2.366   0.083 -0.7347 -1.5518 -0.1518
  125MOL   H22745115   6.790   2.359   0.014  1.2286 -0.7760  0.1064
  125MOL   H22845116   6.765   2.535   0.183 -4.6309 -1.2788 -2.1533
  125MOL   H22945117   6.503   2.403   0.493 -2.3432 -0.0691 -0.8963
  125MOL   H23045118   6.458   2.559   0.442  1.1330 -0.3070  2.0947
  125MOL   H23145119   6.376   2.299   0.306 -2.0405 -0.0552 -0.7681
  125MOL   H23245120   6.278   2.391   0.419  0.8855 -0.9018  0.0581
  125MOL   H23345121   6.342   2.489   0.143 -1.0288  0.5208 -0.1827
  125MOL   H23445122   6.288   2.596   0.275  0.2078  0.8050 -2.0682
  125MOL   H23545123   6.188   2.467   0.202 -0.4289  0.3287  1.5465
  125MOL   C23645124   6.942   2.410   0.245 -1.0610 -0.0962  0.1688
  125MOL   C23745125   7.046   2.430   0.127  0.3861  0.1726  0.4612
  125MOL   C23845126   7.016   2.564   0.070 -0.0486  0.1900 -0.1674
  125MOL   O23945127   6.933   2.577   7.859  0.0286  0.8959 -0.0516
  125MOL   O24045128   7.074   2.665   0.140  0.2546 -0.0821 -0.4336
  125MOL   C24145129   7.035   2.798   0.128  0.3522 -0.1721  0.4453
  125MOL   C24245130   6.965   2.848   0.260 -0.3722  0.4645 -0.1732
  125MOL   C24345131   6.814   2.805   0.257  0.0826  0.9205 -0.0259
  125MOL   H24445132   6.960   2.310   0.284  0.3477  0.4018  0.8398
  125MOL   H24545133   6.979   2.484   0.316 -1.0299  2.0919 -2.0509
  125MOL   H24645134   7.022   2.355   0.051 -2.1415  0.0454  1.3340
  125MOL   H24745135   7.125   2.858   0.115 -0.7033  0.8812 -2.4041
  125MOL   H24845136   6.978   2.818   0.037 -0.7486  2.0184  1.5794
  125MOL   H24945137   7.017   2.805   0.345 -1.7038 -0.9388 -0.0433
  125MOL   H25045138   6.985   2.955   0.268  1.2243  0.0767  1.1782
  125MOL   H25145139   6.776   2.803   0.156 -0.0658  3.5699 -0.0479
  125MOL   H25245140   6.765   2.874   0.325  1.1648  2.0857 -0.4180
  125MOL   H25345141   6.814   2.704   0.299 -3.3695  0.4635 -1.0079
  125MOL   C25445142   7.188   2.397   0.177 -0.0760 -0.2459  0.4531
  125MOL   C25545143   7.284   2.329   0.082 -0.5121  0.4692 -0.5659
  125MOL   C25645144   7.345   2.420   7.855  0.4027  0.6970  0.4637
  125MOL   O25745145   7.431   2.503   7.880  0.8359 -0.1769 -0.0579
  125MOL   O25845146   7.289   2.409   7.743  0.3991 -0.0431  0.0852
  125MOL   C25945147   7.325   2.490   7.640 -0.4613  0.3697  0.0082
  125MOL   C26045148   7.242   2.622   7.648  0.5020 -0.4831 -0.2696
  125MOL   C26145149   7.254   2.718   7.521  0.0252 -0.2285 -0.1434
  125MOL   H26245150   7.182   2.323   0.257 -0.9520  1.4503  2.0084
  125MOL   H26345151   7.231   2.488   0.222 -2.7808  1.6694 -0.7107
  125MOL   H26445152   7.229   2.249   0.031 -1.3746  0.5708  0.1845
  125MOL   H26545153   7.433   2.509   7.640  0.0031 -2.1806  0.5553
  125MOL   H26645154   7.306   2.430   7.551  1.1451  0.1860 -0.2218
  125MOL   H26745155   7.135   2.599   7.647  0.6640 -1.2390 -0.1702
  125MOL   H26845156   7.266   2.681   7.737 -0.0100 -0.9397  0.1701
  125MOL   H26945157   7.215   2.662   7.436  0.5927 -0.7455 -0.0674
  125MOL   H27045158   7.361   2.733   7.502 -0.0523 -2.3278 -2.5735
  125MOL   H27145159   7.219   2.820   7.538  1.4691  0.3161 -0.2730
  125MOL   C27245160   7.401   2.254   0.157 -0.2579  0.1593  0.1541
  125MOL   C27345161   7.486   2.167   0.071 -0.0965 -1.1104 -0.0597
  125MOL   C27445162   7.610   2.126   0.149  0.3277  0.1917 -1.1648
  125MOL   O27545163   7.717   2.124   0.087  0.6316 -0.1477  0.1562
  125MOL   O27645164   7.588   2.098   0.281  0.5999 -0.1297  0.1824
  125MOL   C27745165   7.706   2.071   0.357  0.9772  0.4987  0.1480
  125MOL   C27845166   7.788   2.192   0.383  0.4350 -0.1451 -0.1096
  125MOL   C27945167   0.013   2.187   0.498  0.0459  0.2458  0.6361
  125MOL   H28045168   7.368   2.204   0.248 -1.4690  0.3318 -0.1832
  125MOL   H28145169   7.468   2.334   0.190 -0.5419  0.0824  0.9157
  125MOL   H28245170   7.534   2.235   0.000  1.4323  0.7812  2.7175
  125MOL   H28345171   7.678   2.035   0.456  0.5617 -0.8821 -0.4582
  125MOL   H28445172   7.772   2.001   0.307  0.3819  0.9400 -1.2860
  125MOL   H28545173   7.841   2.221   0.292 -0.8443 -3.1634 -1.8791
  125MOL   H28645174   7.732   2.283   0.407 -3.1836 -2.1681 -0.6025
  125MOL   H28745175   0.036   2.286   0.537  1.2688  0.3449 -0.2940
  125MOL   H28845176   0.106   2.139   0.466 -0.7952  0.4796 -2.3395
  125MOL   H28945177   7.837   2.136   0.577 -3.0082  0.9908 -0.9828
  125MOL   C29045178   7.400   2.053   0.006  0.7443 -0.1653 -0.5692
  125MOL   C29145179   7.476   1.983   7.774  0.6037 -0.0409  0.3791
  125MOL   C29245180   7.402   1.849   7.748  0.0649 -0.2884 -0.2609
  125MOL   O29345181   7.454   1.734   7.750 -0.2577 -0.1072 -0.9207
  125MOL   O29445182   7.270   1.876   7.716 -0.1477 -0.0341 -0.1620
  125MOL   C29545183   7.184   1.771   7.680  0.2664  0.5845  0.1967
  125MOL   C29645184   7.056   1.805   7.607  0.3980 -0.5851 -0.3807
  125MOL   C29745185   6.973   1.674   7.576 -0.1303  0.1204  0.3062
  125MOL   H29845186   7.311   2.087   7.833  1.2988  0.9583 -0.7791
  125MOL   H29945187   7.368   1.984   0.084  0.3026 -1.0329 -1.5002
  125MOL   H30045188   7.573   1.963   7.818  0.0754 -0.3487  1.4177
  125MOL   H30145189   7.239   1.714   7.606  1.8743  1.1159  0.9639
  125MOL   H30245190   7.163   1.706   7.765  1.3645  2.7571  2.1859
  125MOL   H30345191   7.004   1.866   7.681  1.3238 -1.1396  0.7580
  125MOL   H30445192   7.068   1.876   7.525  1.1089 -0.0818  0.1480
  125MOL   H30545193   6.964   1.610   7.664 -3.0553 -0.3390 -0.2719
  125MOL   H30645194   7.026   1.615   7.501 -0.3162  1.0467 -0.5481
  125MOL   H30745195   6.873   1.689   7.534 -0.6904 -2.3698  0.6559
  125MOL   C30845196   7.494   2.068   7.645 -0.2023 -0.1855 -0.3637
  125MOL   C30945197   7.608   2.019   7.546  0.3397  0.0097 -0.2526
  125MOL   C31045198   7.590   2.075   7.406  0.2225  0.6072  0.1364
  125MOL   O31145199   7.562   2.200   7.390 -1.0715  0.2364 -0.3896
  125MOL   O31245200   7.600   1.987   7.307 -0.0208  0.3724 -0.7962
  125MOL   C31345201   7.582   2.029   7.174 -0.4987 -0.7127  0.2085
  125MOL   C31445202   7.634   1.920   7.079 -0.6202 -0.5892  0.0235
  125MOL   C31545203   7.638   1.968   6.932 -0.0333 -0.0782 -0.0663
  125MOL   H31645204   7.505   2.176   7.659  1.1848 -0.4467  0.7088
  125MOL   H31745205   7.398   2.068   7.593 -0.6726  1.2652  0.4791
  125MOL   H31845206   7.593   1.911   7.538  1.5044 -0.2144  0.3903
  125MOL   H31945207   7.477   2.048   7.153  0.0970  2.2295 -0.3033
  125MOL   H32045208   7.635   2.124   7.169 -1.1220 -0.3480  0.4115
  125MOL   H32145209   7.738   1.919   7.109  0.0960  0.5526 -2.2620
  125MOL   H32245210   7.577   1.831   7.102 -3.2169  1.2254  0.8877
  125MOL   H32345211   7.683   2.067   6.929  3.6694 -1.6104  1.8859
  125MOL   H32445212   7.695   1.914   6.855 -0.6461  0.3249 -0.8138
  125MOL   H32545213   7.537   1.983   6.893 -0.7213 -2.1238  0.8466
  125MOL   C32645214   7.752   2.059   7.591  0.1880 -0.6756  0.3336
  125MOL   C32745215   0.006   1.994   7.523  0.3653  0.1481 -0.5503
  125MOL   C32845216   0.002   1.840   7.541 -0.5172  0.1329  0.0984
  125MOL   O32945217   0.074   1.782   7.622 -0.4283 -0.0599 -0.0828
  125MOL   O33045218   7.793   1.780   7.469  0.2458 -0.1109 -0.3712
  125MOL   C33145219   7.755   1.647   7.474  0.3503  0.4867 -0.6044
  125MOL   C33245220   7.777   1.580   7.334  0.1641 -0.8488  0.4222
  125MOL   C33345221   0.040   1.570   7.284 -0.3482 -0.0383  0.6488
  125MOL   H33445222   7.754   2.023   7.693  1.8353 -0.6039  0.3358
  125MOL   H33545223   7.745   2.167   7.597 -0.6473 -0.5776 -1.8524
  125MOL   H33645224   0.090   2.027   7.583  1.1189 -0.9885 -0.9648
  125MOL   H33745225   7.802   1.589   7.553 -1.4836 -0.9275 -0.4991
  125MOL   H33845226   7.649   1.659   7.496  0.4285  0.8825 -0.4459
  125MOL   H33945227   7.740   1.478   7.324  1.3309 -1.0900 -1.5467
  125MOL   H34045228   7.722   1.633   7.256  0.1026 -1.2212  0.2078
  125MOL   H34145229   0.048   1.489   7.211 -1.7766 -0.1687  0.6330
  125MOL   H34245230   0.067   1.661   7.232  0.9535 -0.2509  0.9267
  125MOL   H34345231   0.108   1.555   7.369 -1.0998  1.0354  1.4482
  125MOL   C34445232   0.031   2.030   7.374  0.3873 -0.3719  0.5697
  125MOL   C34545233   0.170   2.012   7.333 -0.4414 -0.4865  0.6235
  125MOL   C34645234   0.205   2.103   7.219  0.3826 -0.5696 -0.1298
  125MOL   O34745235   0.175   2.073   7.106  0.2327 -0.3234  0.4053
  125MOL   O34845236   0.260   2.218   7.256  0.3872  0.5637  0.9004
  125MOL   C34945237   0.298   2.317   7.164  0.4073 -0.5076  0.3028
  125MOL   C35045238   0.452   2.337   7.177 -0.3946  0.1372  0.5558
  125MOL   C35145239   0.510   2.412   7.065  0.1151 -0.3990  0.3173
  125MOL   H35245240   0.000   2.132   7.348  0.9659 -0.6952 -1.4892
  125MOL   H35345241   7.842   1.983   7.305  1.0510  1.5549 -1.4758
  125MOL   H35445242   0.193   1.911   7.297 -2.5734 -1.3151  1.4692
  125MOL   H35545243   0.271   2.292   7.062 -0.3552  1.1557  0.0818
  125MOL   H35645244   0.249   2.410   7.195  0.7656 -0.6403  1.2867
  125MOL   H35745245   0.478   2.383   7.272 -1.8147  0.8692  0.6093
  125MOL   H35845246   0.495   2.238   7.161 -2.0601 -0.5144  0.0053
  125MOL   H35945247   0.480   2.360   6.974 -0.4524  1.2857 -0.4788
  125MOL   H36045248   0.466   2.509   7.041 -1.9239 -1.5872 -0.9316
  125MOL   H36145249   0.619   2.419   7.069  0.2838 -0.6803 -2.6152
  125MOL   H36245250   0.241   2.035   7.413 -0.6043  0.6588  0.4451
  126MOL     C145251   7.095   7.704   5.150  0.6859 -0.1026 -0.1276
  126MOL     C245252   6.999   7.737   5.270 -0.5026  0.1054 -0.9562
  126MOL     C345253   6.915   7.614   5.314  0.9983  0.2590 -0.5223
  126MOL     O445254   6.794   7.611   5.279  0.2724  0.0897 -0.3250
  126MOL     O545255   6.988   7.512   5.371  0.4568  0.0497 -0.0411
  126MOL     C645256   6.919   7.397   5.431 -0.7955  0.0509  1.1086
  126MOL     C745257   6.878   7.425   5.584 -0.0209 -0.2599 -0.1900
  126MOL     C845258   6.998   7.479   5.671 -0.3086  0.0803 -0.2990
  126MOL     H945259   7.189   7.654   5.174  0.5031 -0.5691 -0.3767
  126MOL    H1045260   7.041   7.631   5.089 -0.4986  0.9731 -0.3807
  126MOL    H1145261   6.925   7.806   5.228 -1.0096  0.4573  0.5006
  126MOL    H1245262   6.834   7.384   5.365  0.4898 -0.9170 -0.3673
  126MOL    H1345263   6.986   7.313   5.420 -0.1298  0.7052  0.0962
  126MOL    H1445264   6.803   7.505   5.585  0.3134  0.0715  2.9507
  126MOL    H1545265   6.849   7.340   5.645 -1.0411  0.9904  1.0799
  126MOL    H1645266   7.081   7.409   5.681 -0.0341  0.2565 -1.2598
  126MOL    H1745267   7.031   7.576   5.634  1.1811 -0.6906 -1.0202
  126MOL    H1845268   6.964   7.495   5.773  1.2209  1.7130 -0.0429
  126MOL    H1945269   7.115   7.794   5.092  0.9548  0.6351  1.0950
  126MOL    C2045270   7.080   7.800   5.383 -0.1017  0.6641 -0.5356
  126MOL    C2145271   7.008   7.868   5.506 -0.5045  0.2478  0.2353
  126MOL    C2245272   7.083   7.864   5.637  0.2138  0.6375 -0.5233
  126MOL    O2345273   7.205   7.839   5.635  0.7242  0.1883  0.0456
  126MOL    O2445274   7.006   7.871   5.749 -0.0573 -0.4146  0.1878
  126MOL    C2545275   7.070   0.010   5.874  0.0752 -0.2952 -0.1272
  126MOL    C2645276   7.045   7.789   5.985 -0.5376  1.0548  0.1467
  126MOL    C2745277   6.918   7.811   6.066 -0.1941  0.1706 -0.5355
  126MOL    H2845278   7.149   7.876   5.345 -0.5216  0.7014 -1.2194
  126MOL    H2945279   7.155   7.730   5.419 -0.4035 -0.8436 -2.7606
  126MOL    H3045280   6.921   7.804   5.518  1.0496 -2.2403 -1.2994
  126MOL    H3145281   7.177   0.031   5.870  0.5074 -2.2643  0.7890
  126MOL    H3245282   7.038   0.102   5.924  2.5134  0.7356 -0.4317
  126MOL    H3345283   7.039   7.695   5.929 -0.7209 -0.8095  3.1313
  126MOL    H3445284   7.133   7.774   6.047 -1.7307 -0.4408  1.5613
  126MOL    H3545285   6.927   0.015   6.135  0.9000 -0.8006  0.5223
  126MOL    H3645286   6.885   7.729   6.130  0.3623  0.9438  0.7739
  126MOL    H3745287   6.835   7.823   5.997 -0.3959 -0.3001 -0.3736
  126MOL    C3845288   6.951   0.127   5.477  0.4709 -0.1746  1.1466
  126MOL    C3945289   6.800   0.144   5.525  0.0859  0.1380 -0.0152
  126MOL    C4045290   6.763   0.293   5.551  0.1649  0.3986 -0.0671
  126MOL    O4145291   6.691   0.331   5.639 -0.3144 -0.2393  1.1149
  126MOL    O4245292   6.820   0.371   5.457  0.1757  0.1438  0.3154
  126MOL    C4345293   6.789   0.509   5.453 -0.0722  0.6485 -0.4618
  126MOL    C4445294   6.874   0.598   5.545  0.4669 -0.0112  0.2088
  126MOL    C4545295   7.010   0.626   5.479 -0.9881 -0.2619 -0.4029
  126MOL    H4645296   6.972   0.149   5.372  0.5665  1.8980  1.5624
  126MOL    H4745297   7.017   0.201   5.523  1.9404 -1.1202  0.5855
  126MOL    H4845298   6.800   0.098   5.623 -1.4259  0.0917 -0.0255
  126MOL    H4945299   6.796   0.540   5.349  0.5878 -1.8202 -1.1832
  126MOL    H5045300   6.688   0.513   5.494  1.5602 -2.4060  4.3676
  126MOL    H5145301   6.830   0.697   5.553  0.0692 -0.2695  1.5371
  126MOL    H5245302   6.883   0.566   5.649  0.1452  0.4182  0.3676
  126MOL    H5345303   7.071   0.688   5.544  0.9387 -0.2705 -2.1416
  126MOL    H5445304   7.005   0.674   5.381 -1.9877 -1.7620 -1.1084
  126MOL    H5545305   7.072   0.537   5.464  1.0659  1.3088 -1.6432
  126MOL    C5645306   6.694   0.070   5.430 -0.5421  0.5140 -0.3516
  126MOL    C5745307   6.578   0.008   5.506  0.5118 -0.3147  0.1997
  126MOL    C5845308   6.446   0.082   5.484  0.0770  0.2635 -0.5494
  126MOL    O5945309   6.398   0.154   5.567  0.3461 -0.1735  0.1714
  126MOL    O6045310   6.396   0.061   5.359 -0.5351  0.3889 -0.4395
  126MOL    C6145311   6.275   0.125   5.318 -0.7211  0.3665 -0.1395
  126MOL    C6245312   6.255   0.120   5.166  0.7637  0.2897 -0.1424
  126MOL    C6345313   6.143   0.218   5.125  0.0837 -0.6812 -0.0215
  126MOL    H6445314   6.737   7.861   5.384 -3.6474 -2.8337  2.9010
  126MOL    H6545315   6.663   0.147   5.360 -0.7769  1.3776  0.6913
  126MOL    H6645316   6.600   0.025   5.612  0.6684  1.6915 -0.1246
  126MOL    H6745317   6.183   0.091   5.366  0.0004 -1.8029 -0.2024
  126MOL    H6845318   6.292   0.226   5.354  0.1632 -0.7015  2.6482
  126MOL    H6945319   6.349   0.149   5.121 -0.0438  2.3487 -0.5891
  126MOL    H7045320   6.233   0.016   5.142 -2.4170  0.3965  1.8806
  126MOL    H7145321   6.117   0.194   5.023  0.6807 -0.1941 -0.2948
  126MOL    H7245322   6.177   0.320   5.144 -0.4765 -0.7177  1.2295
  126MOL    H7345323   6.051   0.204   5.182 -0.6693  0.3151 -0.9825
  126MOL    C7445324   6.566   7.738   5.496 -0.0089 -0.0520  0.0795
  126MOL    C7545325   6.502   7.656   5.610  0.1077  0.9192 -0.1714
  126MOL    C7645326   6.589   7.656   5.739  0.4402 -0.8558 -0.3743
  126MOL    O7745327   6.702   7.709   5.748  0.4077 -0.2532  0.6349
  126MOL    O7845328   6.536   7.579   5.839  0.8649  0.3350 -0.2735
  126MOL    C7945329   6.612   7.556   5.957 -0.5339  0.3766 -0.1743
  126MOL    C8045330   6.556   7.635   6.071  0.1340 -0.8717  0.9036
  126MOL    C8145331   6.635   7.615   6.203 -0.2554 -0.0604  0.2754
  126MOL    H8245332   6.668   7.700   5.495 -0.4695 -1.2941 -1.2474
  126MOL    H8345333   6.532   7.699   5.400 -0.0216  1.8391 -0.7081
  126MOL    H8445334   6.502   7.550   5.586  0.8192  0.9726 -0.4237
  126MOL    H8545335   6.603   7.450   5.983  2.8980 -0.5344 -2.3784
  126MOL    H8645336   6.718   7.573   5.937 -0.3217 -0.1630  0.4622
  126MOL    H8745337   6.551   7.742   6.049  1.8835 -0.9320  0.1181
  126MOL    H8845338   6.455   7.599   6.094 -0.2518  0.0523  0.6881
  126MOL    H8945339   6.560   7.585   6.276 -2.6682  2.0212 -1.2814
  126MOL    H9045340   6.677   7.709   6.238  2.1235 -0.5443 -1.1351
  126MOL    H9145341   6.719   7.546   6.198  0.6126  0.8531  2.0939
  126MOL    C9245342   6.351   7.677   5.644 -0.0294 -0.5859  0.2900
  126MOL    C9345343   6.259   7.567   5.712 -0.3274  0.3487 -0.5986
  126MOL    C9445344   6.166   7.630   5.814  0.2106  0.1351  0.9968
  126MOL    O9545345   6.174   7.598   5.934 -0.4640  0.1647 -0.2186
  126MOL    O9645346   6.091   7.729   5.758  0.2297  0.1291 -0.4302
  126MOL    C9745347   5.997   7.799   5.848  0.1413  0.2190  0.0962
  126MOL    C9845348   6.053   0.056   5.878 -0.1450 -0.0882  0.1266
  126MOL    C9945349   5.970   0.139   5.983 -0.0413  0.8428 -0.5200
  126MOL   H10045350   6.301   7.708   5.552 -0.7839 -1.0255  0.5580
  126MOL   H10145351   6.355   7.772   5.698  0.3073  0.4824 -1.5821
  126MOL   H10245352   6.331   7.494   5.751  0.2990  0.8330 -0.8341
  126MOL   H10345353   5.911   7.800   5.781  0.4383  0.0467 -0.2902
  126MOL   H10445354   5.974   7.742   5.939 -3.8055  2.3175  0.5326
  126MOL   H10545355   6.157   0.056   5.910 -1.0842  0.1525  3.2700
  126MOL   H10645356   6.058   0.123   5.792 -1.0077 -1.9995 -1.4690
  126MOL   H10745357   5.958   0.100   6.084  2.5554  0.2470 -0.3848
  126MOL   H10845358   5.871   0.159   5.943 -2.4261 -0.3665  4.4349
  126MOL   H10945359   6.026   0.233   5.993  4.5336 -1.7286 -0.5551
  126MOL   C11045360   6.176   7.500   5.600 -1.0465 -0.4336  0.3015
  126MOL   C11145361   6.257   7.393   5.510  0.1646  0.1851 -0.5874
  126MOL   C11245362   6.292   7.268   5.594  0.3961 -0.2141  0.6613
  126MOL   O11345363   6.228   7.246   5.703  0.1312  0.1249  0.1279
  126MOL   O11445364   6.377   7.184   5.539  0.0073  0.4569 -0.1305
  126MOL   C11545365   6.415   7.061   5.601  0.4014 -0.0020  0.0106
  126MOL   C11645366   6.566   7.020   5.577  0.6121  0.0290  0.1145
  126MOL   C11745367   6.673   7.124   5.624 -0.4459 -0.5513  0.4135
  126MOL   H11845368   6.134   7.575   5.532  1.7498  0.4685 -0.5025
  126MOL   H11945369   6.096   7.445   5.650  0.6602 -1.4674  1.9578
  126MOL   H12045370   6.349   7.442   5.480  0.4223 -0.1774 -0.3939
  126MOL   H12145371   6.400   7.080   5.707  1.2974 -0.1035  0.1647
  126MOL   H12245372   6.349   6.985   5.559 -0.3718  0.6826 -0.0154
  126MOL   H12345373   6.595   6.923   5.617 -1.5163 -0.5048  0.4162
  126MOL   H12445374   6.590   6.997   5.474  0.6767  1.5167 -0.2091
  126MOL   H12545375   6.635   7.225   5.610  2.4601  0.3296 -1.5224
  126MOL   H12645376   6.769   7.109   5.575 -0.9274 -2.1979 -0.0518
  126MOL   H12745377   6.701   7.120   5.729 -0.1623  0.5552  0.3814
  126MOL   C12845378   6.183   7.351   5.384 -0.5370  0.6163 -0.2312
  126MOL   C12945379   6.257   7.350   5.251  0.2353 -0.0538  0.4756
  126MOL   C13045380   6.353   7.225   5.230  0.1109  0.1991  0.2792
  126MOL   O13145381   6.476   7.238   5.227 -0.1988 -0.0467 -0.3773
  126MOL   O13245382   6.288   7.106   5.219  0.2213 -0.5160 -0.4670
  126MOL   C13345383   6.363   6.984   5.222 -0.5094 -0.0596  0.5157
  126MOL   C13445384   6.384   6.941   5.081  0.2892  0.1101  0.0250
  126MOL   C13545385   6.478   6.819   5.069 -0.2917  0.1001 -0.0126
  126MOL   H13645386   6.095   7.413   5.371 -0.3280  0.6072 -1.7144
  126MOL   H13745387   6.131   7.263   5.422 -0.7107  1.5911  1.8320
  126MOL   H13845388   6.330   7.431   5.247 -0.3933  0.6611  2.6035
  126MOL   H13945389   6.453   6.998   5.283  0.5429 -0.6153 -0.8650
  126MOL   H14045390   6.308   6.912   5.281 -0.7844  1.4490  2.1383
  126MOL   H14145391   6.292   6.922   5.026  0.8255 -1.2616 -0.4102
  126MOL   H14245392   6.432   7.020   5.022 -0.2107  1.0376  0.8421
  126MOL   H14345393   6.570   6.842   5.124  0.2243 -0.5646 -0.5872
  126MOL   H14445394   6.493   6.775   4.970 -1.4288 -0.1768 -0.0694
  126MOL   H14545395   6.440   6.731   5.119  0.2951 -0.9005 -1.2937
  126MOL   C14645396   6.166   7.376   5.119  0.8604 -0.8051 -0.2751
  126MOL   C14745397   6.237   7.403   4.991 -0.4309 -0.0020  0.2903
  126MOL   C14845398   6.260   7.272   4.914 -0.3605  0.4511 -0.4328
  126MOL   O14945399   6.195   7.168   4.925  0.0729  0.3085  0.3890
  126MOL   O15045400   6.370   7.285   4.839 -0.0599  0.2736 -0.4853
  126MOL   C15145401   6.424   7.173   4.767  0.6095 -0.0283  0.3887
  126MOL   C15245402   6.577   7.162   4.786  0.2519 -0.5304 -0.9001
  126MOL   C15345403   6.636   7.034   4.736 -0.0265 -0.5310 -0.3899
  126MOL   H15445404   6.114   7.469   5.142 -0.1150 -1.2448 -0.6742
  126MOL   H15545405   6.093   7.296   5.110  1.1174 -0.8970 -1.6222
  126MOL   H15645406   6.331   7.447   5.022 -0.2374 -0.5588  0.4968
  126MOL   H15745407   6.376   7.079   4.796 -0.7658 -0.1216 -2.0375
  126MOL   H15845408   6.401   7.175   4.660 -2.7534  1.1773  1.0546
  126MOL   H15945409   6.619   7.247   4.732 -1.6818  0.7542 -0.4594
  126MOL   H16045410   6.598   7.173   4.892 -2.7350 -1.5218 -0.1642
  126MOL   H16145411   6.722   6.997   4.792  0.1597  0.8085  0.2152
  126MOL   H16245412   6.660   7.058   4.632  0.7904  0.6534  0.0588
  126MOL   H16345413   6.555   6.961   4.737  0.4010 -1.0121 -0.4253
  126MOL   C16445414   6.153   7.496   4.902 -0.5508 -0.3964 -0.1867
  126MOL   C16545415   6.156   7.645   4.951  0.3203 -0.1912  0.1260
  126MOL   C16645416   6.288   7.712   4.904  1.0153  0.3999 -0.0870
  126MOL   O16745417   6.289   7.775   4.802  0.5037  0.0815 -0.3155
  126MOL   O16845418   6.390   7.682   4.980  0.1768 -0.1299  0.3824
  126MOL   C16945419   6.516   7.726   4.935 -0.1913 -0.5403  0.3805
  126MOL   C17045420   6.575   7.620   4.847  0.1504  0.9551 -0.4523
  126MOL   C17145421   6.636   7.500   4.923 -0.1376 -0.2890 -0.5614
  126MOL   H17245422   6.051   7.457   4.898  0.1158 -2.1030 -1.2451
  126MOL   H17345423   6.187   7.498   4.799 -1.0925  2.7268 -0.3347
  126MOL   H17445424   6.170   7.648   5.059  1.0596 -0.0451  0.0345
  126MOL   H17545425   6.509   7.807   4.863  3.2645 -1.0281 -0.6136
  126MOL   H17645426   6.576   7.756   5.021 -1.8489 -0.6825  1.5971
  126MOL   H17745427   6.499   7.582   4.778 -0.7321 -2.2094  2.1300
  126MOL   H17845428   6.663   7.661   4.797  0.3652 -0.3887 -1.2077
  126MOL   H17945429   6.691   7.544   5.006 -0.9692 -0.9631  0.3628
  126MOL   H18045430   6.709   7.441   4.867 -0.4762 -0.0679 -1.2519
  126MOL   H18145431   6.556   7.441   4.969 -1.0744  0.1657 -1.5775
  126MOL   C18245432   6.025   7.726   4.909 -0.2183  0.3924 -0.1553
  126MOL   C18345433   5.890   7.677   4.970 -0.0354 -0.1773  0.0306
  126MOL   C18445434   5.900   7.683   5.117  0.5249  0.0302 -0.7370
  126MOL   O18545435   5.895   7.576   5.182  0.6953 -0.2525 -0.2861
  126MOL   O18645436   5.910   7.809   5.167 -0.2233 -0.0582  0.2819
  126MOL   C18745437   5.932   7.827   5.307  0.0291 -0.4905  0.1949
  126MOL   C18845438   5.863   0.061   5.381 -0.5440  0.3263  0.5645
  126MOL   C18945439   5.912   0.088   5.522  0.3002 -1.2348  0.3957
  126MOL   H19045440   6.009   7.718   4.802 -1.7056  0.9385  0.0120
  126MOL   H19145441   6.041   7.832   4.926 -2.6174  0.8944 -0.8306
  126MOL   H19245442   5.873   7.575   4.935 -1.9470  0.4013 -0.8351
  126MOL   H19345443   5.911   7.729   5.350  0.7314 -0.4221  0.6985
  126MOL   H19445444   6.041   7.834   5.307  0.1624 -2.1757 -0.5234
  126MOL   H19545445   5.880   0.153   5.325  1.8879 -0.1091  0.5190
  126MOL   H19645446   5.760   0.025   5.378 -0.5165  0.3525 -2.2006
  126MOL   H19745447   5.915   7.869   5.568 -0.7055 -1.7353 -0.5963
  126MOL   H19845448   5.845   0.152   5.579 -1.3181 -1.1339 -1.5866
  126MOL   H19945449   6.015   0.123   5.519 -0.0269 -0.3103 -0.0330
  126MOL   C20045450   5.773   7.768   4.930  0.0825  0.0614  0.8774
  126MOL   C20145451   5.745   7.765   4.777  0.5040  0.0331 -0.2578
  126MOL   C20245452   5.692   7.628   4.722  0.2609  0.2322 -0.1041
  126MOL   O20345453   5.645   7.539   4.797  0.0851  0.0386 -0.5978
  126MOL   O20445454   5.696   7.625   4.586 -0.1975 -0.2685 -0.6000
  126MOL   C20545455   5.650   7.504   4.525  0.7148 -0.3108  0.4954
  126MOL   C20645456   5.509   7.530   4.477  0.2593  0.2897  0.1806
  126MOL   C20745457   5.487   7.654   4.387 -0.2533  0.7258  0.0278
  126MOL   H20845458   5.793   7.872   4.957 -0.7809  0.8260 -1.3034
  126MOL   H20945459   5.678   7.729   4.967 -0.7895 -0.9936 -2.2878
  126MOL   H21045460   5.841   7.774   4.727 -0.6115  2.3310 -2.0880
  126MOL   H21145461   5.709   7.481   4.436 -2.8929 -4.2805 -1.0417
  126MOL   H21245462   5.662   7.422   4.595  0.1779  0.6946  1.7888
  126MOL   H21345463   5.471   7.446   4.418 -0.7305 -0.6067  2.0515
  126MOL   H21445464   5.451   7.547   4.568 -0.0165 -0.4508  0.1434
  126MOL   H21545465   5.396   7.651   4.327  0.3396  1.8717 -0.9266
  126MOL   H21645466   5.565   7.641   4.312 -0.1087 -2.6652  0.6712
  126MOL   H21745467   5.502   7.745   4.445 -0.8769  0.7316  0.1859
  126MOL   C21845468   5.663   0.005   4.737 -0.8041  0.1093  0.0248
  126MOL   C21945469   5.727   0.146   4.759  0.2508 -0.6758  0.4606
  126MOL   C22045470   5.881   0.151   4.737  0.1460 -0.2756  0.1534
  126MOL   O22145471   5.955   0.217   4.812  0.6834 -0.2184  0.2299
  126MOL   O22245472   5.933   0.076   4.632  0.2179 -0.4120 -0.4144
  126MOL   C22345473   6.074   0.068   4.610  0.8583 -0.0850 -0.7733
  126MOL   C22445474   6.103   7.856   4.489  0.4374 -0.0860 -0.5524
  126MOL   C22545475   6.083   7.712   4.526  0.0719 -0.3649 -0.2022
  126MOL   H22645476   5.565   7.876   4.785 -0.1293 -4.0699  0.7522
  126MOL   H22745477   5.650   0.002   4.629 -2.5184  0.4291  0.2029
  126MOL   H22845478   5.714   0.168   4.865 -1.8842  1.6620 -0.2181
  126MOL   H22945479   6.107   0.171   4.599  1.6936 -0.3961 -1.2363
  126MOL   H23045480   6.122   0.029   4.700  0.2594  0.7293 -0.0880
  126MOL   H23145481   6.052   0.015   4.401 -1.1854  1.0076  0.8380
  126MOL   H23245482   6.208   7.878   4.470  0.6555 -2.4801 -2.3523
  126MOL   H23345483   5.975   7.702   4.540  0.3276 -1.3968  1.0229
  126MOL   H23445484   6.131   7.687   4.620 -1.6647 -0.9451  0.5387
  126MOL   H23545485   6.107   7.657   4.435 -0.1783 -1.0014  0.1210
  126MOL   C23645486   5.664   0.261   4.681 -0.4381  0.1678 -0.2132
  126MOL   C23745487   5.526   0.299   4.730  0.0905 -0.4776  0.3995
  126MOL   C23845488   5.525   0.370   4.867 -0.0363 -0.6868 -0.1112
  126MOL   O23945489   5.582   0.475   4.886  0.0537  0.1959  0.0738
  126MOL   O24045490   5.446   0.315   4.960  0.0917  0.2118 -0.1239
  126MOL   C24145491   5.450   0.351   5.100 -0.0907 -0.3194  1.0372
  126MOL   C24245492   5.384   0.239   5.181 -0.0887 -0.4052 -0.5344
  126MOL   C24345493   5.461   0.106   5.172 -0.1954 -0.2963  0.1183
  126MOL   H24445494   5.661   0.236   4.575 -0.2090  1.4703 -0.5396
  126MOL   H24545495   5.720   0.354   4.685 -1.6432  0.9267 -0.6646
  126MOL   H24645496   5.472   0.204   4.734 -1.5743  0.3749 -1.0154
  126MOL   H24745497   5.552   0.374   5.132 -0.0690  1.4701 -0.2581
  126MOL   H24845498   5.394   0.441   5.125 -0.9342 -0.9776  1.5537
  126MOL   H24945499   5.375   0.253   5.288 -1.3240 -2.0723 -0.4039
  126MOL   H25045500   5.284   0.221   5.141  0.0053 -1.4988 -0.2953
  126MOL   H25145501   5.511   0.100   5.075 -0.1879  1.2741  0.0167
  126MOL   H25245502   5.390   0.024   5.178  0.3530 -0.8084 -0.2439
  126MOL   H25345503   5.534   0.102   5.253  0.7279  1.4583 -0.5977
  126MOL   C25445504   5.447   0.388   4.628 -0.0457 -0.1405 -1.0444
  126MOL   C25545505   5.395   0.320   4.501  0.2769 -0.5617  0.2409
  126MOL   C25645506   5.297   0.206   4.521  0.2204  0.7128 -0.1899
  126MOL   O25745507   5.175   0.221   4.504 -0.0610  0.3886 -0.2224
  126MOL   O25845508   5.353   0.081   4.554 -0.3251  0.3103  0.0465
  126MOL   C25945509   5.262   7.850   4.591  0.5229 -1.2272  0.1927
  126MOL   C26045510   5.174   7.870   4.719  0.4111  0.6327  0.6352
  126MOL   C26145511   5.248   0.016   4.845 -0.4402 -0.2682 -0.5690
  126MOL   H26245512   5.505   0.475   4.598  0.5851  0.6954  2.3866
  126MOL   H26345513   5.359   0.432   4.675  1.0860  0.2433  0.7633
  126MOL   H26445514   5.475   0.273   4.443  0.2770 -0.8312  0.4597
  126MOL   H26545515   5.204   7.822   4.503 -2.4828  3.4126  0.5421
  126MOL   H26645516   5.328   7.765   4.609  1.1088 -0.6066  0.9931
  126MOL   H26745517   5.103   0.068   4.690 -0.7186 -0.5198  0.2610
  126MOL   H26845518   5.105   7.787   4.729  0.0651  0.8983  0.4603
  126MOL   H26945519   5.316   0.101   4.850 -0.7616  0.0569 -1.5569
  126MOL   H27045520   5.318   7.818   4.875  0.4012  0.7060  0.0450
  126MOL   H27145521   5.183   0.031   4.931  1.1841 -1.0103  0.8215
  126MOL   C27245522   5.330   0.432   4.414 -0.2928  0.5766  0.3634
  126MOL   C27345523   5.301   0.390   4.268 -0.1181 -0.2909 -0.1523
  126MOL   C27445524   5.173   0.461   4.214 -0.2051 -0.7302  0.3564
  126MOL   O27545525   5.064   0.402   4.212  0.1171  0.7010  0.3272
  126MOL   O27645526   5.193   0.587   4.190 -0.1354 -0.3412 -0.1034
  126MOL   C27745527   5.083   0.666   4.140 -0.5281  0.5544  0.1415
  126MOL   C27845528   5.002   0.722   4.254  0.3679 -0.5253 -0.1119
  126MOL   C27945529   5.092   0.791   4.359 -0.5027  0.0959 -0.2686
  126MOL   H28045530   5.376   0.531   4.409  2.6042 -0.7318  0.2091
  126MOL   H28145531   5.237   0.458   4.464  0.1070  0.5314  1.1469
  126MOL   H28245532   5.267   0.286   4.266 -0.8397 -0.0647  0.3078
  126MOL   H28345533   5.121   0.746   4.077 -1.5680  2.1046  1.4713
  126MOL   H28445534   5.027   0.601   4.072  0.3087 -0.4454  0.3883
  126MOL   H28545535   4.929   0.789   4.207 -0.1007 -1.0240 -0.0977
  126MOL   H28645536   4.943   0.643   4.300 -1.6650 -0.1450 -1.9587
  126MOL   H28745537   5.178   0.847   4.321  2.6539 -2.8854  2.0978
  126MOL   H28845538   5.144   0.714   4.417 -0.8891 -1.2651 -1.7053
  126MOL   H28945539   5.020   0.859   4.403  0.0649 -0.2876  1.2954
  126MOL   C29045540   5.425   0.399   4.174  0.5801 -0.4289 -0.2685
  126MOL   C29145541   5.389   0.345   4.032  0.8111  0.0191 -0.1781
  126MOL   C29245542   5.359   0.456   3.933  0.2839  0.3702  0.5501
  126MOL   O29345543   5.244   0.485   3.901  0.1454 -0.1304 -0.9999
  126MOL   O29445544   5.469   0.522   3.900  0.3339  0.1137  0.0742
  126MOL   C29545545   5.460   0.613   3.796  0.4915 -0.2687  0.5754
  126MOL   C29645546   5.571   0.588   3.693 -0.2006  0.2029  0.2455
  126MOL   C29745547   5.712   0.639   3.742  0.2029 -0.7201  0.3238
  126MOL   H29845548   5.500   0.340   4.226 -0.6982 -0.8129  1.1705
  126MOL   H29945549   5.469   0.499   4.174 -3.5818  1.5335  1.7702
  126MOL   H30045550   5.302   0.281   4.046  1.0106  0.4778  3.8788
  126MOL   H30145551   5.361   0.629   3.753  0.4011  0.9469  1.2233
  126MOL   H30245552   5.469   0.716   3.831  0.0016  0.6639 -1.9774
  126MOL   H30345553   5.573   0.482   3.668 -2.3807  0.1191  0.3494
  126MOL   H30445554   5.545   0.638   3.599  3.1046 -0.4032 -1.0687
  126MOL   H30545555   5.728   0.588   3.837 -2.3749  0.9342  1.7041
  126MOL   H30645556   5.718   0.747   3.758 -1.6689 -0.7468  1.2912
  126MOL   H30745557   5.794   0.614   3.675 -0.9670  1.0517 -1.8392
  126MOL   C30845558   5.500   0.247   3.971  0.8068 -0.4606 -0.0165
  126MOL   C30945559   5.528   0.121   4.057  0.2464  0.0009 -0.3561
  126MOL   C31045560   5.407   0.071   4.136 -0.5273 -0.2668  0.6896
  126MOL   O31145561   5.414   0.058   4.259 -0.4530  0.2191  0.0274
  126MOL   O31245562   5.296   0.037   4.054 -0.0700 -0.5779 -0.1262
  126MOL   C31345563   5.175   7.874   4.121  0.3525 -0.3913  0.2964
  126MOL   C31445564   5.059   0.004   4.022 -0.2787  0.7644 -0.3968
  126MOL   C31545565   4.926   7.848   4.080  0.1556 -0.5152  0.2660
  126MOL   H31645566   5.593   0.300   3.952  0.0572  1.0519  0.4325
  126MOL   H31745567   5.460   0.220   3.873  0.4267  0.0466 -0.0024
  126MOL   H31845568   5.604   0.143   4.132 -0.8846 -2.9534  1.7836
  126MOL   H31945569   5.179   7.767   4.143  0.5196 -0.8680 -1.8728
  126MOL   H32045570   5.150   0.048   4.212 -1.5336 -0.8966  0.1118
  126MOL   H32145571   5.052   0.100   3.971  0.0108  1.1540  0.2875
  126MOL   H32245572   5.084   7.821   3.938  1.7669 -0.1580  0.8613
  126MOL   H32345573   4.859   7.836   3.995  1.9616  2.0029 -1.6100
  126MOL   H32445574   4.916   7.757   4.139  0.3573 -0.3668  0.5284
  126MOL   H32545575   4.887   0.046   4.145  1.8051 -0.7673  1.5853
  126MOL   C32645576   5.581   7.879   3.976  0.0245  0.2880  0.2276
  126MOL   C32745577   5.700   0.028   3.885 -0.4144 -0.3419 -0.3753
  126MOL   C32845578   5.813   0.098   3.957  0.4744  0.1305  0.0285
  126MOL   O32945579   5.852   0.207   3.915  0.0863 -0.2367  0.1791
  126MOL   O33045580   5.855   0.029   4.065 -0.1389  0.4445 -0.5246
  126MOL   C33145581   5.937   0.088   4.166  0.0334 -0.3770  0.3877
  126MOL   C33245582   5.855   0.148   4.276 -0.9461  0.9309  0.1888
  126MOL   C33345583   5.757   0.045   4.336 -0.3262  0.1173  0.5355
  126MOL   H33445584   5.510   7.835   3.905 -0.5754 -1.5435  1.9114
  126MOL   H33545585   5.598   7.791   4.039  1.2853  1.2453  1.2312
  126MOL   H33645586   5.667   0.097   3.807 -0.7872  0.0476  0.1279
  126MOL   H33745587   6.005   0.012   4.204  0.3199  0.5892  1.8813
  126MOL   H33845588   5.996   0.171   4.127 -0.2217  0.9444  2.7163
  126MOL   H33945589   5.924   0.181   4.354  1.1534 -1.3956 -0.6089
  126MOL   H34045590   5.791   0.235   4.265  0.1039  1.5246 -1.2556
  126MOL   H34145591   5.811   7.840   4.376 -0.8357  0.1793  1.3583
  126MOL   H34245592   5.707   0.082   4.425 -2.7963 -2.7048  0.3791
  126MOL   H34345593   5.675   0.004   4.278 -0.5220  0.3107  0.6721
  126MOL   C34445594   5.739   7.790   3.809  0.6009 -0.2706 -0.7622
  126MOL   C34545595   5.829   7.825   3.691 -0.0763  0.9486  0.7256
  126MOL   C34645596   5.883   7.714   3.607  0.6314  0.0464 -0.4411
  126MOL   O34745597   5.995   7.722   3.556 -0.4206  0.2169  0.3852
  126MOL   O34845598   5.798   7.618   3.597  0.4273 -0.5204 -0.2615
  126MOL   C34945599   5.825   7.504   3.513 -0.3847 -0.4134 -0.1360
  126MOL   C35045600   5.718   7.396   3.502 -0.5154  0.2543  0.4928
  126MOL   C35145601   5.696   7.309   3.628  0.0568  0.3249  0.0973
  126MOL   H35245602   5.653   7.735   3.769  0.9614 -2.4900  1.4302
  126MOL   H35345603   5.799   7.728   3.876 -0.0668  0.3372  0.3938
  126MOL   H35445604   5.914   0.000   3.731  0.4526  1.3912 -0.9821
  126MOL   H35545605   5.868   7.539   3.419 -0.1147  1.5381  0.6852
  126MOL   H35645606   5.914   7.452   3.546 -0.1491  0.1942  0.2014
  126MOL   H35745607   5.626   7.446   3.473 -0.6684 -0.3871 -0.1396
  126MOL   H35845608   5.740   7.335   3.414 -2.9332  0.9699 -0.6521
  126MOL   H35945609   5.790   7.282   3.676  0.3337 -1.5190 -1.3947
  126MOL   H36045610   5.645   7.377   3.696 -1.1337  0.9936 -1.4279
  126MOL   H36145611   5.630   7.223   3.611 -0.0979 -0.0998  2.6896
  126MOL   H36245612   5.773   0.011   3.625  0.4537  2.2857  1.5947
  127MOL     C145613   2.569   2.386   4.779 -0.0271  0.2075 -1.5091
  127MOL     C245614   2.637   2.419   4.644  0.4144 -0.7458 -0.4369
  127MOL     C345615   2.794   2.449   4.653 -0.1075  0.1501 -0.5224
  127MOL     O445616   2.834   2.566   4.666  0.0386  0.1030 -0.5254
  127MOL     O545617   2.866   2.342   4.667  0.0446  0.3671 -0.2721
  127MOL     C645618   3.008   2.345   4.684 -0.8257 -0.0120 -0.5459
  127MOL     C745619   3.077   2.302   4.557  0.4610  0.2032  0.2782
  127MOL     C845620   3.228   2.288   4.582 -0.6300  0.2468  0.3733
  127MOL     H945621   2.553   2.464   4.854  2.2870 -0.6960 -0.0418
  127MOL    H1045622   2.470   2.347   4.755 -0.3037 -0.0355  0.0070
  127MOL    H1145623   2.590   2.506   4.597 -1.3882 -1.8024 -0.6745
  127MOL    H1245624   3.040   2.446   4.710 -0.5948 -0.8425  2.6638
  127MOL    H1345625   3.023   2.274   4.766 -0.7751  1.9009  1.1474
  127MOL    H1445626   3.040   2.200   4.544  1.7273 -0.0492 -1.5355
  127MOL    H1545627   3.052   2.360   4.469 -0.6753  1.1218  1.1895
  127MOL    H1645628   3.269   2.260   4.485 -0.0274  1.6173  0.2241
  127MOL    H1745629   3.267   2.388   4.602  0.3989  0.0147 -0.4106
  127MOL    H1845630   3.262   2.214   4.656 -1.3789 -1.8559 -1.3248
  127MOL    H1945631   2.619   2.306   4.833  0.9719  2.4329  0.9717
  127MOL    C2045632   2.615   2.306   4.540 -0.4529  0.2441  0.1792
  127MOL    C2145633   2.624   2.350   4.394 -0.4597 -0.0779  0.6457
  127MOL    C2245634   2.769   2.350   4.342 -0.1793 -0.1346 -0.0529
  127MOL    O2345635   2.833   2.247   4.329 -0.1631 -0.1933  0.1289
  127MOL    O2445636   2.820   2.474   4.321  0.2629 -0.6195 -0.4985
  127MOL    C2545637   2.942   2.497   4.253 -0.0214  0.0475  0.1680
  127MOL    C2645638   2.906   2.588   4.127  0.7112  0.2535 -1.1382
  127MOL    C2745639   3.033   2.634   4.059 -0.2341  0.6227 -0.3340
  127MOL    H2845640   2.513   2.270   4.558  0.2478 -0.2589  3.6367
  127MOL    H2945641   2.674   2.220   4.572 -0.7348 -0.7691 -1.9316
  127MOL    H3045642   2.604   2.457   4.403 -0.2634  0.1518 -1.3144
  127MOL    H3145643   3.010   2.541   4.326 -1.2942 -0.7956  1.9022
  127MOL    H3245644   2.986   2.407   4.209 -0.5278 -0.5829  0.9349
  127MOL    H3345645   2.843   2.544   4.050 -0.3903 -0.2421  0.0360
  127MOL    H3445646   2.858   2.675   4.171  0.5606  0.2395 -1.2752
  127MOL    H3545647   3.010   2.696   3.972 -1.5645 -0.4970 -0.7822
  127MOL    H3645648   3.097   2.549   4.037  1.0531  1.3693  0.4038
  127MOL    H3745649   3.094   2.695   4.126  0.2130  0.3312 -0.4739
  127MOL    C3845650   2.523   2.277   4.299 -0.0179 -0.1921 -0.0785
  127MOL    C3945651   2.502   2.354   4.163 -1.0376 -0.3244  0.3399
  127MOL    C4045652   2.595   2.311   4.048 -0.3084  1.1328  0.2879
  127MOL    O4145653   2.678   2.381   3.985  0.4997  0.3064 -0.7494
  127MOL    O4245654   2.573   2.183   4.009  0.3849 -0.0025  0.6930
  127MOL    C4345655   2.637   2.136   3.886 -0.6985  0.4347  0.9638
  127MOL    C4445656   2.566   2.021   3.818  0.6160  0.3400  0.0639
  127MOL    C4545657   2.435   2.066   3.761  0.4007 -0.2744 -0.0332
  127MOL    H4645658   2.428   2.250   4.344 -0.7271  0.7378 -0.9975
  127MOL    H4745659   2.566   2.177   4.286 -0.5016 -0.4179  0.0562
  127MOL    H4845660   2.551   2.451   4.178  0.5441 -1.4051  2.4110
  127MOL    H4945661   2.669   2.210   3.812  1.7136 -0.9772  0.5402
  127MOL    H5045662   2.731   2.086   3.907 -0.0331  0.6521 -1.3156
  127MOL    H5145663   2.625   1.981   3.736  1.1320  1.6615 -0.2318
  127MOL    H5245664   2.548   1.943   3.892  2.8181  0.3560  0.6620
  127MOL    H5345665   2.407   1.983   3.696  0.6716  0.1278 -0.6834
  127MOL    H5445666   2.443   2.151   3.693 -3.4834  0.7236  0.6389
  127MOL    H5545667   2.364   2.097   3.837 -0.1716  0.4224 -0.8356
  127MOL    C5645668   2.358   2.368   4.124 -0.5344  0.3558  0.1408
  127MOL    C5745669   2.325   2.482   4.036  0.0815 -0.1196  0.0819
  127MOL    C5845670   2.193   2.468   3.954  0.1460 -0.4338  0.4115
  127MOL    O5945671   2.111   2.381   3.979 -0.5226  0.3894 -0.2583
  127MOL    O6045672   2.179   2.568   3.860  0.2170  0.1887 -0.2788
  127MOL    C6145673   2.056   2.565   3.789 -0.2976 -0.3430 -0.0725
  127MOL    C6245674   2.018   2.694   3.713 -0.3886 -0.2546  0.4183
  127MOL    C6345675   1.971   2.809   3.796  0.1001  0.3018 -0.3651
  127MOL    H6445676   2.292   2.370   4.210  1.9343 -1.0687  2.1444
  127MOL    H6545677   2.329   2.270   4.086  0.3901  0.2850 -0.4123
  127MOL    H6645678   2.407   2.469   3.965  0.4842  2.0197  0.1112
  127MOL    H6745679   2.067   2.471   3.734 -1.0848 -0.1827 -0.5101
  127MOL    H6845680   1.970   2.539   3.851 -2.5429  1.3590 -2.3794
  127MOL    H6945681   2.099   2.726   3.647 -1.9334 -1.7700 -2.2976
  127MOL    H7045682   1.943   2.660   3.641  0.5366 -0.4194 -0.4756
  127MOL    H7145683   2.056   2.831   3.861  0.0731  1.9585 -0.8839
  127MOL    H7245684   1.888   2.781   3.861  0.3220  1.9506  0.6679
  127MOL    H7345685   1.943   2.906   3.754 -2.7282 -0.0210  0.6813
  127MOL    C7445686   2.351   2.625   4.108  0.2656  0.0026  0.3024
  127MOL    C7545687   2.248   2.662   4.212  0.2828  0.1959  0.0861
  127MOL    C7645688   2.306   2.626   4.356 -0.2324  0.0508  0.1985
  127MOL    O7745689   2.401   2.694   4.404  0.9881  0.0082 -0.0904
  127MOL    O7845690   2.235   2.540   4.427 -0.8106 -0.0054 -0.4184
  127MOL    C7945691   2.269   2.519   4.565  0.4864  0.6504  0.5829
  127MOL    C8045692   2.184   2.416   4.642  0.4819  0.2059 -0.0644
  127MOL    C8145693   2.185   2.443   4.791 -0.4785 -0.3817  0.0971
  127MOL    H8245694   2.349   2.694   4.025 -0.0766  0.2467  0.5128
  127MOL    H8345695   2.449   2.637   4.155  1.7812  0.3184 -2.8278
  127MOL    H8445696   2.162   2.604   4.177  0.3878  0.1282 -0.0614
  127MOL    H8545697   2.372   2.485   4.572  0.3843 -0.0531 -1.1286
  127MOL    H8645698   2.262   2.612   4.621 -0.2444 -0.0740  1.7270
  127MOL    H8745699   2.084   2.425   4.601 -0.5398 -1.7328  1.9375
  127MOL    H8845700   2.231   2.319   4.627 -1.9943 -0.9138 -0.6655
  127MOL    H8945701   2.279   2.463   4.843 -0.3631  0.6208 -0.4930
  127MOL    H9045702   2.139   2.359   4.843 -0.7709 -0.6946 -0.6653
  127MOL    H9145703   2.109   2.518   4.814 -0.1256  0.1160 -0.3649
  127MOL    C9245704   2.201   2.812   4.197 -0.8206 -0.3608 -0.4559
  127MOL    C9345705   2.090   2.868   4.297 -0.2070 -0.2643  0.0051
  127MOL    C9445706   2.052   3.015   4.264  0.2073 -0.3735  0.8579
  127MOL    O9545707   2.098   3.110   4.316  0.0158  0.3550  0.4970
  127MOL    O9645708   1.954   3.026   4.171  0.2206  0.3981  0.0565
  127MOL    C9745709   1.905   3.150   4.130  1.1140 -0.3720 -0.6909
  127MOL    C9845710   1.825   3.119   4.005 -1.4444  0.1397 -0.1321
  127MOL    C9945711   1.736   3.239   3.980 -0.6328 -0.5525 -0.3125
  127MOL   H10045712   2.155   2.832   4.100 -1.5468 -0.1796 -0.0705
  127MOL   H10145713   2.291   2.874   4.190 -0.8948 -0.2228 -0.1953
  127MOL   H10245714   2.141   2.880   4.393 -0.5473  1.7625 -0.0358
  127MOL   H10345715   1.854   3.198   4.213  2.2949 -1.4564  0.6922
  127MOL   H10445716   1.988   3.218   4.107  1.1590 -0.9618 -2.3774
  127MOL   H10545717   1.883   3.088   3.918  0.2373 -0.7120  1.2758
  127MOL   H10645718   1.759   3.036   4.027 -0.2953 -0.3967  1.3834
  127MOL   H10745719   1.686   3.226   3.884  0.1018 -1.5103 -0.5825
  127MOL   H10845720   1.786   3.335   3.991 -0.5888 -0.7495  1.2519
  127MOL   H10945721   1.658   3.247   4.055 -1.5214 -1.8486 -1.0638
  127MOL   C11045722   1.969   2.778   4.311  0.3174  0.4400 -0.2026
  127MOL   C11145723   1.877   2.781   4.445  0.5529  0.3297 -0.8199
  127MOL   C11245724   1.813   2.920   4.475 -0.1644 -0.6607  0.7612
  127MOL   O11345725   1.862   2.997   4.559  0.0445  0.0602 -0.3772
  127MOL   O11445726   1.700   2.940   4.415 -0.0051  0.7241 -0.1744
  127MOL   C11545727   1.617   3.032   4.477  0.1515 -0.1047 -0.3048
  127MOL   C11645728   1.492   2.976   4.546  0.1195 -0.2499 -0.2739
  127MOL   C11745729   1.507   2.955   4.694  0.7001 -0.1849 -0.0610
  127MOL   H11845730   2.009   2.676   4.312 -1.1724 -0.1493 -0.2347
  127MOL   H11945731   1.901   2.788   4.227  0.8436  0.9797 -0.5659
  127MOL   H12045732   1.948   2.748   4.521 -0.2058  0.1737 -0.1718
  127MOL   H12145733   1.668   3.098   4.546  1.0130 -0.4441 -0.6087
  127MOL   H12245734   1.590   3.111   4.407  0.5784 -0.3505 -0.7553
  127MOL   H12345735   1.405   3.041   4.545  0.0537 -0.3210  0.6231
  127MOL   H12445736   1.448   2.884   4.507 -0.7177  1.5329 -3.7244
  127MOL   H12545737   1.589   3.015   4.734 -2.0591  3.1232  0.8602
  127MOL   H12645738   1.530   2.852   4.722 -1.4033 -0.4084  0.9957
  127MOL   H12745739   1.415   2.974   4.750 -0.7463 -1.0837 -2.0542
  127MOL   C12845740   1.773   2.658   4.443  0.8268  0.2818 -0.2884
  127MOL   C12945741   1.709   2.622   4.577 -0.2305 -0.2697 -0.6496
  127MOL   C13045742   1.577   2.539   4.563 -0.6263 -0.1570 -1.4357
  127MOL   O13145743   1.582   2.419   4.541 -0.1427 -0.2340  0.3301
  127MOL   O13245744   1.477   2.616   4.568 -0.3567  0.6141 -0.0043
  127MOL   C13345745   1.348   2.563   4.540 -0.4571  0.2308  0.1929
  127MOL   C13445746   1.271   2.528   4.665  0.0433 -0.7972  1.0015
  127MOL   C13545747   1.225   2.659   4.751 -0.1191 -0.6940  0.2044
  127MOL   H13645748   1.835   2.573   4.415  0.8935 -0.3730  1.7629
  127MOL   H13745749   1.704   2.672   4.360  1.4191  0.7232 -0.7213
  127MOL   H13845750   1.683   2.720   4.618  0.4157 -0.4005  0.0687
  127MOL   H13945751   1.288   2.629   4.477  0.1749 -2.1420 -3.0067
  127MOL   H14045752   1.360   2.477   4.475  0.1483 -0.2743  0.9688
  127MOL   H14145753   1.189   2.461   4.638 -0.1171 -0.3172  0.2831
  127MOL   H14245754   1.328   2.471   4.739  0.5451 -3.4443 -1.3516
  127MOL   H14345755   1.314   2.692   4.804 -1.1149  0.3869  1.2154
  127MOL   H14445756   1.157   2.639   4.835  0.4017  0.0040  0.7946
  127MOL   H14545757   1.171   2.733   4.692 -0.6467  0.1401  1.6918
  127MOL   C14645758   1.813   2.554   4.672 -1.1329 -0.1079  0.2512
  127MOL   C14745759   1.786   2.524   4.822 -0.2601 -0.8270 -0.3902
  127MOL   C14845760   1.746   2.659   4.899 -0.6951 -0.0019  0.5230
  127MOL   O14945761   1.635   2.674   4.948  0.5861 -0.0742 -0.3961
  127MOL   O15045762   1.845   2.749   4.905  0.3808 -0.1882  0.2360
  127MOL   C15145763   1.824   2.874   4.956 -0.5097 -0.7216 -0.6490
  127MOL   C15245764   1.939   2.967   4.930  0.0968  0.1059 -0.2665
  127MOL   C15345765   2.071   2.911   4.974 -0.4394 -0.3422 -0.0732
  127MOL   H15445766   1.912   2.601   4.666 -0.2908 -1.9152 -0.5011
  127MOL   H15545767   1.839   2.463   4.617  1.3566  1.3039 -1.0157
  127MOL   H15645768   1.886   2.506   4.861  0.5290  2.9035 -0.4771
  127MOL   H15745769   1.739   2.930   4.917 -0.1142  1.6633  1.7408
  127MOL   H15845770   1.802   2.867   5.063  0.4836  4.1637  0.0166
  127MOL   H15945771   1.944   2.997   4.826  0.2802 -2.4264 -1.0125
  127MOL   H16045772   1.921   3.053   4.995 -1.3154 -0.6382  0.3614
  127MOL   H16145773   2.099   2.825   4.914  0.8827 -1.2249  1.7659
  127MOL   H16245774   2.085   2.891   5.080 -1.1312  0.3700  0.1556
  127MOL   H16345775   2.157   2.976   4.958 -1.3635  1.0441  0.5027
  127MOL   C16445776   1.683   2.413   4.862 -0.0077  0.4165 -0.2487
  127MOL   C16545777   1.697   2.264   4.807  1.4201  0.2487 -0.4123
  127MOL   C16645778   1.818   2.202   4.870 -0.4514  0.1730 -0.0705
  127MOL   O16745779   1.909   2.149   4.800  0.2702 -0.3025  0.1036
  127MOL   O16845780   1.821   2.205   4.999 -0.0714 -0.0942 -0.4831
  127MOL   C16945781   1.920   2.140   5.082 -0.3336  0.3112 -0.5243
  127MOL   C17045782   1.967   2.240   5.197 -0.2507 -0.4548 -0.0034
  127MOL   C17145783   2.039   2.364   5.152  0.2244  0.1326 -0.6901
  127MOL   H17245784   1.591   2.454   4.819  0.0870  0.6482 -0.2331
  127MOL   H17345785   1.677   2.412   4.971  2.2581  0.7042 -0.0971
  127MOL   H17445786   1.721   2.277   4.702 -0.8575  2.5393 -0.6777
  127MOL   H17545787   1.870   2.057   5.134 -1.5498  2.1733  1.3653
  127MOL   H17645788   2.008   2.096   5.035  0.8521  0.3166  1.5974
  127MOL   H17745789   1.877   2.263   5.255 -0.0159 -1.6670  0.8594
  127MOL   H17845790   2.024   2.167   5.253  1.4771 -1.7151 -3.2757
  127MOL   H17945791   2.133   2.347   5.099  0.1766  1.0307 -1.0813
  127MOL   H18045792   2.063   2.403   5.251  0.8847 -0.5056 -0.5932
  127MOL   H18145793   1.966   2.427   5.099 -1.6780 -1.6618 -0.2669
  127MOL   C18245794   1.563   2.197   4.823  0.5336  0.7695  0.1485
  127MOL   C18345795   1.541   2.043   4.797 -0.5260 -0.0542  0.3376
  127MOL   C18445796   1.394   2.011   4.828 -0.1352 -0.0621  0.0480
  127MOL   O18545797   1.362   1.936   4.922 -0.1717 -0.9795  0.0864
  127MOL   O18645798   1.307   2.063   4.747 -0.2008  0.1449 -0.4556
  127MOL   C18745799   1.167   2.050   4.774  0.8614 -0.1618  0.8686
  127MOL   C18845800   1.081   2.167   4.713 -0.5229  0.5201 -0.3798
  127MOL   C18945801   0.929   2.149   4.721  0.2022  0.4468 -0.0016
  127MOL   H19045802   1.492   2.253   4.762 -2.1527 -2.1523  0.4524
  127MOL   H19145803   1.530   2.227   4.923 -0.3639  1.8536 -0.4528
  127MOL   H19245804   1.602   1.987   4.868 -0.1724  0.1520  0.1958
  127MOL   H19345805   1.133   1.954   4.735 -0.9970  1.3304 -1.3310
  127MOL   H19445806   1.153   2.046   4.882  0.1108  0.8168  0.8132
  127MOL   H19545807   1.103   2.262   4.764 -0.7127  1.2008 -1.5429
  127MOL   H19645808   1.116   2.171   4.610  1.7587  1.1477  0.3884
  127MOL   H19745809   0.880   2.234   4.673 -2.1247  0.7848  2.8878
  127MOL   H19845810   0.896   2.135   4.824 -1.1763  1.8869 -0.2277
  127MOL   H19945811   0.891   2.057   4.676 -0.6987  0.9072 -0.1935
  127MOL   C20045812   1.591   2.002   4.661 -0.0712 -0.0722  0.6976
  127MOL   C20145813   1.637   1.853   4.654 -0.2700  0.2818 -0.2669
  127MOL   C20245814   1.522   1.752   4.688 -0.1880 -0.4751  0.2071
  127MOL   O20345815   1.527   1.668   4.774  0.1067 -0.2157  0.4372
  127MOL   O20445816   1.421   1.783   4.607 -0.7321 -0.1784  0.2585
  127MOL   C20545817   1.306   1.695   4.600  0.1988 -0.0680  0.2845
  127MOL   C20645818   1.316   1.569   4.507  0.1833 -0.6591 -0.1971
  127MOL   C20745819   1.341   1.629   4.373 -0.5451  0.0413  0.3553
  127MOL   H20845820   1.686   2.044   4.628 -0.0874 -0.8089 -0.3227
  127MOL   H20945821   1.519   2.027   4.584  0.3170 -1.8137 -0.2683
  127MOL   H21045822   1.717   1.835   4.726  0.1400 -2.4709 -1.3802
  127MOL   H21145823   1.280   1.651   4.697 -2.4160  0.7881  0.0141
  127MOL   H21245824   1.225   1.752   4.554  1.3567 -0.8365 -2.7566
  127MOL   H21345825   1.400   1.510   4.544  0.0919  0.3847  1.7230
  127MOL   H21445826   1.231   1.502   4.505 -1.5174  1.4375 -0.0490
  127MOL   H21545827   1.260   1.698   4.349 -1.6967 -1.2652  0.3951
  127MOL   H21645828   1.357   1.553   4.296  1.8536  2.0750 -1.2455
  127MOL   H21745829   1.432   1.689   4.364  0.9416 -2.2434 -0.4569
  127MOL   C21845830   1.703   1.807   4.526 -0.0909 -1.5277 -0.1171
  127MOL   C21945831   1.816   1.702   4.539  0.2255  0.0717 -1.0580
  127MOL   C22045832   1.850   1.650   4.397  0.3294  0.6902  0.2117
  127MOL   O22145833   1.933   1.700   4.324 -0.3370  0.1689 -0.7292
  127MOL   O22245834   1.782   1.538   4.375  0.3257 -0.4663 -0.1544
  127MOL   C22345835   1.781   1.470   4.247 -0.4569  0.5447  0.1728
  127MOL   C22445836   1.637   1.463   4.198  0.3186 -0.0447  0.7829
  127MOL   C22545837   1.645   1.386   4.063  0.4081  1.0523  0.1491
  127MOL   H22645838   1.759   1.897   4.501  0.6293 -0.5866  4.5408
  127MOL   H22745839   1.639   1.797   4.438 -0.3451  0.2536 -0.1485
  127MOL   H22845840   1.775   1.621   4.599 -0.1199  1.0383  0.0351
  127MOL   H22945841   1.849   1.524   4.181  0.0091 -1.1584 -0.7715
  127MOL   H23045842   1.822   1.371   4.259  1.2163  1.0074 -1.5412
  127MOL   H23145843   1.573   1.409   4.269 -1.8874 -0.2834 -1.3410
  127MOL   H23245844   1.588   1.560   4.192  3.4402  1.4406 -2.1114
  127MOL   H23345845   1.542   1.366   4.035  0.6819 -0.9812  0.4983
  127MOL   H23445846   1.694   1.288   4.061 -2.2882 -0.4327  1.9995
  127MOL   H23545847   1.690   1.461   3.998 -2.0980  2.8635  0.4434
  127MOL   C23645848   1.936   1.764   4.617 -0.1931  0.6396 -0.0539
  127MOL   C23745849   2.073   1.686   4.605 -0.3232 -0.9807 -0.8957
  127MOL   C23845850   2.195   1.772   4.659 -0.7858 -0.5181  0.7504
  127MOL   O23945851   2.286   1.729   4.725  0.2445  0.1728  0.1583
  127MOL   O24045852   2.181   1.902   4.624 -0.5328  0.2524  0.6538
  127MOL   C24145853   2.298   1.991   4.633  0.5382  0.0263 -0.0090
  127MOL   C24245854   2.293   2.070   4.772 -0.8410  0.7457  0.2120
  127MOL   C24345855   2.348   1.988   4.890 -0.3956  0.4375  0.2679
  127MOL   H24445856   1.923   1.784   4.723 -3.8407  1.6311 -0.6288
  127MOL   H24545857   1.942   1.863   4.574 -0.1885  0.7741  0.2552
  127MOL   H24645858   2.096   1.671   4.499 -0.3171  0.3040 -1.0817
  127MOL   H24745859   2.391   1.934   4.631  1.0935  0.9032  0.2469
  127MOL   H24845860   2.289   2.065   4.554 -0.6354 -0.2566 -0.1588
  127MOL   H24945861   2.354   2.160   4.766 -1.4033  1.0398 -1.5490
  127MOL   H25045862   2.192   2.100   4.797 -0.9561 -1.1002  2.0868
  127MOL   H25145863   2.275   1.914   4.922  1.3910 -0.4097  2.5229
  127MOL   H25245864   2.360   2.050   4.979 -1.8879  1.8619 -0.4929
  127MOL   H25345865   2.443   1.937   4.874 -0.5070 -0.4839  2.3735
  127MOL   C25445866   2.062   1.547   4.674 -0.6287 -0.6299  0.1334
  127MOL   C25545867   2.166   1.444   4.626 -0.0255 -0.5853  0.1017
  127MOL   C25645868   2.195   1.341   4.740 -0.0668 -0.5793  0.0893
  127MOL   O25745869   2.101   1.298   4.811  0.1393 -0.1785  0.7097
  127MOL   O25845870   2.316   1.295   4.745  0.3928 -0.2217  0.7178
  127MOL   C25945871   2.351   1.191   4.824 -1.0897 -0.1112 -0.7154
  127MOL   C26045872   2.483   1.130   4.782  0.4074  0.4744 -0.0645
  127MOL   C26145873   2.603   1.206   4.842 -0.0941 -0.9297  0.3359
  127MOL   H26245874   1.961   1.517   4.648 -2.0164  2.3899  1.9131
  127MOL   H26345875   2.045   1.554   4.781 -1.5485 -0.8725  0.0085
  127MOL   H26445876   2.257   1.502   4.610 -0.8867  1.8537  3.4183
  127MOL   H26545877   2.361   1.230   4.925 -1.1893 -0.4669 -0.5682
  127MOL   H26645878   2.275   1.114   4.832 -0.4727 -0.8155 -1.5356
  127MOL   H26745879   2.494   1.028   4.819  0.3657 -0.1317 -1.6663
  127MOL   H26845880   2.496   1.131   4.674 -0.5118  0.2840 -0.1864
  127MOL   H26945881   2.616   1.310   4.811  1.4005 -0.3084  2.9189
  127MOL   H27045882   2.698   1.158   4.822  0.8471  1.0638 -0.1271
  127MOL   H27145883   2.590   1.203   4.950 -1.0488  0.4176  0.2731
  127MOL   C27245884   2.123   1.383   4.486 -0.2620  0.1205  0.6076
  127MOL   C27345885   2.239   1.338   4.396  0.7951  0.0284 -0.0286
  127MOL   C27445886   2.205   1.200   4.338 -0.5032  0.3331  0.1512
  127MOL   O27545887   2.281   1.109   4.359  0.3742  0.0709 -0.1849
  127MOL   O27645888   2.098   1.186   4.256  0.0342  0.0664  0.1214
  127MOL   C27745889   2.050   1.054   4.230  0.2340 -0.0662 -0.2935
  127MOL   C27845890   1.942   1.011   4.329  0.0519 -1.0512  0.5340
  127MOL   C27945891   1.807   1.073   4.297 -0.9076  0.5052  0.1565
  127MOL   H28045892   2.066   1.453   4.426 -0.6189 -1.0597 -0.4480
  127MOL   H28145893   2.061   1.296   4.509  0.3105  0.1122  2.2067
  127MOL   H28245894   2.334   1.318   4.446  0.4198 -0.1968  0.6113
  127MOL   H28345895   2.007   1.069   4.131 -0.5585  0.1398  0.0788
  127MOL   H28445896   2.125   0.975   4.216 -0.3812 -0.7581  0.2725
  127MOL   H28545897   1.930   0.905   4.308  1.3695 -1.1019 -0.0430
  127MOL   H28645898   1.976   1.030   4.431 -0.4690 -3.1887  1.1328
  127MOL   H28745899   1.783   1.056   4.192  1.6824  1.4744 -0.6321
  127MOL   H28845900   1.799   1.177   4.329 -0.8070  1.9225 -4.1022
  127MOL   H28945901   1.727   1.025   4.352  1.2623 -0.9742  2.0801
  127MOL   C29045902   2.264   1.435   4.272  0.0649  0.3180 -0.3857
  127MOL   C29145903   2.338   1.561   4.327  0.5913 -0.4866 -0.7090
  127MOL   C29245904   2.477   1.528   4.382 -0.2754 -0.1193  0.1365
  127MOL   O29345905   2.508   1.564   4.496  0.1969 -0.6355  0.0594
  127MOL   O29445906   2.555   1.478   4.285  0.2988 -0.1760  0.1616
  127MOL   C29545907   2.687   1.439   4.314 -0.2629 -0.0849 -0.7492
  127MOL   C29645908   2.715   1.289   4.311  0.1118  0.6427 -0.2531
  127MOL   C29745909   2.663   1.216   4.429  0.1166 -0.0378  0.3257
  127MOL   H29845910   2.171   1.466   4.224  0.1235  1.1490  0.0155
  127MOL   H29945911   2.327   1.383   4.200  1.2171  1.3303 -0.1273
  127MOL   H30045912   2.268   1.608   4.395 -0.4194  0.4475 -2.3611
  127MOL   H30145913   2.753   1.472   4.234  0.6059 -1.9791 -0.8522
  127MOL   H30245914   2.722   1.499   4.398 -1.6854  1.3302 -1.1332
  127MOL   H30345915   2.660   1.257   4.222  0.0330  0.7144 -0.2293
  127MOL   H30445916   2.822   1.266   4.307  0.0378  0.0785  0.9353
  127MOL   H30545917   2.555   1.212   4.437  0.3272 -0.2888  4.0408
  127MOL   H30645918   2.699   1.265   4.520  2.2740  2.3714 -1.7649
  127MOL   H30745919   2.690   1.111   4.432  0.8649  0.1695  1.1429
  127MOL   C30845920   2.339   1.671   4.218  0.1243 -0.7089  0.1274
  127MOL   C30945921   2.365   1.822   4.257 -0.1842  0.2338 -0.0147
  127MOL   C31045922   2.510   1.850   4.288 -0.0687  0.3785 -0.0392
  127MOL   O31145923   2.543   1.879   4.400 -0.2635 -0.2734  0.1438
  127MOL   O31245924   2.594   1.833   4.185 -0.6198 -0.0610 -0.4289
  127MOL   C31345925   2.728   1.877   4.202  0.7171 -0.2983  0.3920
  127MOL   C31445926   2.809   1.792   4.107 -0.0013 -0.6909 -0.1336
  127MOL   C31545927   2.956   1.830   4.096 -0.8043 -0.5850 -0.2011
  127MOL   H31645928   2.243   1.669   4.167  0.2835  2.6014 -0.4264
  127MOL   H31745929   2.410   1.647   4.138 -1.0481 -3.0258 -0.2757
  127MOL   H31845930   2.311   1.836   4.350 -0.5251  1.8704 -0.4533
  127MOL   H31945931   2.743   1.983   4.181 -2.6912 -0.1816 -1.9172
  127MOL   H32045932   2.759   1.867   4.306  2.3559  0.0258 -0.0464
  127MOL   H32145933   2.801   1.686   4.130  0.0984 -1.1568 -2.1508
  127MOL   H32245934   2.782   1.815   4.004  3.4484  1.8273 -0.5855
  127MOL   H32345935   2.999   1.830   4.196 -1.6642 -0.5900  0.1793
  127MOL   H32445936   3.010   1.765   4.027  1.3155  0.9116  0.0237
  127MOL   H32545937   2.954   1.926   4.046 -0.5267  0.6304  2.0314
  127MOL   C32645938   2.306   1.911   4.142  0.0504  0.3071  0.1133
  127MOL   C32745939   2.156   1.936   4.158 -0.8742 -0.1285 -0.2368
  127MOL   C32845940   2.117   2.030   4.275 -0.0163  0.2968 -0.3832
  127MOL   O32945941   2.195   2.103   4.335  0.0809  0.5009  0.4229
  127MOL   O33045942   1.983   2.035   4.301 -0.0145  0.3267 -0.0202
  127MOL   C33145943   1.924   2.119   4.399  0.8423 -0.0775  0.6078
  127MOL   C33245944   1.944   2.268   4.369 -0.3758  0.0183 -0.4477
  127MOL   C33345945   1.873   2.320   4.246  0.2158 -0.2058  0.0994
  127MOL   H33445946   2.325   1.857   4.049 -1.2163  1.7374 -0.9874
  127MOL   H33545947   2.365   2.002   4.128  2.8868 -1.3937  0.4366
  127MOL   H33645948   2.112   1.840   4.185 -1.3914  0.1899  0.0676
  127MOL   H33745949   1.819   2.093   4.413  0.2801  0.9946 -1.5028
  127MOL   H33845950   1.971   2.104   4.497  0.3136  0.4400  0.9430
  127MOL   H33945951   1.901   2.318   4.456  2.2305  0.1174  0.8509
  127MOL   H34045952   2.048   2.301   4.363  0.3613 -2.1579 -0.1319
  127MOL   H34145953   1.915   2.265   4.163 -2.3317  0.7354 -1.8690
  127MOL   H34245954   1.765   2.305   4.247  0.0949  0.5174  2.5444
  127MOL   H34345955   1.896   2.426   4.233  0.5089 -0.3289 -0.3749
  127MOL   C34445956   2.102   1.981   4.021 -0.8376  0.2834  0.0785
  127MOL   C34545957   1.952   1.968   4.002  0.0636  0.2195  0.0173
  127MOL   C34645958   1.899   1.829   3.986 -0.3530  0.5640 -0.3813
  127MOL   O34745959   1.812   1.787   4.065 -0.0593 -0.1154 -0.1934
  127MOL   O34845960   1.957   1.764   3.884 -0.1283 -0.6081 -0.1146
  127MOL   C34945961   1.917   1.630   3.853 -0.1373 -0.4688  0.0310
  127MOL   C35045962   1.994   1.532   3.945  0.0609  0.0134 -0.1199
  127MOL   C35145963   2.138   1.522   3.901 -0.3325  0.2974  0.2978
  127MOL   H35245964   2.160   1.921   3.949 -0.3124  0.1851  0.5794
  127MOL   H35345965   2.122   2.087   4.006 -1.1059  0.2273 -0.6852
  127MOL   H35445966   1.920   2.029   3.918 -1.5756  0.0722  0.5209
  127MOL   H35545967   1.810   1.607   3.859 -0.0952 -0.2210  2.0789
  127MOL   H35645968   1.934   1.615   3.747 -0.5164  0.5094 -0.1703
  127MOL   H35745969   1.992   1.565   4.049 -2.2741 -0.8556  0.1317
  127MOL   H35845970   1.953   1.431   3.946 -1.8273  0.7583  0.0249
  127MOL   H35945971   2.206   1.481   3.976  1.3946  4.0582  0.8820
  127MOL   H36045972   2.156   1.479   3.803 -2.3809 -0.8355  0.3923
  127MOL   H36145973   2.178   1.622   3.884  1.4226 -0.5983 -0.9892
  127MOL   H36245974   1.894   2.016   4.081 -0.4544 -0.9325  0.3392
  128MOL     C145975   7.737   3.811   0.708 -0.0336 -0.1173 -0.0055
  128MOL     C245976   7.873   3.866   0.754 -0.7618 -0.1931  0.7992
  128MOL     C345977   0.097   3.754   0.723  0.4561 -0.5695  0.5538
  128MOL     O445978   0.157   3.686   0.811  0.2472  0.4437 -0.2484
  128MOL     O545979   0.093   3.732   0.592  0.1544 -0.3696 -0.2121
  128MOL     C645980   0.172   3.626   0.542 -0.3765 -0.1754  0.1576
  128MOL     C745981   0.085   3.504   0.516  0.4425 -0.2630  0.2409
  128MOL     C845982   7.844   3.530   0.427  0.0920 -0.2198  0.0829
  128MOL     H945983   7.729   3.706   0.735 -0.3575  0.1591  0.9683
  128MOL    H1045984   7.650   3.867   0.741  0.6772  2.1540 -1.8457
  128MOL    H1145985   0.008   3.889   0.859  1.4723 -0.5996  0.5824
  128MOL    H1245986   0.225   3.648   0.450 -1.9134  1.4950 -0.3441
  128MOL    H1345987   0.261   3.607   0.602  1.1905  2.8658 -1.1376
  128MOL    H1445988   0.153   3.425   0.484  1.9777  1.1569 -0.0802
  128MOL    H1545989   0.046   3.473   0.613  0.0402  0.9949  0.4835
  128MOL    H1645990   7.865   3.578   0.332  0.8677  2.2766  1.4615
  128MOL    H1745991   7.796   3.436   0.400  1.2244 -1.1516  1.2302
  128MOL    H1845992   7.763   3.587   0.471  0.1902  0.5134 -0.6725
  128MOL    H1945993   7.721   3.817   0.600 -0.1910 -1.5364 -0.0687
  128MOL    C2045994   0.029   3.995   0.684 -0.3255 -0.0114 -0.4347
  128MOL    C2145995   0.171   4.048   0.728 -0.1202 -0.3343 -0.3954
  128MOL    C2245996   0.226   4.153   0.632  0.6912 -0.0706  0.7511
  128MOL    O2345997   0.348   4.159   0.593 -0.2510  0.3913 -0.0191
  128MOL    O2445998   0.130   4.234   0.589  0.1226 -0.1836 -0.3509
  128MOL    C2545999   0.163   4.349   0.516 -0.6931 -0.1860 -1.0298
  128MOL    C2646000   0.047   4.424   0.452  0.0794  0.2297 -0.8543
  128MOL    C2746001   0.089   4.550   0.379  0.3121 -0.9924  0.0098
  128MOL    H2846002   7.837   4.067   0.723 -2.7498 -2.1055 -0.9439
  128MOL    H2946003   0.024   3.998   0.575 -1.3922  1.7631 -0.3618
  128MOL    H3046004   0.246   3.969   0.720  2.6417  2.2759 -1.2061
  128MOL    H3146005   0.227   4.411   0.579 -1.5016 -1.0719  0.6862
  128MOL    H3246006   0.229   4.314   0.437  1.9190  2.8334 -0.2715
  128MOL    H3346007   0.007   4.354   0.379  0.7346  0.3895 -1.3740
  128MOL    H3446008   7.853   4.454   0.526  1.1809  0.5747  0.1395
  128MOL    H3546009   0.165   4.528   0.304  0.8866  0.6578  0.0969
  128MOL    H3646010   0.136   4.613   0.454  1.6758 -1.2840 -0.5876
  128MOL    H3746011   0.010   4.605   0.328  1.2581  1.3093  0.9442
  128MOL    C3846012   0.188   4.085   0.869 -0.4632 -0.7626  0.4388
  128MOL    C3946013   0.336   4.095   0.930 -0.0446  0.4622  0.7376
  128MOL    C4046014   0.345   4.221   1.017 -0.1478  0.2999 -0.0847
  128MOL    O4146015   0.310   4.231   1.132 -0.1439  0.1001  0.0562
  128MOL    O4246016   0.386   4.318   0.945 -0.0537  0.3317 -0.0052
  128MOL    C4346017   0.421   4.443   1.002 -0.0556 -0.0564 -0.1664
  128MOL    C4446018   0.402   4.548   0.897 -0.1782 -0.8782  0.7494
  128MOL    C4546019   0.464   4.686   0.939 -0.3911  0.2491  0.0278
  128MOL    H4646020   0.119   4.028   0.932  1.6775 -0.1907  3.4419
  128MOL    H4746021   0.143   4.184   0.871  0.7293 -0.2166  2.7747
  128MOL    H4846022   0.407   4.109   0.848  0.5335  1.2515  1.3671
  128MOL    H4946023   0.363   4.461   1.092  0.0231 -1.7987  0.2455
  128MOL    H5046024   0.527   4.436   1.029  0.5740 -1.1461 -2.8193
  128MOL    H5146025   0.429   4.510   0.798  0.6736  0.6158  0.3870
  128MOL    H5246026   0.294   4.562   0.900 -0.1883 -0.8134  0.1220
  128MOL    H5346027   0.573   4.680   0.939 -0.3105  1.5559  0.3131
  128MOL    H5446028   0.444   4.710   1.043 -0.8134 -1.9061  0.4583
  128MOL    H5546029   0.433   4.765   0.870 -1.0735  0.0829  0.1467
  128MOL    C5646030   0.358   3.961   0.997  0.0890 -0.4529  0.3787
  128MOL    C5746031   0.508   3.925   1.019 -0.5484  0.2142  0.2975
  128MOL    C5846032   0.591   4.007   1.120 -0.0226 -0.0227  0.7008
  128MOL    O5946033   0.695   4.067   1.094  0.3894  0.0523  0.3457
  128MOL    O6046034   0.532   4.025   1.238  1.3377 -0.0848 -0.1864
  128MOL    C6146035   0.569   4.123   1.328  0.3746  0.3966  0.1661
  128MOL    C6246036   0.501   4.078   1.463 -0.0654  0.0746  0.0226
  128MOL    C6346037   0.353   4.110   1.473  0.2485 -0.2713 -0.7196
  128MOL    H6446038   0.313   3.879   0.940  0.3755  0.6155 -1.4158
  128MOL    H6546039   0.306   3.954   1.093  1.9421  0.3405  1.4697
  128MOL    H6646040   0.551   3.949   0.921 -1.8459 -1.2819 -0.6691
  128MOL    H6746041   0.676   4.129   1.345  0.8473 -4.9678 -0.1093
  128MOL    H6846042   0.542   4.225   1.299 -0.5142  1.5754  4.7667
  128MOL    H6946043   0.514   3.973   1.487 -1.0896  0.0820  0.6674
  128MOL    H7046044   0.565   4.120   1.541  0.4725  0.5904 -0.6939
  128MOL    H7146045   0.331   4.044   1.557  1.7031 -1.1403 -1.0166
  128MOL    H7246046   0.290   4.094   1.385 -1.1397 -1.3768  0.4453
  128MOL    H7346047   0.340   4.215   1.499  0.5772 -0.4280  0.0837
  128MOL    C7446048   0.530   3.772   1.031  0.0042  0.5165  0.2326
  128MOL    C7546049   0.494   3.691   1.162 -0.0625  0.5911 -0.5448
  128MOL    C7646050   0.348   3.645   1.157  0.2642  0.0512  0.3296
  128MOL    O7746051   0.317   3.538   1.113 -0.8247 -0.1517 -0.5086
  128MOL    O7846052   0.263   3.730   1.214  0.5976  0.0932 -0.2923
  128MOL    C7946053   0.126   3.691   1.233 -0.0323  0.3944 -0.3101
  128MOL    C8046054   0.062   3.795   1.319  0.3493  0.2916 -0.1685
  128MOL    C8146055   7.789   3.779   1.326 -0.3342  0.6080  0.1404
  128MOL    H8246056   0.635   3.764   1.003  0.0939  0.9698  0.4277
  128MOL    H8346057   0.491   3.720   0.944  1.8850 -0.8254  0.1671
  128MOL    H8446058   0.497   3.763   1.244 -2.2837  1.0725 -0.8673
  128MOL    H8546059   0.083   3.690   1.133  1.7512  2.1452 -1.1425
  128MOL    H8646060   0.127   3.588   1.269 -1.7461  0.5747  0.2717
  128MOL    H8746061   0.095   3.785   1.422  1.3211  0.7595 -0.4277
  128MOL    H8846062   0.089   3.893   1.279 -4.2941  1.8523  0.2680
  128MOL    H8946063   7.758   3.676   1.347  0.0749  0.0973 -1.6607
  128MOL    H9046064   7.758   3.807   1.226 -0.2531 -0.8268 -0.3008
  128MOL    H9146065   7.743   3.852   1.392 -0.3182  1.1308 -0.4238
  128MOL    C9246066   0.591   3.571   1.192  0.8485  0.8293  0.0150
  128MOL    C9346067   0.724   3.603   1.266 -0.1842  0.3012  0.0271
  128MOL    C9446068   0.706   3.663   1.410  0.5668  0.0190 -0.1879
  128MOL    O9546069   0.738   3.777   1.429  0.2939  0.5588  0.1896
  128MOL    O9646070   0.640   3.584   1.494 -0.2704  0.1227  0.5905
  128MOL    C9746071   0.605   3.623   1.625  0.1276  0.2042 -0.4722
  128MOL    C9846072   0.463   3.692   1.622  0.1210  1.1288 -0.4030
  128MOL    C9946073   0.347   3.605   1.572 -0.3002 -0.1592  0.3205
  128MOL   H10046074   0.600   3.520   1.096 -1.3704  1.8376 -0.7622
  128MOL   H10146075   0.537   3.499   1.254  1.8995  0.1296  0.1167
  128MOL   H10246076   0.779   3.673   1.203 -2.2786  0.5767 -1.5679
  128MOL   H10346077   0.612   3.541   1.695  0.0925  1.2223  0.7328
  128MOL   H10446078   0.681   3.691   1.661 -1.5665  3.2467 -2.3373
  128MOL   H10546079   0.437   3.737   1.718 -1.6572 -0.4384 -0.1149
  128MOL   H10646080   0.473   3.774   1.551 -2.6809  1.2636 -0.7007
  128MOL   H10746081   0.366   3.577   1.468 -0.6144  1.0253 -0.0603
  128MOL   H10846082   0.251   3.656   1.571  0.3747  1.1512 -3.1059
  128MOL   H10946083   0.333   3.515   1.632  1.6381 -0.7985 -0.1498
  128MOL   C11046084   0.805   3.474   1.279 -0.3140 -0.2123  0.5366
  128MOL   C11146085   0.940   3.476   1.194  0.0985 -0.1775  0.2193
  128MOL   C11246086   1.041   3.582   1.242 -0.0482  0.0435 -0.5178
  128MOL   O11346087   1.051   3.690   1.187 -0.3595 -0.0705  0.3518
  128MOL   O11446088   1.096   3.548   1.362 -0.3720  0.2559  0.4796
  128MOL   C11546089   1.180   3.638   1.433  0.2248 -0.2373  0.1546
  128MOL   C11646090   1.098   3.687   1.557  0.4775 -0.0143 -0.9744
  128MOL   C11746091   1.076   3.573   1.656  1.0119 -0.0120  0.1526
  128MOL   H11846092   0.739   3.397   1.239  1.4363 -2.5090  1.9746
  128MOL   H11946093   0.831   3.449   1.382 -2.7897 -1.0727  0.9854
  128MOL   H12046094   0.911   3.514   1.096  3.0477  0.3851 -0.5004
  128MOL   H12146095   1.276   3.589   1.448 -0.3497 -0.8848  1.9095
  128MOL   H12246096   1.208   3.735   1.392 -1.0309 -0.6381 -1.7111
  128MOL   H12346097   1.152   3.765   1.610 -1.4592  0.2911  0.6029
  128MOL   H12446098   1.001   3.731   1.534 -0.1339  0.1247  1.6861
  128MOL   H12546099   1.165   3.551   1.715 -0.4164 -1.7981  1.6970
  128MOL   H12646100   1.057   3.478   1.606 -0.0870 -0.6424  1.7184
  128MOL   H12746101   1.001   3.594   1.733  1.4501  0.2886  0.4986
  128MOL   C12846102   1.009   3.337   1.190  0.1007 -0.3636 -0.3542
  128MOL   C12946103   0.936   3.216   1.128  0.0817  0.1494  0.3606
  128MOL   C13046104   0.865   3.253   0.991  1.0524  0.2494  0.5535
  128MOL   O13146105   0.755   3.208   0.961  0.0783  0.4824  0.2943
  128MOL   O13246106   0.936   3.337   0.923  0.0231  0.1823 -0.0298
  128MOL   C13346107   0.892   3.384   0.794 -0.7996 -0.0292  0.6464
  128MOL   C13446108   1.017   3.400   0.704 -0.1722  0.5268  0.9577
  128MOL   C13546109   1.099   3.267   0.701  0.5919  0.6502  0.5889
  128MOL   H13646110   1.054   3.305   1.285  2.0226  2.3865 -0.2887
  128MOL   H13746111   1.100   3.350   1.132 -0.4692  0.2058 -1.1244
  128MOL   H13846112   0.857   3.195   1.200 -0.8199  1.8191 -0.1097
  128MOL   H13946113   0.826   3.312   0.744  0.8064 -1.2483  0.2247
  128MOL   H14046114   0.829   3.472   0.801  1.4130  1.5089  1.5036
  128MOL   H14146115   0.970   3.415   0.607 -1.1214 -0.9783  1.1645
  128MOL   H14246116   1.076   3.487   0.732  1.2323 -0.5041  1.2683
  128MOL   H14346117   1.166   3.250   0.785  1.3905 -1.3036 -0.4026
  128MOL   H14446118   1.167   3.289   0.619  2.5743 -0.6663  1.8601
  128MOL   H14546119   1.057   3.178   0.654 -1.2141  3.3372 -3.1710
  128MOL   C14646120   1.017   3.082   1.124  0.1509  0.6249 -1.3077
  128MOL   C14746121   0.942   2.951   1.109 -0.2983 -0.0988 -0.3924
  128MOL   C14846122   0.894   2.928   0.972 -0.0549 -0.2485  0.4184
  128MOL   O14946123   0.774   2.909   0.953 -0.0470 -0.2008  0.2470
  128MOL   O15046124   0.992   2.941   0.877 -0.2023  0.0298  0.0376
  128MOL   C15146125   0.956   2.902   0.744  0.2864 -0.3338 -0.3884
  128MOL   C15246126   0.965   2.750   0.732 -0.4842 -0.1954 -0.2723
  128MOL   C15346127   1.106   2.693   0.755  0.2614  0.4050 -0.5192
  128MOL   H15446128   1.069   3.071   1.219 -4.0726  0.4970  1.1075
  128MOL   H15546129   1.102   3.102   1.058  0.5893  0.4561 -0.8022
  128MOL   H15646130   0.849   2.950   1.166  0.3315 -0.2575  0.6500
  128MOL   H15746131   0.862   2.944   0.708  0.6674 -0.1138 -1.1467
  128MOL   H15846132   1.031   2.929   0.670 -1.4776  0.2209 -2.0145
  128MOL   H15946133   0.889   2.703   0.794  1.7281 -2.0727  1.0767
  128MOL   H16046134   0.936   2.727   0.629  0.5125 -4.4184  0.2850
  128MOL   H16146135   1.106   2.584   0.751  0.9348  0.4104 -0.7627
  128MOL   H16246136   1.148   2.716   0.853 -0.1103  2.0736 -0.7396
  128MOL   H16346137   1.175   2.742   0.686  0.2039  1.6806  0.3140
  128MOL   C16446138   1.042   2.828   1.145  0.3661  0.3175  0.3358
  128MOL   C16546139   1.009   2.729   1.256  0.4507  0.0739 -0.3002
  128MOL   C16646140   0.999   2.789   1.399 -0.2819  0.2148 -0.1278
  128MOL   O16746141   1.029   2.905   1.412  0.0862  0.3002  0.0673
  128MOL   O16846142   0.967   2.696   1.494 -0.1701 -0.5888  0.1808
  128MOL   C16946143   0.977   2.746   1.624 -0.9906  0.5295  0.3508
  128MOL   C17046144   0.878   2.675   1.716 -0.5600  0.5908 -0.3533
  128MOL   C17146145   0.734   2.727   1.704 -0.8235  0.1281  0.0099
  128MOL   H17246146   1.136   2.877   1.169  0.6834  0.1414 -0.5215
  128MOL   H17346147   1.069   2.776   1.053  0.7015  0.1161  0.5436
  128MOL   H17446148   1.087   2.654   1.263  1.5809  1.4782  3.1468
  128MOL   H17546149   1.080   2.732   1.657 -0.9713 -1.8018 -0.5899
  128MOL   H17646150   0.969   2.853   1.645 -0.0813  0.4108  1.3562
  128MOL   H17746151   0.879   2.566   1.707  0.6414  0.8475 -3.9665
  128MOL   H17846152   0.901   2.706   1.818 -1.6805  2.2744 -0.5882
  128MOL   H17946153   0.688   2.701   1.799 -0.8815 -0.2191 -0.1096
  128MOL   H18046154   0.690   2.667   1.624  2.5657  0.7109 -2.3655
  128MOL   H18146155   0.734   2.834   1.685  1.8877  0.1687  0.1061
  128MOL   C18246156   0.886   2.647   1.218  0.6469  0.3069 -0.6524
  128MOL   C18346157   0.902   2.537   1.113 -0.2130 -0.0339 -0.4708
  128MOL   C18446158   1.008   2.445   1.165  0.5694 -0.0695  0.0168
  128MOL   O18546159   1.117   2.439   1.105  0.0344 -0.6908 -0.0077
  128MOL   O18646160   0.976   2.365   1.275  0.0395 -0.1638  0.0233
  128MOL   C18746161   1.084   2.281   1.323 -0.0876 -0.6262 -0.3601
  128MOL   C18846162   1.032   2.152   1.384 -0.1224 -1.3288 -0.5785
  128MOL   C18946163   0.940   2.066   1.290 -0.5142  0.8038  0.2527
  128MOL   H19046164   0.804   2.707   1.179 -0.5342 -1.4917 -1.0119
  128MOL   H19146165   0.835   2.606   1.305 -1.1605  0.8660 -1.4207
  128MOL   H19246166   0.940   2.578   1.020  0.8721  0.7966  0.3281
  128MOL   H19346167   1.149   2.251   1.241  1.4170 -1.5272  1.1228
  128MOL   H19446168   1.135   2.338   1.401  0.4241  1.1162 -1.9230
  128MOL   H19546169   1.120   2.097   1.417  0.4308 -1.6786 -2.5732
  128MOL   H19646170   0.969   2.187   1.467  1.2667  1.2607 -0.5692
  128MOL   H19746171   0.922   1.962   1.318  1.2999  0.3972 -0.0059
  128MOL   H19846172   0.974   2.062   1.186 -0.4505 -0.7026  0.3153
  128MOL   H19946173   0.844   2.113   1.269  0.2992  1.9108 -1.1312
  128MOL   C20046174   0.764   2.463   1.091 -0.5375 -0.3444  0.3969
  128MOL   C20146175   0.648   2.535   1.022 -0.6021 -0.1559  0.5805
  128MOL   C20246176   0.664   2.542   0.868  0.5858  0.0899 -0.1900
  128MOL   O20346177   0.725   2.462   0.809 -0.4351 -0.6237 -0.1050
  128MOL   O20446178   0.589   2.647   0.821  0.3103 -0.3126 -0.3203
  128MOL   C20546179   0.575   2.670   0.684 -0.1294 -0.5956  0.2202
  128MOL   C20646180   0.563   2.819   0.642 -0.6022  0.4764  0.0763
  128MOL   C20746181   0.488   2.915   0.730  0.7083 -0.3847  0.3395
  128MOL   H20846182   0.724   2.446   1.191  0.2136  2.8709  1.2997
  128MOL   H20946183   0.782   2.360   1.062  2.3848 -0.2203  1.6145
  128MOL   H21046184   0.651   2.639   1.054 -1.2156 -0.6928  2.4405
  128MOL   H21146185   0.650   2.623   0.621 -0.0795  0.3236 -0.3992
  128MOL   H21246186   0.491   2.608   0.652  0.3670 -0.3264 -1.6522
  128MOL   H21346187   0.667   2.853   0.642 -0.8482  1.2183  0.4657
  128MOL   H21446188   0.530   2.825   0.539  0.5357  1.4697 -0.2488
  128MOL   H21546189   0.504   2.890   0.835 -1.0992 -0.9396  0.4909
  128MOL   H21646190   0.382   2.908   0.707  1.1678  2.5994 -3.2031
  128MOL   H21746191   0.521   3.017   0.708 -0.1811 -0.6732 -2.4884
  128MOL   C21846192   0.516   2.476   1.064  0.2963 -0.3705  0.4222
  128MOL   C21946193   0.493   2.327   1.027  0.3106 -0.2758 -0.3479
  128MOL   C22046194   0.491   2.228   1.147  0.5075 -0.1724 -0.2344
  128MOL   O22146195   0.572   2.139   1.166  0.2521  0.3028  0.1827
  128MOL   O22246196   0.389   2.257   1.231 -0.1989 -0.0450 -0.4328
  128MOL   C22346197   0.348   2.173   1.340 -0.7871  0.3606  0.8304
  128MOL   C22446198   0.228   2.082   1.312 -0.4977 -0.6598 -0.0335
  128MOL   C22546199   0.108   2.172   1.285 -0.4274 -0.0796 -0.1686
  128MOL   H22646200   0.433   2.533   1.021 -1.2149 -1.6531  1.5848
  128MOL   H22746201   0.502   2.487   1.172  0.5697  0.5756  0.3646
  128MOL   H22846202   0.581   2.302   0.967  1.6120  4.9508 -0.8707
  128MOL   H22946203   0.425   2.108   1.381 -1.3315  0.5300  2.1378
  128MOL   H23046204   0.310   2.239   1.418 -1.0917 -0.0152  0.9963
  128MOL   H23146205   0.247   2.011   1.232  1.5316 -0.6556  0.4324
  128MOL   H23246206   0.198   2.022   1.397  2.9189 -1.3381  0.7305
  128MOL   H23346207   0.015   2.114   1.278 -0.9842  0.9524 -1.7283
  128MOL   H23446208   0.129   2.220   1.189  0.4077  1.7830  0.9368
  128MOL   H23546209   0.090   2.248   1.361 -1.5536 -0.3012 -0.1939
  128MOL   C23646210   0.360   2.307   0.945  0.2937  0.6317  0.1140
  128MOL   C23746211   0.366   2.200   0.833  0.3228  0.0962 -0.2550
  128MOL   C23846212   0.462   2.221   0.713  0.6057 -0.4648  0.1919
  128MOL   O23946213   0.567   2.155   0.690 -0.1323  0.0302  0.4609
  128MOL   O24046214   0.427   2.325   0.636 -0.2710  0.0736  0.4660
  128MOL   C24146215   0.497   2.363   0.517 -0.5722 -0.1965  0.4002
  128MOL   C24246216   0.484   2.246   0.417  0.5879 -0.3549  0.5043
  128MOL   C24346217   0.550   2.285   0.279 -0.3637  0.5140 -0.0100
  128MOL   H24446218   0.335   2.396   0.887 -0.8531 -0.8039 -1.6555
  128MOL   H24546219   0.274   2.302   1.012 -0.2976  0.5429 -0.6519
  128MOL   H24646220   0.266   2.214   0.791 -1.0606 -1.2214  2.4151
  128MOL   H24746221   0.450   2.453   0.479 -0.4358  0.0070  0.7027
  128MOL   H24846222   0.602   2.389   0.531 -0.4563  0.4877 -1.6341
  128MOL   H24946223   0.526   2.151   0.451 -0.5062 -0.4878  1.5163
  128MOL   H25046224   0.378   2.222   0.402  0.0259  2.7473 -0.9685
  128MOL   H25146225   0.659   2.277   0.288 -0.2676 -1.6809 -2.4547
  128MOL   H25246226   0.524   2.384   0.242 -1.8699  0.8216  1.7797
  128MOL   H25346227   0.515   2.211   0.207 -1.2095 -0.1149  1.0358
  128MOL   C25446228   0.370   2.054   0.889 -0.1396 -0.1049  0.7583
  128MOL   C25546229   0.271   1.971   0.800  0.1917  0.1774 -0.1578
  128MOL   C25646230   0.341   1.931   0.671  0.0632  0.4466  0.8910
  128MOL   O25746231   0.313   1.984   0.565  0.4401 -0.5302 -0.1041
  128MOL   O25846232   0.426   1.835   0.687  0.0574 -0.2196 -0.0021
  128MOL   C25946233   0.514   1.789   0.578 -0.2715  0.4767 -0.7612
  128MOL   C26046234   0.460   1.653   0.535 -0.1395  0.0129  0.5334
  128MOL   C26146235   0.555   1.595   0.436 -0.5225  0.3083 -0.4311
  128MOL   H26246236   0.338   2.058   0.993 -0.9785 -1.5059  0.5801
  128MOL   H26346237   0.472   2.017   0.896 -0.4289 -0.9629  0.5219
  128MOL   H26446238   0.185   2.037   0.788 -0.2035  0.2259  2.6495
  128MOL   H26546239   0.512   1.858   0.493 -0.1587  0.6907 -0.5908
  128MOL   H26646240   0.613   1.774   0.622 -0.4619 -1.7819 -1.0460
  128MOL   H26746241   0.467   1.582   0.617  2.3000 -1.0347 -0.5354
  128MOL   H26846242   0.354   1.652   0.508 -0.4461 -0.3185  1.7221
  128MOL   H26946243   0.548   1.639   0.337  0.2311  0.8138 -0.2623
  128MOL   H27046244   0.561   1.487   0.448  1.0517  0.1951 -2.1548
  128MOL   H27146245   0.655   1.634   0.456 -0.6622  0.6214 -0.3299
  128MOL   C27246246   0.214   1.846   0.870  0.3449  0.3676 -0.1719
  128MOL   C27346247   0.128   1.752   0.779 -0.1214  0.1630 -0.2343
  128MOL   C27446248   0.125   1.619   0.846 -0.3602 -0.5463  0.8224
  128MOL   O27546249   0.054   1.587   0.940 -0.6857  0.6264 -0.0590
  128MOL   O27646250   0.208   1.545   0.780 -0.3898 -0.7228 -0.4557
  128MOL   C27746251   0.249   1.421   0.838 -0.5050 -0.2743 -0.1090
  128MOL   C27846252   0.355   1.442   0.949 -0.4321  0.1034  0.5284
  128MOL   C27946253   0.491   1.485   0.895  0.0571  0.2848 -0.1244
  128MOL   H28046254   0.145   1.874   0.950 -0.3693  3.0156 -1.6555
  128MOL   H28146255   0.285   1.791   0.932 -0.0223 -1.3177 -1.2298
  128MOL   H28246256   0.159   1.728   0.677  0.8378 -0.5947  0.2285
  128MOL   H28346257   0.169   1.374   0.894  0.0686 -2.4246 -1.0603
  128MOL   H28446258   0.281   1.343   0.768 -0.5654 -1.7086  1.4383
  128MOL   H28546259   0.323   1.509   1.030 -1.6663 -0.5335  0.5608
  128MOL   H28646260   0.380   1.346   0.993  2.5060  2.3748  4.2360
  128MOL   H28746261   0.542   1.408   0.837  1.6854  0.4493  1.0732
  128MOL   H28846262   0.566   1.506   0.971  0.4348 -2.9373  0.4717
  128MOL   H28946263   0.483   1.571   0.829  0.3736  2.0114  2.0485
  128MOL   C29046264   7.870   1.817   0.753  0.3395  0.3342 -0.2010
  128MOL   C29146265   7.784   1.750   0.649 -0.1322  0.5091 -0.0711
  128MOL   C29246266   7.647   1.818   0.651 -0.2149  0.1796 -0.1079
  128MOL   O29346267   7.623   1.935   0.687  0.0083 -0.6442 -0.6114
  128MOL   O29446268   7.545   1.733   0.627  0.5704  0.0891 -0.2757
  128MOL   C29546269   7.408   1.785   0.636 -0.5594 -0.7470  0.3568
  128MOL   C29646270   7.321   1.671   0.580  1.0542  0.0979 -0.7748
  128MOL   C29746271   7.336   1.537   0.653 -0.2496  0.7885 -0.8732
  128MOL   H29846272   0.003   1.922   0.728 -0.9254  0.6647  0.4780
  128MOL   H29946273   7.820   1.810   0.849 -0.0438 -0.8807 -0.4718
  128MOL   H30046274   7.764   1.649   0.686  0.8567 -0.2711 -1.5873
  128MOL   H30146275   7.387   1.794   0.742 -0.7418  1.0087  0.1940
  128MOL   H30246276   7.385   1.881   0.590 -0.1473 -0.3541  0.9663
  128MOL   H30346277   7.215   1.693   0.581  0.9968 -0.1844 -0.5436
  128MOL   H30446278   7.344   1.669   0.473 -0.5638 -0.5198 -1.1306
  128MOL   H30546279   7.430   1.490   0.625  0.0497  1.6165 -1.2712
  128MOL   H30646280   7.264   1.465   0.615 -0.0858  0.0328  0.2508
  128MOL   H30746281   7.330   1.555   0.760 -0.4807 -0.6188 -0.6491
  128MOL   C30846282   7.842   1.747   0.507 -0.5396  0.2780  0.2312
  128MOL   C30946283   7.769   1.645   0.417  0.8637 -0.3283 -0.1833
  128MOL   C31046284   7.687   1.714   0.305  0.1147 -0.0543 -0.1892
  128MOL   O31146285   7.563   1.739   0.315 -0.6804  0.8190 -0.5579
  128MOL   O31246286   7.766   1.746   0.200 -0.6925  0.3527  0.3258
  128MOL   C31346287   7.702   1.790   0.088  0.4361 -0.6100 -0.3810
  128MOL   C31446288   7.758   1.699   7.856 -0.0164 -0.0839  0.0956
  128MOL   C31546289   7.713   1.555   7.879 -0.3280  0.3957  0.4235
  128MOL   H31646290   0.066   1.722   0.490 -0.4650 -1.5935  3.0442
  128MOL   H31746291   7.834   1.849   0.470  1.4827  0.4754  0.3105
  128MOL   H31846292   7.691   1.599   0.478  0.1052 -0.5468 -1.2915
  128MOL   H31946293   7.593   1.786   0.088  0.2769  2.3765  1.3371
  128MOL   H32046294   7.744   1.889   0.072 -1.3471  0.5192  1.6910
  128MOL   H32146295   7.726   1.744   7.762  3.1126  1.4737 -0.3030
  128MOL   H32246296   7.867   1.695   7.853  0.2746  3.9425  1.1619
  128MOL   H32346297   7.607   1.548   0.022 -0.3536 -1.6337 -0.2339
  128MOL   H32446298   7.736   1.490   7.795  3.9858  1.7589  0.3871
  128MOL   H32546299   7.763   1.507   0.083 -0.4873 -1.1127 -0.3364
  128MOL   C32646300   7.856   1.527   0.355  0.4355 -0.5014  0.6314
  128MOL   C32746301   0.043   1.433   0.464 -0.3181  0.0065  0.1039
  128MOL   C32846302   7.823   1.337   0.540 -0.2465  0.2522 -0.3738
  128MOL   O32946303   7.705   1.344   0.513 -0.3865  0.1023  0.2289
  128MOL   O33046304   7.874   1.276   0.650  0.1214  0.7295  0.2555
  128MOL   C33146305   7.782   1.199   0.722  0.5364 -0.1856 -0.0241
  128MOL   C33246306   7.847   1.163   0.859 -0.0089  0.3566 -0.2363
  128MOL   C33346307   0.100   1.080   0.840  0.0037  0.5824 -0.3728
  128MOL   H33446308   0.050   1.574   0.290 -2.8860  0.8602 -2.3638
  128MOL   H33546309   7.790   1.472   0.287 -1.0419  0.5709  1.1734
  128MOL   H33646310   0.077   1.499   0.543  0.5613 -1.7164  1.2124
  128MOL   H33746311   7.690   1.252   0.749  0.0396 -1.2437  0.3683
  128MOL   H33846312   7.752   1.107   0.672  0.2262 -0.2309  0.2447
  128MOL   H33946313   7.875   1.251   0.917  0.0748  1.8990 -2.5759
  128MOL   H34046314   7.773   1.105   0.914 -1.6772  2.1439 -0.5665
  128MOL   H34146315   0.152   1.066   0.934 -0.6105 -3.0263 -0.5186
  128MOL   H34246316   0.082   0.980   0.800  0.0277  0.8137 -0.9808
  128MOL   H34346317   0.169   1.135   0.775  1.0935 -0.3690 -0.0250
  128MOL   C34446318   0.155   1.341   0.403 -0.2275 -0.3710 -0.3369
  128MOL   C34546319   0.123   1.281   0.259  0.2118 -0.4533  0.1167
  128MOL   C34646320   0.240   1.191   0.214 -0.3167  0.3178  0.1883
  128MOL   O34746321   0.224   1.075   0.188 -0.1387  0.0300 -0.1007
  128MOL   O34846322   0.361   1.251   0.218 -0.6149  0.6721 -0.0135
  128MOL   C34946323   0.473   1.171   0.189 -0.0877  0.2769 -0.0107
  128MOL   C35046324   0.593   1.267   0.180  0.2867 -0.0748  0.8477
  128MOL   C35146325   0.580   1.386   0.094  0.1747 -0.1702  1.0779
  128MOL   H35246326   0.167   1.261   0.476 -0.9625  1.4056  1.7791
  128MOL   H35346327   0.254   1.385   0.414  0.0480 -1.1809  0.4526
  128MOL   H35446328   0.122   1.368   0.193  1.4515 -0.7400 -0.2935
  128MOL   H35546329   0.493   1.102   0.271 -0.2202  2.0617  1.5611
  128MOL   H35646330   0.465   1.112   0.098  2.0808  0.5048 -0.3788
  128MOL   H35746331   0.629   1.309   0.274  1.7387 -0.0404  0.2988
  128MOL   H35846332   0.681   1.207   0.155 -1.1903 -1.2717 -1.5732
  128MOL   H35946333   0.572   1.364   7.868 -1.5022  0.8971  0.9607
  128MOL   H36046334   0.485   1.436   0.109 -0.2989 -0.6997 -0.0730
  128MOL   H36146335   0.668   1.450   0.098 -1.9181  3.0011 -1.5503
  128MOL   H36246336   0.029   1.227   0.255 -1.1099  1.7457  0.4857
  129MOL     C146337   4.542   6.588   6.804  0.4073 -0.8622  0.3175
  129MOL     C246338   4.426   6.506   6.741 -0.4453 -0.8067 -1.1096
  129MOL     C346339   4.297   6.580   6.788  1.0651 -0.4108 -0.5527
  129MOL     O446340   4.227   6.649   6.712 -0.0774 -0.3675 -0.4906
  129MOL     O546341   4.272   6.549   6.915  0.7143 -0.2437  0.2592
  129MOL     C646342   4.145   6.577   6.973  0.0543  0.0649 -0.2538
  129MOL     C746343   4.136   6.500   7.104 -0.0434  0.6814  0.9203
  129MOL     C846344   3.996   6.510   7.174 -0.2247 -0.1915 -0.1106
  129MOL     H946345   4.541   6.692   6.770 -1.2646 -1.3126 -1.0339
  129MOL    H1046346   4.535   6.587   6.913  2.6620  1.2266  0.5408
  129MOL    H1146347   4.417   6.410   6.793  0.5590 -0.4071 -0.1731
  129MOL    H1246348   4.138   6.682   7.001  2.2312 -0.4063  2.2523
  129MOL    H1346349   4.053   6.543   6.926  1.0152 -1.6220 -0.9551
  129MOL    H1446350   4.162   6.395   7.089  0.1705  0.8709 -0.0904
  129MOL    H1546351   4.209   6.528   7.180 -1.7606  1.2359  2.3902
  129MOL    H1646352   3.915   6.498   7.103 -0.6653 -1.7710  0.6419
  129MOL    H1746353   3.984   6.422   7.237 -0.1268 -1.1615 -1.4185
  129MOL    H1846354   3.980   6.596   7.239 -0.1220  0.1697 -0.5555
  129MOL    H1946355   4.643   6.562   6.770  0.6983 -1.6489  1.7210
  129MOL    C2046356   4.430   6.482   6.595 -0.4458  0.4172  0.3308
  129MOL    C2146357   4.347   6.371   6.531  0.1674 -0.0791 -0.2261
  129MOL    C2246358   4.377   6.232   6.583 -0.8702  0.9636  0.1661
  129MOL    O2346359   4.443   6.152   6.516  0.1128 -0.8209  0.7423
  129MOL    O2446360   4.322   6.210   6.706 -0.3057  0.2311 -0.1501
  129MOL    C2546361   4.316   6.083   6.763  0.0077  0.1337 -0.2578
  129MOL    C2646362   4.451   6.057   6.826  0.1643 -0.0811  0.2982
  129MOL    C2746363   4.459   5.932   6.913 -0.3527  1.2690  0.2817
  129MOL    H2846364   4.530   6.447   6.568 -0.2721  1.1279  0.0169
  129MOL    H2946365   4.413   6.580   6.549  3.6891 -0.1576 -2.7788
  129MOL    H3046366   4.373   6.376   6.425 -0.1010  0.6448 -0.2640
  129MOL    H3146367   4.236   6.086   6.836 -2.8977 -1.6031 -3.2087
  129MOL    H3246368   4.288   5.996   6.703 -2.4449 -0.4664  1.6714
  129MOL    H3346369   4.524   6.037   6.748 -1.9287  1.7159 -2.2145
  129MOL    H3446370   4.487   6.148   6.874  2.6798 -1.7397  1.6494
  129MOL    H3546371   4.442   5.843   6.851  0.5778  3.3304 -3.0461
  129MOL    H3646372   4.388   5.928   6.996 -0.9173  1.9972 -0.1592
  129MOL    H3746373   4.562   5.918   6.946 -0.7480  0.3639  1.1767
  129MOL    C3846374   4.202   6.410   6.533  0.6525  0.0422  0.2368
  129MOL    C3946375   4.113   6.338   6.435  1.4740 -0.1793 -0.4931
  129MOL    C4046376   3.965   6.365   6.478  0.2379 -0.3156  0.8976
  129MOL    O4146377   3.899   6.275   6.529  0.2703 -0.5057  0.3125
  129MOL    O4246378   3.921   6.488   6.453  0.0977  0.4297  0.2777
  129MOL    C4346379   3.788   6.522   6.491 -0.1812 -0.5338 -0.3873
  129MOL    C4446380   3.798   6.668   6.542  0.4132 -1.1025 -0.1667
  129MOL    C4546381   3.868   6.671   6.675  0.3347  0.2760 -0.6268
  129MOL    H4646382   4.204   6.518   6.515  1.0162  0.1077  0.6735
  129MOL    H4746383   4.167   6.396   6.636 -1.0655 -1.1786 -0.4866
  129MOL    H4846384   4.119   6.236   6.475  1.2407 -0.4873 -1.2325
  129MOL    H4946385   3.718   6.513   6.408 -1.0643  0.1255  0.2694
  129MOL    H5046386   3.746   6.450   6.561 -1.6116 -0.3601 -1.0463
  129MOL    H5146387   3.848   6.724   6.463  1.5500 -0.8805  0.6845
  129MOL    H5246388   3.699   6.712   6.552 -0.3574 -2.6195 -0.9331
  129MOL    H5346389   3.834   6.593   6.742  1.1285 -0.1383 -0.7079
  129MOL    H5446390   3.872   6.772   6.717  1.5024  0.0605 -0.2061
  129MOL    H5546391   3.974   6.646   6.670 -0.0509 -1.3991 -0.4653
  129MOL    C5646392   4.141   6.349   6.287  0.9789 -0.3678  0.2192
  129MOL    C5746393   4.144   6.214   6.214  0.0631 -0.3033 -0.8237
  129MOL    C5846394   4.004   6.171   6.163 -0.0732  0.0503  0.0902
  129MOL    O5946395   3.908   6.251   6.152  0.2129  0.4400  0.2002
  129MOL    O6046396   4.003   6.049   6.124  0.8451  0.6726 -0.1151
  129MOL    C6146397   3.876   5.985   6.092 -0.0687  0.5766  0.3345
  129MOL    C6246398   3.916   5.863   6.013  0.0414  0.0319  0.2249
  129MOL    C6346399   3.931   5.873   5.861  0.0396 -0.3038  0.2818
  129MOL    H6446400   4.233   6.405   6.271  0.7972 -0.8209 -2.6569
  129MOL    H6546401   4.076   6.418   6.234  1.2031 -1.0949 -1.0187
  129MOL    H6646402   4.162   6.132   6.283  0.9385  0.3811 -0.2246
  129MOL    H6746403   3.823   5.954   6.182 -0.1393  1.2448  0.5257
  129MOL    H6846404   3.804   6.049   6.039 -0.2792  1.0538  1.1906
  129MOL    H6946405   4.000   5.806   6.055  1.5090  0.1744 -2.3865
  129MOL    H7046406   3.831   5.796   6.025  0.3728 -0.3991  0.1893
  129MOL    H7146407   3.851   5.932   5.817 -0.8103 -1.3423  0.4151
  129MOL    H7246408   3.917   5.775   5.813 -1.2209  0.0818 -0.1611
  129MOL    H7346409   4.034   5.894   5.831  0.3672 -0.7187  1.0904
  129MOL    C7446410   4.255   6.203   6.106 -0.0424 -0.5516 -0.4039
  129MOL    C7546411   4.314   6.064   6.080 -0.6145 -0.4293 -0.0133
  129MOL    C7646412   4.421   6.076   5.964 -0.3255 -1.2478 -0.2764
  129MOL    O7746413   4.543   6.080   5.982  0.3605 -0.5725 -0.1483
  129MOL    O7846414   4.360   6.099   5.846  0.5036 -0.7500 -0.4386
  129MOL    C7946415   4.437   6.092   5.728  0.1809 -0.0995 -0.5847
  129MOL    C8046416   4.343   6.147   5.618 -0.5879 -0.2980  0.5865
  129MOL    C8146417   4.395   6.117   5.478 -0.4961 -0.4135  0.5619
  129MOL    H8246418   4.341   6.258   6.143  0.1088 -2.9284  3.0076
  129MOL    H8346419   4.216   6.264   6.024 -0.7826 -0.4990 -0.0248
  129MOL    H8446420   4.237   6.001   6.036 -1.4675  0.7797 -0.2873
  129MOL    H8546421   4.534   6.142   5.733 -0.0065  0.1263  1.6457
  129MOL    H8646422   4.449   5.988   5.699  0.6339 -0.1396 -0.2585
  129MOL    H8746423   4.238   6.118   5.614 -0.5471 -0.4823  0.8310
  129MOL    H8846424   4.335   6.256   5.616 -2.3949 -0.4216 -2.2138
  129MOL    H8946425   4.339   6.165   5.398  0.3910 -0.4650 -0.0916
  129MOL    H9046426   4.392   6.009   5.470  3.6674 -0.4870 -1.2756
  129MOL    H9146427   4.499   6.149   5.465 -0.6094  0.3461  1.4330
  129MOL    C9246428   4.380   5.997   6.209  0.0803  0.2902 -0.3510
  129MOL    C9346429   4.293   5.878   6.260 -0.3022  0.0087  0.3761
  129MOL    C9446430   4.325   5.740   6.192 -0.8103  0.0373 -0.6597
  129MOL    O9546431   4.243   5.672   6.134 -0.2356  0.8194 -0.9024
  129MOL    O9646432   4.448   5.698   6.224 -0.0395 -0.4732  0.2080
  129MOL    C9746433   4.498   5.570   6.175  0.3653 -0.1884 -0.0729
  129MOL    C9846434   4.648   5.571   6.148 -0.6554 -0.7803  0.3713
  129MOL    C9946435   4.707   5.435   6.093  0.9152 -0.4618  0.8919
  129MOL   H10046436   4.396   6.071   6.287 -0.8596  0.7515 -0.5842
  129MOL   H10146437   4.482   5.966   6.189 -0.0966  0.1791 -1.1181
  129MOL   H10246438   4.189   5.896   6.234  0.2380 -0.1767 -1.9977
  129MOL   H10346439   4.473   5.487   6.242 -2.2488  1.0170  0.5022
  129MOL   H10446440   4.442   5.547   6.084 -1.2874 -2.0871  1.3391
  129MOL   H10546441   4.674   5.653   6.081  0.6493 -0.9835  0.6226
  129MOL   H10646442   4.695   5.590   6.245  0.4110  1.5554 -0.5631
  129MOL   H10746443   4.815   5.437   6.097  0.9284  2.1060  0.2521
  129MOL   H10846444   4.671   5.427   5.991  1.3079 -1.3686  0.8208
  129MOL   H10946445   4.675   5.349   6.152 -0.9266 -1.1623 -1.0658
  129MOL   C11046446   4.286   5.867   6.409  0.4479 -0.5785  0.0910
  129MOL   C11146447   4.188   5.765   6.478  0.3352 -0.2007 -0.3603
  129MOL   C11246448   4.223   5.737   6.624  0.0601  0.2796  0.6942
  129MOL   O11346449   4.337   5.726   6.654  0.2366 -0.0007  0.6176
  129MOL   O11446450   4.117   5.710   6.699  0.6083  0.1175  0.7343
  129MOL   C11546451   4.131   5.686   6.836 -0.1246 -0.1225  0.8488
  129MOL   C11646452   4.001   5.633   6.909  0.3729  0.0865 -0.0097
  129MOL   C11746453   4.004   5.623   7.056 -0.1402  0.1394 -0.6917
  129MOL   H11846454   4.254   5.960   6.457 -0.5110 -0.8481 -0.0178
  129MOL   H11946455   4.384   5.848   6.451 -0.7554 -2.4944  2.1562
  129MOL   H12046456   4.203   5.665   6.436  3.3055  0.6712 -1.5755
  129MOL   H12146457   4.208   5.614   6.864  1.0422  0.6517 -0.3514
  129MOL   H12246458   4.168   5.778   6.880  2.1553 -0.7435  0.3033
  129MOL   H12346459   3.911   5.691   6.888 -0.2608 -0.5446  0.9292
  129MOL   H12446460   3.985   5.529   6.883 -0.9281 -0.9393  4.4302
  129MOL   H12546461   3.905   5.614   7.102 -0.1846  3.0731 -0.1588
  129MOL   H12646462   4.039   5.717   7.097  0.4176 -1.8385  3.5861
  129MOL   H12746463   4.080   5.555   7.095  1.1679  0.7992 -2.0323
  129MOL   C12846464   4.038   5.797   6.451 -0.7750 -0.1379 -0.0383
  129MOL   C12946465   3.953   5.663   6.447 -0.2767 -0.4160 -0.4190
  129MOL   C13046466   3.808   5.698   6.489 -0.1922 -0.4508  0.2185
  129MOL   O13146467   3.767   5.659   6.597 -0.2239 -0.3099  0.2200
  129MOL   O13246468   3.757   5.794   6.410 -0.0733 -0.1283  0.1710
  129MOL   C13346469   3.625   5.848   6.431 -0.5069  0.1503  0.7007
  129MOL   C13446470   3.591   5.942   6.319  0.3735 -0.0365 -0.1552
  129MOL   C13546471   3.655   6.085   6.341 -0.4489 -0.6684  0.1602
  129MOL   H13646472   4.032   5.850   6.356  0.3638 -0.2574 -0.1940
  129MOL   H13746473   4.000   5.868   6.524  1.7435  1.6169 -0.3625
  129MOL   H13846474   4.000   5.590   6.513  1.7869  1.6604  0.4490
  129MOL   H13946475   3.554   5.766   6.432  0.2789 -0.5312  1.3503
  129MOL   H14046476   3.625   5.892   6.531 -0.6886  1.3515  0.1828
  129MOL   H14146477   3.586   5.900   6.218  0.5497 -2.0806  0.6584
  129MOL   H14246478   3.484   5.955   6.339  0.1200 -1.0308 -0.8451
  129MOL   H14346479   3.763   6.087   6.352 -0.4722 -2.4568  0.9338
  129MOL   H14446480   3.618   6.143   6.426 -1.4550 -2.2211  0.8047
  129MOL   H14546481   3.630   6.143   6.253  1.0792 -0.3533 -0.0785
  129MOL   C14646482   3.949   5.602   6.301  0.4434 -0.1388 -0.4405
  129MOL   C14746483   3.954   5.446   6.286  0.0899  0.1446 -0.5567
  129MOL   C14846484   3.816   5.382   6.311 -0.6780  0.2128  0.1473
  129MOL   O14946485   3.796   5.308   6.407 -0.2671 -0.1169 -0.1662
  129MOL   O15046486   3.730   5.404   6.212  0.5667  0.5082 -0.2675
  129MOL   C15146487   3.594   5.355   6.218 -0.0232  0.1952  0.2685
  129MOL   C15246488   3.510   5.476   6.251 -0.3973 -0.5134 -0.6492
  129MOL   C15346489   3.511   5.595   6.157  0.1061 -0.1829 -0.6090
  129MOL   H15446490   4.045   5.638   6.263  1.1283 -1.0260  0.4152
  129MOL   H15546491   3.869   5.638   6.236  0.5858  1.8951  0.4744
  129MOL   H15646492   4.030   5.409   6.355 -0.0507  0.0388 -0.4562
  129MOL   H15746493   3.563   5.315   6.121 -1.4830  0.3372  0.6729
  129MOL   H15846494   3.590   5.278   6.295 -1.8300  0.8356  0.8300
  129MOL   H15946495   3.406   5.442   6.258  0.3885 -2.7533  0.5578
  129MOL   H16046496   3.538   5.515   6.349 -0.1218  0.9422 -1.2936
  129MOL   H16146497   3.599   5.659   6.168 -0.3225  0.2943  0.0978
  129MOL   H16246498   3.438   5.670   6.185  1.2153  0.0129  1.8686
  129MOL   H16346499   3.500   5.578   6.050  0.5635  4.0213 -1.4234
  129MOL   C16446500   4.006   5.407   6.142 -0.3802 -0.8111  0.2719
  129MOL   C16546501   4.055   5.257   6.129  0.1702 -0.4561 -0.0052
  129MOL   C16646502   3.940   5.155   6.131 -0.5174 -1.0504 -0.9054
  129MOL   O16746503   3.835   5.171   6.065  0.0279 -0.1354 -0.2981
  129MOL   O16846504   3.957   5.053   6.223 -0.7566 -0.2309  0.3220
  129MOL   C16946505   3.853   4.962   6.253  0.3428  1.4583 -0.0714
  129MOL   C17046506   3.856   4.930   6.409  0.5959 -0.6508  0.5362
  129MOL   C17146507   4.000   4.883   6.439 -0.7332 -0.3236  0.4529
  129MOL   H17246508   4.080   5.478   6.105 -0.4259 -0.7611  0.2775
  129MOL   H17346509   3.928   5.428   6.069 -0.8599 -2.0954  0.3921
  129MOL   H17446510   4.121   5.239   6.213  0.6045  1.3214  0.0588
  129MOL   H17546511   3.756   5.007   6.231 -0.8765 -0.4966  1.0867
  129MOL   H17646512   3.866   4.868   6.199 -3.5654  1.3018 -0.8853
  129MOL   H17746513   3.820   5.016   6.465 -0.6129  0.8584 -2.4351
  129MOL   H17846514   3.785   4.849   6.426 -0.8939  0.9931  2.3936
  129MOL   H17946515   4.001   4.855   6.544  0.1734  0.8173  0.7618
  129MOL   H18046516   4.084   4.951   6.422 -0.8613 -0.1491  0.5171
  129MOL   H18146517   4.026   4.789   6.391  3.1291  0.3450  1.0370
  129MOL   C18246518   4.150   5.232   6.001  0.6940 -0.3712 -0.0372
  129MOL   C18346519   4.301   5.265   6.023  0.4573 -0.1083  0.0092
  129MOL   C18446520   4.362   5.149   6.115 -0.3529 -0.3455  0.1951
  129MOL   O18546521   4.430   5.182   6.214 -0.5433 -0.7268 -0.3071
  129MOL   O18646522   4.348   5.027   6.062  0.3039 -0.0713 -0.4324
  129MOL   C18746523   4.379   4.926   6.153 -0.2569 -0.1830  0.0097
  129MOL   C18846524   4.323   4.791   6.115 -0.4466 -0.1145  0.0972
  129MOL   C18946525   4.175   4.789   6.113 -0.2750  0.6510  0.0035
  129MOL   H19046526   4.111   5.289   5.917 -0.8372  0.2238  1.0675
  129MOL   H19146527   4.139   5.130   5.964  3.6385 -0.0952 -1.8861
  129MOL   H19246528   4.304   5.348   6.094  0.8819  0.2398 -0.4136
  129MOL   H19346529   4.487   4.910   6.147 -0.4599 -0.9657 -1.9966
  129MOL   H19446530   4.357   4.954   6.256 -0.4410  0.1909 -0.1340
  129MOL   H19546531   4.361   4.763   6.016 -1.1595  1.6508 -0.6845
  129MOL   H19646532   4.358   4.710   6.179 -1.4930 -0.6565 -0.0022
  129MOL   H19746533   4.140   4.686   6.114  1.1002  0.1656 -0.3985
  129MOL   H19846534   4.143   4.841   6.022 -0.5351  3.1360  1.4821
  129MOL   H19946535   4.133   4.839   6.200  0.4423 -2.2896  2.1040
  129MOL   C20046536   4.384   5.306   5.904  0.3114 -0.7349 -0.8074
  129MOL   C20146537   4.425   5.197   5.809  0.4397  0.0715 -0.4854
  129MOL   C20246538   4.315   5.175   5.704 -0.7854  0.3942  0.1385
  129MOL   O20346539   4.232   5.080   5.704 -0.0799 -0.0640  0.5333
  129MOL   O20446540   4.327   5.260   5.599 -0.1656 -0.6317 -0.2139
  129MOL   C20546541   4.231   5.258   5.500  0.4287 -0.5229 -0.1324
  129MOL   C20646542   4.308   5.229   5.370  0.2838  0.0481  0.2171
  129MOL   C20746543   4.426   5.321   5.342  0.3245  0.1375 -0.0859
  129MOL   H20846544   4.472   5.358   5.941  1.1256 -2.4088 -0.3472
  129MOL   H20946545   4.322   5.376   5.848 -0.2169  0.4466  1.2257
  129MOL   H21046546   4.423   5.105   5.869  1.4447 -0.1152 -0.7358
  129MOL   H21146547   4.147   5.188   5.508  0.6159 -0.8244 -0.7377
  129MOL   H21246548   4.195   5.357   5.474 -0.8612 -1.3756 -1.7083
  129MOL   H21346549   4.344   5.126   5.376  0.8898  0.2737  0.5623
  129MOL   H21446550   4.239   5.247   5.288  1.2415  2.6180 -0.0607
  129MOL   H21546551   4.407   5.428   5.336  1.1291  0.3136  0.3549
  129MOL   H21646552   4.482   5.305   5.249 -0.4235  1.1694 -0.7208
  129MOL   H21746553   4.504   5.315   5.418  0.1671  0.6584  0.1152
  129MOL   C21846554   4.569   5.211   5.746 -0.3872  0.6867  0.1490
  129MOL   C21946555   4.612   5.080   5.678 -0.2627  0.2087  0.0643
  129MOL   C22046556   4.728   5.107   5.580  0.4589 -0.1444  0.2999
  129MOL   O22146557   4.718   5.111   5.456 -0.3529 -0.4597 -0.0038
  129MOL   O22246558   4.844   5.131   5.646 -0.0725 -0.5359 -0.2633
  129MOL   C22346559   4.972   5.145   5.581  0.0813 -0.1197  0.5210
  129MOL   C22446560   5.065   5.236   5.660  0.4315  0.7230  0.4268
  129MOL   C22546561   5.029   5.384   5.650  0.1973 -0.5128  0.4701
  129MOL   H22646562   4.648   5.222   5.821 -1.3031  0.0764  1.1977
  129MOL   H22746563   4.570   5.308   5.695 -1.6589 -0.0813 -1.3942
  129MOL   H22846564   4.535   5.044   5.609 -0.1463 -1.4939  0.8046
  129MOL   H22946565   5.019   5.047   5.571  1.8624  0.7316  0.3978
  129MOL   H23046566   4.953   5.183   5.481  2.4068 -0.4761 -0.0850
  129MOL   H23146567   5.078   5.202   5.762 -0.6569 -0.2235  0.2524
  129MOL   H23246568   5.161   5.217   5.611 -0.5848 -1.2015 -0.8540
  129MOL   H23346569   5.116   5.444   5.678 -0.8921  2.2331 -1.6802
  129MOL   H23446570   4.947   5.411   5.717 -1.8413 -0.5617 -1.9180
  129MOL   H23546571   5.020   5.410   5.544 -0.4399  1.6442  1.0135
  129MOL   C23646572   4.647   4.973   5.786  0.1067 -0.5270  0.1073
  129MOL   C23746573   4.611   4.824   5.752  0.5161  0.5093 -0.3326
  129MOL   C23846574   4.664   4.718   5.848 -0.4643  0.3670 -0.5765
  129MOL   O23946575   4.643   4.727   5.968 -0.0571  0.7742 -0.0554
  129MOL   O24046576   4.733   4.613   5.790  0.2613  0.1444  0.5879
  129MOL   C24146577   4.789   4.506   5.870  0.8729 -1.0505  0.6160
  129MOL   C24246578   4.905   4.432   5.794  0.1575  0.5544 -0.4292
  129MOL   C24346579   5.006   4.372   5.893  0.0479 -0.0389 -0.0065
  129MOL   H24446580   4.624   4.998   5.889 -0.6384  0.4887 -0.2940
  129MOL   H24546581   4.755   4.971   5.804  0.3770  1.5887 -1.0052
  129MOL   H24646582   4.670   4.791   5.666 -0.3458  0.1820 -0.7962
  129MOL   H24746583   4.820   4.551   5.964  0.3616  1.4378 -0.3896
  129MOL   H24846584   4.707   4.443   5.905 -1.0287  1.7711  1.3249
  129MOL   H24946585   4.870   4.358   5.722  1.2780 -0.4925  0.0713
  129MOL   H25046586   4.962   4.490   5.721  1.3818  1.0485  0.8883
  129MOL   H25146587   5.103   4.366   5.845  0.2601 -0.9502  0.5307
  129MOL   H25246588   4.973   4.275   5.930 -0.5744  0.9859  2.2225
  129MOL   H25346589   5.010   4.440   5.978  0.5935  0.1579 -0.1852
  129MOL   C25446590   4.458   4.793   5.728 -0.0480  0.3387  0.2163
  129MOL   C25546591   4.422   4.750   5.585 -0.0873  0.2171  0.8229
  129MOL   C25646592   4.476   4.613   5.545 -0.2214  0.2510 -0.2859
  129MOL   O25746593   4.452   4.510   5.611  0.5511 -0.2306 -0.0315
  129MOL   O25846594   4.555   4.614   5.437  0.1320  0.1654  0.3956
  129MOL   C25946595   4.609   4.493   5.384 -0.2235 -0.1517 -0.0560
  129MOL   C26046596   4.746   4.454   5.434 -0.6183  0.1078 -0.2408
  129MOL   C26146597   4.850   4.562   5.404 -0.4122 -0.5756  0.6346
  129MOL   H26246598   4.394   4.871   5.769  0.7637  0.8872  0.4582
  129MOL   H26346599   4.429   4.706   5.787 -0.3906 -0.4236 -1.0552
  129MOL   H26446600   4.466   4.822   5.515  0.0034 -1.4472 -0.8888
  129MOL   H26546601   4.535   4.419   5.413 -0.5978  0.4890  0.6172
  129MOL   H26646602   4.606   4.495   5.275  0.7225  0.8688 -0.0758
  129MOL   H26746603   4.747   4.446   5.543 -4.4370  0.2720 -0.1044
  129MOL   H26846604   4.774   4.352   5.408  0.9402  0.6368 -0.7027
  129MOL   H26946605   4.812   4.662   5.423  0.5884 -0.0135 -0.2350
  129MOL   H27046606   4.856   4.565   5.295 -0.5190 -1.0334  0.6137
  129MOL   H27146607   4.946   4.552   5.455  0.0200  2.7489  0.5449
  129MOL   C27246608   4.267   4.751   5.553 -0.0060  0.0647  0.8781
  129MOL   C27346609   4.226   4.732   5.402  0.3459 -1.2499  0.4254
  129MOL   C27446610   4.068   4.714   5.384  0.4119 -0.7089 -0.2519
  129MOL   O27546611   4.021   4.606   5.361 -0.1983  0.5732  0.1781
  129MOL   O27646612   3.992   4.823   5.421 -0.5555  0.0791  0.1816
  129MOL   C27746613   3.853   4.809   5.438  0.0175  0.9106  0.1739
  129MOL   C27846614   3.818   4.841   5.589 -0.2886 -0.2127 -0.0556
  129MOL   C27946615   3.869   4.983   5.620 -0.0902 -0.8150 -0.0485
  129MOL   H28046616   4.213   4.839   5.590  3.2825  2.2828  0.6629
  129MOL   H28146617   4.221   4.676   5.617  0.1535 -2.4193 -1.8084
  129MOL   H28246618   4.265   4.635   5.371 -0.3554 -1.3707 -0.1091
  129MOL   H28346619   3.794   4.877   5.376  1.7130  1.9916 -0.3120
  129MOL   H28446620   3.818   4.709   5.414 -1.8164  1.4534  0.5286
  129MOL   H28546621   3.715   4.834   5.621 -0.8494 -0.9923 -1.9663
  129MOL   H28646622   3.876   4.768   5.646  1.3697  0.7655 -0.4373
  129MOL   H28746623   3.891   5.030   5.524 -2.3368  0.2065 -0.0759
  129MOL   H28846624   3.964   4.997   5.672  0.1809  0.8946 -0.9798
  129MOL   H28946625   3.795   5.050   5.663  0.7056  0.4341 -0.5938
  129MOL   C29046626   4.288   4.833   5.301  0.5847  0.3512 -0.1701
  129MOL   C29146627   4.394   4.777   5.208 -0.0713  1.0398 -0.0593
  129MOL   C29246628   4.345   4.673   5.104 -0.4030 -0.4447  0.1472
  129MOL   O29346629   4.366   4.550   5.117  0.6821  0.4673  0.5976
  129MOL   O29446630   4.275   4.728   5.007 -0.0862 -0.4331 -0.0328
  129MOL   C29546631   4.261   4.659   4.881  0.5645 -0.5837 -0.3626
  129MOL   C29646632   4.115   4.633   4.857 -0.3340 -0.1766  0.3735
  129MOL   C29746633   4.047   4.521   4.941 -0.3198  0.1015  0.4845
  129MOL   H29846634   4.334   4.913   5.360 -0.5757  0.5425  0.4770
  129MOL   H29946635   4.210   4.888   5.249  1.7160  1.9005 -0.2727
  129MOL   H30046636   4.446   4.704   5.270 -0.7708 -0.6800 -1.4253
  129MOL   H30146637   4.290   4.724   4.798  0.7120 -1.3657 -0.9286
  129MOL   H30246638   4.335   4.580   4.865  2.1154  0.1572  2.7779
  129MOL   H30346639   4.071   4.730   4.882  1.8630  0.2913  2.6982
  129MOL   H30446640   4.103   4.618   4.750 -0.0883  0.9772  0.1721
  129MOL   H30546641   4.038   4.549   5.046 -0.8001  0.0669  0.4588
  129MOL   H30646642   4.092   4.422   4.933 -0.2030  0.2088 -0.1935
  129MOL   H30746643   3.944   4.519   4.904  0.1948  1.9209 -1.1165
  129MOL   C30846644   4.493   4.878   5.142  0.2186 -0.1106  0.0706
  129MOL   C30946645   4.643   4.838   5.136  0.0249  0.4828  0.2607
  129MOL   C31046646   4.669   4.718   5.037  0.2397 -0.1953  0.5744
  129MOL   O31146647   4.721   4.612   5.068  0.1255 -0.4386 -0.3484
  129MOL   O31246648   4.623   4.747   4.911 -0.0744 -0.2998 -0.3175
  129MOL   C31346649   4.658   4.658   4.799  0.2055  0.5275 -0.4424
  129MOL   C31446650   4.698   4.749   4.682 -0.5389 -0.1366  0.0506
  129MOL   C31546651   4.808   4.846   4.707  0.5607 -0.8799  0.2641
  129MOL   H31646652   4.479   4.983   5.167 -0.3733 -0.7552  2.4848
  129MOL   H31746653   4.459   4.898   5.040 -1.0286 -0.7988  0.3434
  129MOL   H31846654   4.669   4.801   5.235 -2.1894 -0.9672  0.3380
  129MOL   H31946655   4.739   4.588   4.817 -0.2758 -0.2035 -1.1267
  129MOL   H32046656   4.575   4.596   4.766  0.0388 -1.5509  3.5707
  129MOL   H32146657   4.738   4.680   4.607  0.4097  2.3603 -1.8299
  129MOL   H32246658   4.615   4.811   4.649 -1.4887 -0.9133  0.9696
  129MOL   H32346659   4.896   4.793   4.743  2.0153 -0.4180 -2.4815
  129MOL   H32446660   4.820   4.920   4.628  0.0232  2.8307  3.4996
  129MOL   H32546661   4.772   4.916   4.783  2.1500  0.7258 -0.4215
  129MOL   C32646662   4.731   4.969   5.098 -0.1249  0.1395  0.4229
  129MOL   C32746663   4.877   4.949   5.084 -0.7543 -0.4047 -0.2278
  129MOL   C32846664   4.947   5.073   5.024  0.5168 -0.3055 -0.0265
  129MOL   O32946665   4.912   5.182   5.067 -0.0651 -0.2696 -0.4627
  129MOL   O33046666   5.046   5.054   4.926  0.2611  0.0142  0.4886
  129MOL   C33146667   5.098   5.164   4.853 -0.0387 -0.8389 -0.0188
  129MOL   C33246668   5.195   5.131   4.732  0.1310  0.9957 -0.0324
  129MOL   C33346669   5.120   5.072   4.615 -0.6353 -0.6172  0.6409
  129MOL   H33446670   4.709   5.046   5.172 -0.9228  1.0476 -0.7405
  129MOL   H33546671   4.700   5.015   5.004 -1.3381  2.1150  1.7497
  129MOL   H33646672   4.897   4.869   5.012 -2.2542  1.0873 -2.3316
  129MOL   H33746673   5.014   5.217   4.809 -0.5054 -1.8523 -0.3682
  129MOL   H33846674   5.135   5.239   4.923  0.6568 -1.3368  0.1510
  129MOL   H33946675   5.234   5.224   4.690 -0.8928  0.2423 -2.7465
  129MOL   H34046676   5.279   5.071   4.767  0.3463 -0.0430 -2.2552
  129MOL   H34146677   5.013   5.090   4.620 -0.7410 -0.3805 -1.9250
  129MOL   H34246678   5.153   5.106   4.516  1.7416  0.6817  1.8187
  129MOL   H34346679   5.135   4.964   4.616  0.4139 -0.5486 -2.4832
  129MOL   C34446680   4.948   4.910   5.219 -0.1266 -0.4878 -0.3601
  129MOL   C34546681   5.072   4.830   5.181 -0.1219  0.0719 -0.2005
  129MOL   C34646682   5.128   4.755   5.304  0.3217  0.4302  0.1243
  129MOL   O34746683   5.090   4.781   5.417 -0.5350  0.1908 -0.3401
  129MOL   O34846684   5.221   4.662   5.269  0.3414 -0.7117 -0.0185
  129MOL   C34946685   5.269   4.571   5.366  0.1346 -0.2949 -0.2589
  129MOL   C35046686   5.390   4.492   5.328 -0.0721 -0.0145  0.5150
  129MOL   C35146687   5.506   4.583   5.295  0.1571 -0.7021 -0.0017
  129MOL   H35246688   4.890   4.838   5.277  1.4242 -1.7252 -0.2979
  129MOL   H35346689   4.966   4.996   5.284  2.0993 -0.7311 -0.6143
  129MOL   H35446690   5.152   4.883   5.129  0.8159 -1.3403 -0.2219
  129MOL   H35546691   5.299   4.632   5.451 -0.8576  1.4550 -1.1363
  129MOL   H35646692   5.179   4.513   5.389 -0.0008 -0.9579 -2.3742
  129MOL   H35746693   5.416   4.412   5.398 -1.6229  0.8673  2.1334
  129MOL   H35846694   5.352   4.450   5.235 -1.0205  1.2775  0.2980
  129MOL   H35946695   5.568   4.532   5.221  0.8561 -0.1586  0.2139
  129MOL   H36046696   5.458   4.671   5.252 -0.5864  0.1313  2.4646
  129MOL   H36146697   5.557   4.623   5.382  1.7858 -0.8825 -0.8583
  129MOL   H36246698   5.039   4.752   5.112 -1.7964  0.4062  0.2132
  130MOL     C146699   5.356   4.188   2.240  0.3007  0.1202 -0.9546
  130MOL     C246700   5.454   4.244   2.144  0.5638 -0.7846 -0.2150
  130MOL     C346701   5.539   4.135   2.089 -0.0559  0.6788  0.3499
  130MOL     O446702   5.490   4.031   2.042  0.0872 -0.2589  0.5117
  130MOL     O546703   5.671   4.148   2.111  0.4894 -1.0891 -0.2244
  130MOL     C646704   5.757   4.052   2.038 -0.1425  0.3099 -0.0702
  130MOL     C746705   5.899   4.086   2.076  0.5308  0.5860  0.1908
  130MOL     C846706   5.943   4.230   2.036 -0.1652  0.2337 -0.3020
  130MOL     H946707   5.265   4.142   2.200 -1.2233  2.3448 -0.1202
  130MOL    H1046708   5.415   4.123   2.305 -0.7345  0.9820  0.8777
  130MOL    H1146709   5.516   4.302   2.212  0.4519 -1.0021  0.0780
  130MOL    H1246710   5.726   3.949   2.058  3.4653 -0.7948  0.2817
  130MOL    H1346711   5.732   4.075   1.935 -0.9571 -0.2968 -0.0148
  130MOL    H1446712   5.903   4.079   2.185 -0.7857 -2.1842  0.1072
  130MOL    H1546713   5.974   4.014   2.043  0.1828  0.3093 -0.0011
  130MOL    H1646714   5.869   4.304   2.064  0.9530  0.7068  1.4815
  130MOL    H1746715   6.041   4.245   2.080 -0.9813  0.0784  1.6462
  130MOL    H1846716   5.962   4.238   1.929 -1.4035 -0.2458 -0.5738
  130MOL    H1946717   5.318   4.264   2.308 -1.0706  0.8973 -2.5509
  130MOL    C2046718   5.387   4.331   2.035  0.2405 -0.5188  0.7682
  130MOL    C2146719   5.496   4.428   1.965  0.1655  0.0254 -0.7182
  130MOL    C2246720   5.434   4.467   1.825 -0.6125 -0.7662 -0.4285
  130MOL    O2346721   5.336   4.540   1.821 -0.6835  0.9311  0.2043
  130MOL    O2446722   5.490   4.404   1.726 -0.1927 -0.3313 -0.2012
  130MOL    C2546723   5.443   4.423   1.595  1.0043 -0.1223 -0.5681
  130MOL    C2646724   5.517   4.334   1.490 -0.7119  0.7034  0.8523
  130MOL    C2746725   5.660   4.389   1.462 -0.0645  0.2387  0.2888
  130MOL    H2846726   5.308   4.392   2.079  1.0920  0.8646  0.4004
  130MOL    H2946727   5.326   4.269   1.969 -0.7270 -0.5201  1.6598
  130MOL    H3046728   5.589   4.372   1.954 -0.6965 -1.5304 -0.2857
  130MOL    H3146729   5.339   4.390   1.592  1.3332 -1.3000  0.7054
  130MOL    H3246730   5.454   4.529   1.576 -2.8254  0.5863  0.6647
  130MOL    H3346731   5.515   4.229   1.519 -2.5404 -0.1006 -1.9853
  130MOL    H3446732   5.456   4.336   1.400  1.0718 -2.5926 -0.5101
  130MOL    H3546733   5.718   4.380   1.553 -0.1663  0.1252  0.3428
  130MOL    H3646734   5.659   4.489   1.418 -1.3859  0.2989  0.4290
  130MOL    H3746735   5.709   4.335   1.381 -0.6200  0.9704 -0.5429
  130MOL    C3846736   5.539   4.547   2.056 -0.3826 -0.1464 -0.1691
  130MOL    C3946737   5.630   4.652   1.980 -0.0032 -0.0378 -0.3631
  130MOL    C4046738   5.652   4.772   2.083 -0.2047  0.2214 -0.1642
  130MOL    O4146739   5.715   4.759   2.192 -0.2146 -0.6008  0.5792
  130MOL    O4246740   5.588   4.891   2.041  0.2835 -0.0348 -0.1544
  130MOL    C4346741   5.598   5.013   2.111 -0.7230  0.0004 -0.0018
  130MOL    C4446742   5.485   5.107   2.064  0.0901  0.9840 -0.0255
  130MOL    C4546743   5.519   5.245   2.131  0.0480  0.4701 -0.3031
  130MOL    H4646744   5.589   4.506   2.144  1.7594  0.0929 -1.2278
  130MOL    H4746745   5.450   4.597   2.093 -0.0525 -1.0047  1.8783
  130MOL    H4846746   5.570   4.692   1.898 -1.3513  1.2704  1.2264
  130MOL    H4946747   5.601   5.006   2.219  1.8036  1.0010  0.0044
  130MOL    H5046748   5.698   5.049   2.092 -0.6265 -0.5725 -0.6224
  130MOL    H5146749   5.490   5.107   1.955 -5.0350 -1.4387 -0.4218
  130MOL    H5246750   5.390   5.062   2.094  0.8773 -0.3208  0.5423
  130MOL    H5346751   5.625   5.260   2.112  0.1137 -1.2940 -1.4613
  130MOL    H5446752   5.500   5.247   2.238 -2.0598 -0.2549 -0.6320
  130MOL    H5546753   5.478   5.338   2.091  1.2309  0.5224 -1.4180
  130MOL    C5646754   5.765   4.600   1.931 -0.2366 -0.5479 -0.2336
  130MOL    C5746755   5.867   4.691   1.850 -0.3042  0.1406  0.1814
  130MOL    C5846756   6.008   4.625   1.846 -0.3698  0.0854  0.2625
  130MOL    O5946757   6.028   4.508   1.867 -0.8573 -0.2292 -0.7222
  130MOL    O6046758   6.111   4.706   1.823  0.3627  0.9580  0.0096
  130MOL    C6146759   6.238   4.657   1.801  0.2513  0.1791  0.9784
  130MOL    C6246760   6.314   4.758   1.709 -0.0636  0.5663  0.0520
  130MOL    C6346761   6.262   4.749   1.564  0.4446 -0.3592 -0.0422
  130MOL    H6446762   5.751   4.508   1.875 -2.6878 -0.8944  0.9010
  130MOL    H6546763   5.810   4.563   2.023 -0.6870  1.8347  1.0039
  130MOL    H6646764   5.889   4.787   1.898 -0.6131  1.2529 -1.8556
  130MOL    H6746765   6.287   4.635   1.896  0.6679 -1.7493  0.3465
  130MOL    H6846766   6.227   4.562   1.747  0.7327  0.3378  0.6004
  130MOL    H6946767   6.305   4.853   1.762  0.9779  0.5343  0.2858
  130MOL    H7046768   6.421   4.743   1.713 -0.1788 -0.1888  0.3645
  130MOL    H7146769   6.300   4.826   1.497 -1.9237 -0.1763 -1.2178
  130MOL    H7246770   6.153   4.742   1.557  0.5004 -3.7260  1.5461
  130MOL    H7346771   6.296   4.653   1.527 -0.8378 -1.1220  0.7252
  130MOL    C7446772   5.806   4.715   1.708  0.5164 -0.2329  0.0105
  130MOL    C7546773   5.851   4.842   1.635 -0.1910  0.1431  0.1030
  130MOL    C7646774   5.809   4.841   1.482  0.3829  0.7386 -0.4287
  130MOL    O7746775   5.692   4.827   1.448 -0.0940  0.3054  0.8729
  130MOL    O7846776   5.920   4.845   1.402 -0.3993 -0.5857 -0.2700
  130MOL    C7946777   5.918   4.801   1.267  0.4341 -0.6173  0.7701
  130MOL    C8046778   5.997   4.675   1.245 -0.5358  0.1884 -0.5571
  130MOL    C8146779   5.936   4.544   1.308  0.2478 -0.6018 -0.2132
  130MOL    H8246780   5.699   4.725   1.727  0.4302  0.3726 -0.7728
  130MOL    H8346781   5.820   4.629   1.643 -0.5477  0.4895 -1.1979
  130MOL    H8446782   5.957   4.819   1.643 -0.5051 -0.5988  2.7037
  130MOL    H8546783   5.817   4.790   1.229  0.0993 -0.3471  1.5753
  130MOL    H8646784   5.968   4.884   1.216  1.4898  0.0183  2.7629
  130MOL    H8746785   6.011   4.660   1.138 -0.1003 -1.2800 -0.3007
  130MOL    H8846786   6.098   4.681   1.286 -0.1670 -0.8687 -1.2929
  130MOL    H8946787   5.980   4.455   1.263  4.1442 -0.1159  2.4408
  130MOL    H9046788   5.830   4.534   1.284  0.2508 -1.2152  0.0254
  130MOL    H9146789   5.949   4.536   1.415  1.3441  0.2442 -0.2641
  130MOL    C9246790   5.826   4.979   1.704  0.9557  0.1379 -0.3832
  130MOL    C9346791   5.899   5.099   1.650 -0.3722  0.1307  0.1485
  130MOL    C9446792   5.855   5.226   1.729 -0.1773  0.8707  0.0640
  130MOL    O9546793   5.925   5.291   1.802 -0.2404 -0.7670  0.5395
  130MOL    O9646794   5.721   5.257   1.713  0.1868 -0.2255  0.9099
  130MOL    C9746795   5.661   5.376   1.775 -0.0148 -0.8097 -0.4656
  130MOL    C9846796   5.543   5.449   1.709 -0.1450  0.9690  0.0503
  130MOL    C9946797   5.410   5.366   1.715  0.5802 -0.2284  0.3735
  130MOL   H10046798   5.843   4.983   1.812  1.2527 -2.6484 -0.3044
  130MOL   H10146799   5.718   4.991   1.708  0.7338 -2.3202  3.5348
  130MOL   H10246800   5.879   5.117   1.544 -2.8800  2.2262  0.9287
  130MOL   H10346801   5.634   5.329   1.870 -0.7442 -2.4241 -1.4666
  130MOL   H10446802   5.740   5.448   1.797 -1.4631  0.9788 -1.0038
  130MOL   H10546803   5.543   5.551   1.748  0.9667  0.6887  0.8069
  130MOL   H10646804   5.580   5.462   1.608  1.1645  2.3617  0.7005
  130MOL   H10746805   5.321   5.411   1.669  0.6361 -2.6319 -2.2036
  130MOL   H10846806   5.377   5.349   1.817 -0.8081 -1.3848 -0.2475
  130MOL   H10946807   5.426   5.262   1.687 -0.9320 -0.8138  1.6079
  130MOL   C11046808   6.060   5.085   1.660 -0.8118 -0.2404  0.5110
  130MOL   C11146809   6.148   5.199   1.593 -0.0156  0.6639  0.0224
  130MOL   C11246810   6.290   5.211   1.654 -0.1075 -0.2235 -0.6434
  130MOL   O11346811   6.322   5.309   1.715 -0.0447  0.1928 -0.0042
  130MOL   O11446812   6.375   5.109   1.629  0.1536 -0.0167  0.3937
  130MOL   C11546813   6.510   5.119   1.667 -0.5223 -1.0484 -0.4615
  130MOL   C11646814   6.589   5.025   1.580  0.6192  0.5502  0.7288
  130MOL   C11746815   6.595   5.067   1.434  0.6591  0.2772 -0.0517
  130MOL   H11846816   6.092   4.986   1.625 -0.8371 -0.0160 -0.1396
  130MOL   H11946817   6.071   5.085   1.769 -0.5387  0.9337  0.4890
  130MOL   H12046818   6.116   5.295   1.631  3.0438  0.4124  3.5240
  130MOL   H12146819   6.552   5.218   1.648  0.5939 -1.7118 -1.4854
  130MOL   H12246820   6.522   5.104   1.775  1.0173 -0.6234 -0.5536
  130MOL   H12346821   6.695   5.023   1.607  1.1096 -1.6016 -1.2035
  130MOL   H12446822   6.548   4.924   1.580  3.4853 -0.6835 -0.3039
  130MOL   H12546823   6.496   5.074   1.389  0.8686 -1.0970 -0.7695
  130MOL   H12646824   6.654   4.999   1.372  1.2104  1.1673 -0.5126
  130MOL   H12746825   6.626   5.171   1.435 -3.6173  1.6540 -1.1344
  130MOL   C12846826   6.152   5.213   1.438  0.1573 -0.4508 -0.6466
  130MOL   C12946827   6.180   5.355   1.384  0.9512 -0.1245 -0.4734
  130MOL   C13046828   6.330   5.388   1.370 -0.7032 -0.2709 -0.2776
  130MOL   O13146829   6.391   5.453   1.459 -0.1869  0.2957 -0.5116
  130MOL   O13246830   6.380   5.347   1.254  0.0505  0.3584 -0.2218
  130MOL   C13346831   6.514   5.381   1.228 -0.6811 -0.3029  0.0392
  130MOL   C13446832   6.556   5.310   1.101  0.1771  0.2445 -0.2215
  130MOL   C13546833   6.703   5.286   1.090  0.0420  0.6893  0.2541
  130MOL   H13646834   6.059   5.166   1.406 -0.9773  0.1590  1.6605
  130MOL   H13746835   6.226   5.146   1.393 -0.9612 -1.1571 -1.4686
  130MOL   H13846836   6.131   5.427   1.450 -0.7728 -0.2858 -1.5386
  130MOL   H13946837   6.517   5.488   1.207  0.5736 -0.3523 -0.0916
  130MOL   H14046838   6.589   5.353   1.302 -1.2048  1.3742  1.2175
  130MOL   H14146839   6.509   5.213   1.083  2.8376 -0.8847 -1.3387
  130MOL   H14246840   6.521   5.374   1.019 -2.6386 -1.5572 -0.5260
  130MOL   H14346841   6.727   5.192   1.140 -1.9094 -0.0209 -0.0981
  130MOL   H14446842   6.765   5.366   1.132  0.0775 -0.4725  2.5474
  130MOL   H14546843   6.725   5.273   0.985  0.2119  0.1249  0.3544
  130MOL   C14646844   6.104   5.379   1.255 -0.1855  0.2432  0.4783
  130MOL   C14746845   5.945   5.379   1.259 -0.3974 -0.2172 -0.2019
  130MOL   C14846846   5.888   5.476   1.356  0.5542  0.7139 -0.1541
  130MOL   O14946847   5.795   5.442   1.428 -0.5587 -0.5656  0.7500
  130MOL   O15046848   5.945   5.598   1.355 -0.5882 -0.6796  0.3550
  130MOL   C15146849   5.885   5.701   1.426 -0.0892  0.2408  0.3085
  130MOL   C15246850   5.772   5.780   1.341  0.7063 -0.9638 -0.4873
  130MOL   C15346851   5.817   5.817   1.196 -0.4454  0.2440  0.9829
  130MOL   H15446852   6.148   5.314   1.180 -0.8927 -1.9172  1.8811
  130MOL   H15546853   6.130   5.480   1.226  0.6886  0.1198  0.8142
  130MOL   H15646854   5.908   5.293   1.315 -0.4702 -0.6756 -0.9494
  130MOL   H15746855   5.847   5.678   1.526  1.7772 -2.0775  0.5391
  130MOL   H15846856   5.963   5.774   1.442 -2.5676  2.5186  2.4854
  130MOL   H15946857   5.686   5.713   1.337  0.9559 -1.4914  2.0137
  130MOL   H16046858   5.736   5.874   1.383 -0.3722 -2.1348  1.2386
  130MOL   H16146859   5.914   5.863   1.212 -0.0112  0.0250 -0.9620
  130MOL   H16246860   5.750   5.890   1.151 -1.8985 -1.7470 -0.1410
  130MOL   H16346861   5.811   5.728   1.134  0.0049  1.6152 -1.0618
  130MOL   C16446862   5.877   5.374   1.119 -0.6807 -0.5013  1.2895
  130MOL   C16546863   5.854   5.225   1.057  0.6142 -0.0361  0.4686
  130MOL   C16646864   5.766   5.135   1.136 -0.1305 -0.2388 -0.0282
  130MOL   O16746865   5.785   5.016   1.127 -0.1152 -0.4303  0.7971
  130MOL   O16846866   5.678   5.196   1.214  0.5017  0.0458 -0.0055
  130MOL   C16946867   5.585   5.118   1.290 -0.1396 -0.1242  0.1971
  130MOL   C17046868   5.498   5.208   1.382  0.9588  1.1057  0.9053
  130MOL   C17146869   5.431   5.327   1.324 -1.4319  0.0033 -0.0157
  130MOL   H17246870   5.940   5.429   1.049  0.9902 -0.7282  2.5895
  130MOL   H17346871   5.786   5.433   1.122 -0.3218  0.0764  1.0020
  130MOL   H17446872   5.951   5.176   1.067  1.2849  0.4537 -2.8881
  130MOL   H17546873   5.517   5.061   1.227 -0.8734 -1.2475  1.9681
  130MOL   H17646874   5.649   5.055   1.352 -0.4596  0.7867  1.4772
  130MOL   H17746875   5.424   5.135   1.416  0.4549  0.4717 -1.4471
  130MOL   H17846876   5.558   5.244   1.465  2.4949 -2.1515  1.3165
  130MOL   H17946877   5.391   5.292   1.229 -0.6076  0.5748 -0.5885
  130MOL   H18046878   5.519   5.389   1.302 -1.6296  0.1249 -0.4694
  130MOL   H18146879   5.358   5.379   1.385  1.0435 -0.5199  3.5511
  130MOL   C18246880   5.817   5.222   0.907  0.8218 -0.4186  0.0001
  130MOL   C18346881   5.674   5.261   0.871  1.0354  0.2981  0.6906
  130MOL   C18446882   5.649   5.410   0.872 -0.3262 -0.4998 -0.1857
  130MOL   O18546883   5.544   5.451   0.929  0.0700  0.0618 -0.4963
  130MOL   O18646884   5.751   5.486   0.823 -0.1228 -1.2400 -0.3127
  130MOL   C18746885   5.748   5.627   0.832  0.3018 -0.0571  0.6485
  130MOL   C18846886   5.892   5.682   0.811 -0.0345 -0.3886  0.8000
  130MOL   C18946887   5.922   5.728   0.668  0.0654 -0.0484 -0.3984
  130MOL   H19046888   5.840   5.119   0.880  2.3414  0.2637 -1.4441
  130MOL   H19146889   5.890   5.282   0.853 -1.0722  1.4183 -0.6000
  130MOL   H19246890   5.615   5.230   0.957 -2.2215 -0.2178 -1.6434
  130MOL   H19346891   5.684   5.671   0.756  0.3300 -3.2737 -1.3177
  130MOL   H19446892   5.700   5.663   0.924 -0.4071 -0.0028  0.2586
  130MOL   H19546893   5.919   5.760   0.883  1.3285  1.9747 -2.1403
  130MOL   H19646894   5.950   5.601   0.853  2.3612  0.0911 -1.4663
  130MOL   H19746895   5.919   5.651   0.591  1.7362 -0.5651  0.0310
  130MOL   H19846896   6.024   5.765   0.662  0.7761 -2.2282 -2.3242
  130MOL   H19946897   5.854   5.806   0.634 -0.3365 -0.3618 -0.3110
  130MOL   C20046898   5.606   5.189   0.748  0.6664  0.0838 -0.4212
  130MOL   C20146899   5.670   5.212   0.608 -0.3818 -0.2697 -0.1923
  130MOL   C20246900   5.802   5.137   0.575  0.1598 -0.0148  0.4770
  130MOL   O20346901   5.834   5.031   0.623 -0.3093 -0.2856 -0.1072
  130MOL   O20446902   5.879   5.206   0.494  0.4582 -0.4454 -0.6029
  130MOL   C20546903   5.984   5.138   0.421  0.2819  0.8510 -0.4465
  130MOL   C20646904   5.979   5.200   0.286 -0.3808  0.0648  0.3182
  130MOL   C20746905   6.078   5.142   0.199  0.2701 -0.0638 -0.0234
  130MOL   H20846906   5.499   5.210   0.754  0.5622 -0.6376  0.1805
  130MOL   H20946907   5.594   5.081   0.755 -0.4895  0.1838 -0.7112
  130MOL   H21046908   5.696   5.318   0.607  0.1980 -0.4092 -2.5478
  130MOL   H21146909   6.081   5.166   0.462 -0.3318  0.2557  1.4174
  130MOL   H21246910   5.967   5.031   0.407  0.9672  0.3964  2.0957
  130MOL   H21346911   5.881   5.177   0.243  0.0540 -1.3518  0.0456
  130MOL   H21446912   5.990   5.307   0.298  0.1741 -0.0076  0.4691
  130MOL   H21546913   6.084   5.197   0.106 -0.0874  0.5507  0.3126
  130MOL   H21646914   6.057   5.041   0.164 -0.5846  0.3322 -0.6713
  130MOL   H21746915   6.182   5.145   0.233  0.5415  2.1401 -0.9290
  130MOL   C21846916   5.566   5.197   0.491 -0.1529  0.2664 -0.1063
  130MOL   C21946917   5.566   5.332   0.406 -0.2586  1.0149 -0.0455
  130MOL   C22046918   5.512   5.305   0.261  1.0405 -0.6739 -0.5392
  130MOL   O22146919   5.388   5.292   0.240 -0.2143  0.3489 -0.2751
  130MOL   O22246920   5.605   5.305   0.164 -0.3214 -0.4603 -0.1679
  130MOL   C22346921   5.558   5.309   0.033  0.5820 -0.1783 -0.1814
  130MOL   C22446922   5.674   5.284   7.812  0.0237 -0.1974  0.2837
  130MOL   C22546923   5.616   5.283   7.671 -0.1441 -0.2468 -0.5924
  130MOL   H22646924   5.463   5.194   0.527  0.3524  2.9312  1.7368
  130MOL   H22746925   5.563   5.105   0.433 -2.3165  1.0310 -1.2761
  130MOL   H22846926   5.672   5.358   0.405 -0.3540  1.3967 -1.4472
  130MOL   H22946927   5.472   5.242   0.025  1.8734 -2.0430  1.0722
  130MOL   H23046928   5.521   5.411   0.035 -0.6466 -0.6049 -1.0771
  130MOL   H23146929   5.756   5.355   7.820 -0.6201  0.5272  0.5304
  130MOL   H23246930   5.720   5.187   7.833  0.6830 -0.0711 -0.5552
  130MOL   H23346931   5.546   5.361   7.643  0.0626  0.6743  1.3496
  130MOL   H23446932   5.572   5.186   7.649 -0.9594  0.2912 -1.3309
  130MOL   H23546933   5.693   5.288   7.595 -1.0934 -1.1909 -1.6286
  130MOL   C23646934   5.483   5.438   0.488  0.5039 -0.6778  0.5856
  130MOL   C23746935   5.476   5.583   0.423 -0.3028 -0.5783 -0.1833
  130MOL   C23846936   5.368   5.658   0.505  0.3222 -0.2381 -0.1570
  130MOL   O23946937   5.390   5.751   0.578 -0.4078  0.3281 -0.6158
  130MOL   O24046938   5.244   5.600   0.494  0.2346  0.5820  0.1810
  130MOL   C24146939   5.131   5.653   0.568  0.2862  0.4074 -0.7966
  130MOL   C24246940   5.103   5.560   0.684 -0.4646  0.4736  0.7148
  130MOL   C24346941   5.018   5.628   0.798  0.2055  0.0790  0.1066
  130MOL   H24446942   5.540   5.461   0.578  0.5637  2.7777 -0.2948
  130MOL   H24546943   5.383   5.399   0.511  1.1466 -2.3871  0.5936
  130MOL   H24646944   5.434   5.573   0.323  0.6530  1.3763 -0.8003
  130MOL   H24746945   5.150   5.757   0.591  2.4662 -0.0532 -0.3864
  130MOL   H24846946   5.039   5.647   0.510 -2.0244  0.2052  2.7700
  130MOL   H24946947   5.061   5.468   0.641 -0.9359  0.5778  0.9434
  130MOL   H25046948   5.195   5.532   0.735  0.5610 -0.0995 -1.3819
  130MOL   H25146949   4.912   5.634   0.771  0.0059  1.0366  1.0709
  130MOL   H25246950   5.059   5.724   0.829  0.8078 -0.2827  0.4458
  130MOL   H25346951   5.031   5.561   0.883 -0.5130 -1.6724 -1.1148
  130MOL   C25446952   5.618   5.661   0.423  0.8971  0.3367  0.3322
  130MOL   C25546953   5.647   5.719   0.285 -0.2629  0.0337  0.6081
  130MOL   C25646954   5.603   5.863   0.273 -0.2064 -0.5353  0.2695
  130MOL   O25746955   5.530   5.908   0.180 -0.2593  0.4023 -0.3313
  130MOL   O25846956   5.663   5.934   0.363 -0.2637 -0.4263 -0.0374
  130MOL   C25946957   5.657   6.069   0.359 -0.1243  0.0033 -1.1647
  130MOL   C26046958   5.718   6.141   0.479  0.0061 -0.0877  0.2550
  130MOL   C26146959   5.669   6.096   0.619 -0.0961 -0.2365  0.3798
  130MOL   H26246960   5.684   5.580   0.456  1.9517  1.3128  0.6278
  130MOL   H26346961   5.626   5.732   0.505  0.4252  0.6312  0.1256
  130MOL   H26446962   5.594   5.653   0.216  0.0980  1.3120 -0.9024
  130MOL   H26546963   5.699   6.116   0.269  1.1556  0.5111 -0.3150
  130MOL   H26646964   5.553   6.100   0.358  0.4846  2.1960 -4.0545
  130MOL   H26746965   5.825   6.137   0.459 -0.0800  1.2985 -0.5505
  130MOL   H26846966   5.701   6.249   0.473  1.6061  0.1922  0.5349
  130MOL   H26946967   5.681   5.990   0.642 -0.4788 -0.6354 -1.2474
  130MOL   H27046968   5.564   6.115   0.642 -0.0436  0.1147  0.3389
  130MOL   H27146969   5.708   6.158   0.700 -0.1674 -1.8603  1.6820
  130MOL   C27246970   5.790   5.697   0.248 -0.4486  0.3760 -0.1757
  130MOL   C27346971   5.800   5.617   0.111 -0.3912  1.1301 -0.2051
  130MOL   C27446972   5.764   5.704   7.871 -0.3394  0.1329 -0.0827
  130MOL   O27546973   5.658   5.679   7.805 -0.2967 -0.6096 -0.1320
  130MOL   O27646974   5.848   5.803   7.852 -0.5813 -0.1092  0.5676
  130MOL   C27746975   5.825   5.900   7.750  0.1882 -0.9787 -0.4970
  130MOL   C27846976   5.719   6.000   7.793 -0.4755  0.1788  0.1645
  130MOL   C27946977   5.766   6.104   0.018  0.2826  0.8996  0.3067
  130MOL   H28046978   5.858   5.654   0.321  1.0225  0.9127 -1.2130
  130MOL   H28146979   5.835   5.795   0.234 -2.1318  1.0880 -0.7717
  130MOL   H28246980   5.715   5.549   0.102 -1.9330  3.2506 -2.2486
  130MOL   H28346981   5.924   5.943   7.732  0.0607 -0.7221 -0.5942
  130MOL   H28446982   5.787   5.857   7.657 -0.1181 -2.4596  0.2977
  130MOL   H28546983   5.680   6.054   7.707  1.6312  1.5300  0.0150
  130MOL   H28646984   5.635   5.947   7.836 -1.1028  0.7171 -0.3910
  130MOL   H28746985   5.848   6.167   7.863  1.1783 -0.2334  0.3033
  130MOL   H28846986   5.806   6.053   0.106 -0.6245 -1.3321 -0.5299
  130MOL   H28946987   5.686   6.171   0.049 -0.7029  0.9803 -2.2831
  130MOL   C29046988   5.927   5.530   0.101 -0.3802  1.2925  0.3403
  130MOL   C29146989   6.067   5.593   0.082  0.6991  0.1604 -0.1064
  130MOL   C29246990   6.133   5.653   0.208  0.5788  0.4226  0.2490
  130MOL   O29346991   6.121   5.598   0.315 -0.2772 -0.3265 -0.6021
  130MOL   O29446992   6.193   5.768   0.182  0.0600 -0.4221 -0.5394
  130MOL   C29546993   6.259   5.844   0.290 -0.0546 -0.2288  0.6309
  130MOL   C29646994   6.235   5.987   0.261 -0.1445 -0.0025  1.0224
  130MOL   C29746995   6.108   6.046   0.330 -0.3420 -0.2540 -0.3500
  130MOL   H29846996   5.916   5.455   0.022 -0.1190 -0.5342  2.0178
  130MOL   H29946997   5.926   5.470   0.191 -0.8581  2.8390  1.3955
  130MOL   H30046998   6.046   5.670   0.008 -1.6038 -0.1746  0.1512
  130MOL   H30146999   6.231   5.824   0.394  0.4665 -0.7366  0.6820
  130MOL   H30247000   6.364   5.818   0.278 -0.2380 -1.3475  1.3165
  130MOL   H30347001   6.322   6.038   0.302  2.4119 -1.8410 -1.9028
  130MOL   H30447002   6.237   6.006   0.154  0.4661 -1.0926  0.8317
  130MOL   H30547003   6.120   6.154   0.337 -2.4805 -0.0658  0.5174
  130MOL   H30647004   6.081   6.013   0.430 -4.4472  0.5087 -1.1391
  130MOL   H30747005   6.013   6.028   0.280 -0.4823  0.0669 -0.1969
  130MOL   C30847006   6.179   5.498   0.003 -0.2803 -0.3422 -0.8083
  130MOL   C30947007   6.151   5.440   7.743  0.0089  0.4539 -0.3083
  130MOL   C31047008   6.106   5.545   7.640 -0.3209  0.1911 -0.3826
  130MOL   O31147009   6.010   5.515   7.568 -0.7224 -0.5151 -0.0306
  130MOL   O31247010   6.172   5.663   7.639 -0.5529 -0.2373 -0.2889
  130MOL   C31347011   6.130   5.762   7.548  0.6743  0.2606  0.6230
  130MOL   C31447012   6.214   5.886   7.567 -0.4088  0.3245 -0.3564
  130MOL   C31547013   6.160   6.003   7.488 -0.2772 -0.0177  0.0608
  130MOL   H31647014   6.203   5.421   0.076 -0.0860  0.3542 -0.1375
  130MOL   H31747015   6.271   5.556   0.008 -0.1588 -0.4282 -1.9586
  130MOL   H31847016   6.064   5.376   7.757  0.4332 -0.5960 -2.2478
  130MOL   H31947017   6.149   5.728   7.446 -0.2807  2.4496 -0.3015
  130MOL   H32047018   6.026   5.790   7.560  0.5939  0.2594 -0.0658
  130MOL   H32147019   6.215   5.901   7.675  0.8908  1.3741 -0.5020
  130MOL   H32247020   6.311   5.863   7.523 -0.9771 -0.2251 -1.3283
  130MOL   H32347021   6.228   6.089   7.485 -2.3961  1.6567 -2.3894
  130MOL   H32447022   6.144   5.987   7.381  1.0182  0.8784 -0.2894
  130MOL   H32547023   6.069   6.035   7.538 -0.0386 -1.8321  1.6914
  130MOL   C32647024   6.275   5.360   7.699 -0.0333 -0.4817  0.0514
  130MOL   C32747025   6.282   5.218   7.761 -0.4382  0.2732 -0.1674
  130MOL   C32847026   6.179   5.115   7.711  0.2739  0.7898  0.2282
  130MOL   O32947027   6.077   5.096   7.778  0.5506  0.0609  0.3738
  130MOL   O33047028   6.208   5.066   7.592  0.0570  0.0033 -0.4333
  130MOL   C33147029   6.107   4.985   7.525  0.1876 -0.1052  0.5249
  130MOL   C33247030   6.023   5.075   7.422 -0.3518  0.0834 -0.5569
  130MOL   C33347031   5.934   5.172   7.496  0.4454 -0.1136  0.2139
  130MOL   H33447032   6.364   5.414   7.730  0.6447  0.3656 -3.1520
  130MOL   H33547033   6.272   5.345   7.591  1.4827  0.0625 -0.0665
  130MOL   H33647034   6.266   5.243   7.866  0.6107 -1.9418  0.5477
  130MOL   H33747035   6.154   4.907   7.466 -0.3956 -0.2717  0.2762
  130MOL   H33847036   6.045   4.936   7.601 -0.9768 -0.3593 -0.5790
  130MOL   H33947037   6.092   5.129   7.357  2.0377  0.4601  2.1503
  130MOL   H34047038   5.966   5.007   7.358 -1.6654 -1.2784  1.9897
  130MOL   H34147039   5.881   5.228   7.419  0.6077  0.8015  0.7613
  130MOL   H34247040   5.856   5.121   7.553 -0.5727  1.0814 -0.0738
  130MOL   H34347041   5.984   5.248   7.556  2.7933 -1.6453  0.2455
  130MOL   C34447042   6.423   5.156   7.757 -0.4530  0.6260  0.2442
  130MOL   C34547043   6.479   5.111   0.014  0.2860 -0.0998  0.2183
  130MOL   C34647044   6.528   5.225   0.095  0.6365  0.6232 -0.2422
  130MOL   O34747045   6.482   5.341   0.088 -0.0007  0.2384  0.1258
  130MOL   O34847046   6.636   5.191   0.169  0.1301 -0.7924  0.3292
  130MOL   C34947047   6.712   5.287   0.238 -0.9058  0.2382 -1.0693
  130MOL   C35047048   6.864   5.252   0.231 -0.0772  0.3600  0.4318
  130MOL   C35147049   6.953   5.376   0.210  0.4173 -0.4415 -0.1466
  130MOL   H35247050   6.500   5.216   7.707  0.7669  0.3015  1.7211
  130MOL   H35347051   6.427   5.065   7.697 -0.3391  0.8005 -0.0130
  130MOL   H35447052   6.556   5.034   0.003  3.8528  3.0341  2.1675
  130MOL   H35547053   6.693   5.382   0.188  0.2873  0.9396 -0.2201
  130MOL   H35647054   6.686   5.300   0.343 -1.8436 -0.4753 -1.2080
  130MOL   H35747055   6.892   5.182   0.310 -0.5399 -0.7388 -0.3551
  130MOL   H35847056   6.888   5.198   0.140 -0.2637 -2.2875  1.8866
  130MOL   H35947057   7.054   5.344   0.185  1.2711  1.9814  0.0872
  130MOL   H36047058   6.907   5.437   0.131 -0.3612 -1.8365 -0.7919
  130MOL   H36147059   6.965   5.430   0.304  1.6091  1.3730 -1.3017
  130MOL   H36247060   6.407   5.047   0.063 -0.4822 -1.1803 -2.2091
  131MOL     C147061   0.299   4.081   2.529  0.2879  0.0325  0.4311
  131MOL     C247062   0.357   3.966   2.449  0.0500  0.6000 -0.8207
  131MOL     C347063   0.271   3.929   2.330 -0.2521 -0.3146  0.5588
  131MOL     O447064   0.236   3.818   2.304  0.2108 -0.6468  0.0073
  131MOL     O547065   0.256   4.030   2.241 -0.3597  0.8549  0.2331
  131MOL     C647066   0.194   4.008   2.119 -0.0893  0.4013 -0.0676
  131MOL     C747067   0.043   4.036   2.129  0.0255  0.0214  0.1877
  131MOL     C847068   7.844   3.902   2.161  0.4221  0.0570  0.5089
  131MOL     H947069   0.302   4.064   2.637  0.3829 -1.5430  0.1932
  131MOL    H1047070   0.336   4.182   2.507 -1.7695  0.8811  0.7245
  131MOL    H1147071   0.342   3.887   2.522 -1.1130  1.4216 -0.1549
  131MOL    H1247072   0.236   4.092   2.065 -0.8745 -0.2572 -1.7199
  131MOL    H1347073   0.226   3.918   2.065 -0.5217 -0.9455  1.8509
  131MOL    H1447074   0.021   4.104   2.211 -0.9298  0.3329 -0.3179
  131MOL    H1547075   7.879   4.077   2.038  1.2502  0.2481 -0.3038
  131MOL    H1647076   7.737   3.912   2.140  0.2492  0.3556  1.5109
  131MOL    H1747077   7.876   3.806   2.120  2.4273  0.7707  0.3806
  131MOL    H1847078   7.851   3.874   2.266  2.5140 -0.8049  0.1603
  131MOL    H1947079   0.194   4.097   2.505  0.5004  1.8792  0.6469
  131MOL    C2047080   0.506   3.989   2.421  0.8249  0.0383  0.5496
  131MOL    C2147081   0.588   3.860   2.386  0.2159 -0.1264  0.1904
  131MOL    C2247082   0.659   3.894   2.260 -0.1213  0.0137  0.4615
  131MOL    O2347083   0.783   3.886   2.247 -0.0585 -0.3232 -0.4485
  131MOL    O2447084   0.574   3.942   2.163  0.3581  0.0000  0.0582
  131MOL    C2547085   0.618   3.978   2.037 -0.3780 -0.0131  0.4126
  131MOL    C2647086   0.498   4.023   1.955  0.5413 -1.0358 -0.1487
  131MOL    C2747087   0.526   4.023   1.809 -0.5722  0.1687 -0.1662
  131MOL    H2847088   0.552   4.043   2.504  0.1966 -1.2099  1.7391
  131MOL    H2947089   0.497   4.066   2.345  0.2002 -0.7065 -0.1357
  131MOL    H3047090   0.523   3.777   2.358 -1.6604  1.9758 -1.8734
  131MOL    H3147091   0.701   4.049   2.033  0.2827 -0.7157  1.4808
  131MOL    H3247092   0.662   3.887   1.999 -0.8534 -0.3094  0.5685
  131MOL    H3347093   0.425   3.945   1.975  0.0454 -1.0393 -1.8579
  131MOL    H3447094   0.449   4.116   1.984  0.5020 -1.3860  0.9157
  131MOL    H3547095   0.588   4.109   1.784 -0.0288 -0.5099 -1.1464
  131MOL    H3647096   0.444   4.036   1.739 -1.6676  2.8550  1.5251
  131MOL    H3747097   0.584   3.933   1.787 -0.2380 -0.1370  1.8562
  131MOL    C3847098   0.671   3.807   2.510 -0.2965 -0.4369 -0.6415
  131MOL    C3947099   0.590   3.730   2.621  0.0065  0.0442  0.1973
  131MOL    C4047100   0.506   3.612   2.574 -0.0927 -0.7822 -0.3481
  131MOL    O4147101   0.382   3.605   2.587  0.4532 -0.7131 -0.1459
  131MOL    O4247102   0.576   3.518   2.505  0.1717  0.0660  0.1844
  131MOL    C4347103   0.514   3.398   2.466 -0.6882  0.2685 -0.3358
  131MOL    C4447104   0.600   3.315   2.370 -0.3093  0.2011 -0.0238
  131MOL    C4547105   0.551   3.170   2.365 -0.6414 -0.0918 -0.2601
  131MOL    H4647106   0.706   3.897   2.561  2.9388 -1.4850 -0.9107
  131MOL    H4747107   0.749   3.741   2.473 -0.1805 -1.1548  0.8291
  131MOL    H4847108   0.512   3.796   2.659 -0.1076  0.7983 -1.2843
  131MOL    H4947109   0.505   3.339   2.557  0.6201 -1.4195 -1.2587
  131MOL    H5047110   0.412   3.405   2.429 -0.5905  0.3163 -0.6014
  131MOL    H5147111   0.585   3.353   2.269  0.4105  1.1567  0.2242
  131MOL    H5247112   0.704   3.314   2.403  0.1013  1.3466 -1.2348
  131MOL    H5347113   0.599   3.114   2.284 -1.2076  0.4405 -0.9799
  131MOL    H5447114   0.442   3.168   2.368 -0.6514 -1.1723 -0.7698
  131MOL    H5547115   0.578   3.122   2.459 -1.7378 -0.1842  0.0146
  131MOL    C5647116   0.683   3.682   2.736 -0.1136  0.5330  0.1820
  131MOL    C5747117   0.726   3.802   2.834 -0.2693  0.0613  0.3057
  131MOL    C5847118   0.621   3.814   2.940  0.2398 -0.2760 -0.1639
  131MOL    O5947119   0.559   3.917   2.962 -0.2988 -0.3247 -0.9145
  131MOL    O6047120   0.607   3.700   3.013 -0.4691 -0.6129 -0.3644
  131MOL    C6147121   0.527   3.698   3.131  1.0552  0.1195 -0.2363
  131MOL    C6247122   0.493   3.557   3.174  0.5344 -0.5775 -0.2542
  131MOL    C6347123   0.411   3.470   3.074 -0.1439 -0.1408 -0.0394
  131MOL    H6447124   0.772   3.632   2.698 -1.3889 -3.6725  2.5435
  131MOL    H6547125   0.629   3.603   2.788 -0.5594 -2.0306 -3.9617
  131MOL    H6647126   0.731   3.891   2.771  3.5727 -0.9237 -0.9101
  131MOL    H6747127   0.585   3.741   3.212 -0.7664  0.0606  1.1455
  131MOL    H6847128   0.443   3.762   3.106 -1.5556 -2.7166  0.9230
  131MOL    H6947129   0.587   3.504   3.190  0.0720 -1.2194  0.4156
  131MOL    H7047130   0.448   3.563   3.274  2.3968 -1.7559  0.6791
  131MOL    H7147131   0.400   3.372   3.119 -1.3730  0.0631  0.1108
  131MOL    H7247132   0.465   3.471   2.979 -0.1902  0.1360 -0.0622
  131MOL    H7347133   0.312   3.513   3.059 -0.0434  0.5500  1.2300
  131MOL    C7447134   0.873   3.777   2.881 -0.3436 -0.1344  0.6244
  131MOL    C7547135   0.933   3.890   2.976  0.1956 -0.2239 -0.5605
  131MOL    C7647136   1.003   3.841   3.101 -0.0077  0.7478  0.5513
  131MOL    O7747137   1.120   3.868   3.129 -0.0219 -0.2027  0.8744
  131MOL    O7847138   0.921   3.762   3.180 -0.7227 -0.3465  1.0709
  131MOL    C7947139   0.966   3.702   3.304 -0.0299  0.8812 -0.3806
  131MOL    C8047140   0.896   3.567   3.329  0.0673 -0.0557  0.5000
  131MOL    C8147141   0.945   3.460   3.226 -0.0399 -0.2508 -0.1543
  131MOL    H8247142   0.951   3.767   2.806 -0.4267  0.9966  0.3796
  131MOL    H8347143   0.870   3.680   2.932 -0.6857 -0.8236 -0.6919
  131MOL    H8447144   0.843   3.942   3.007  0.7529  1.5798 -1.8622
  131MOL    H8547145   1.075   3.707   3.308  0.1656 -1.7988 -1.3338
  131MOL    H8647146   0.923   3.764   3.382  3.8047  3.1053  0.0812
  131MOL    H8747147   0.901   3.537   3.433 -0.0430  1.4051  0.9399
  131MOL    H8847148   0.787   3.577   3.324  0.2127  1.0520 -0.6455
  131MOL    H8947149   1.052   3.438   3.231 -0.1257 -0.8843 -0.9844
  131MOL    H9047150   0.937   3.486   3.121  0.3681  0.3541 -0.0376
  131MOL    H9147151   0.884   3.370   3.236  1.1982 -1.0443  0.5085
  131MOL    C9247152   1.019   3.985   2.899  0.0260 -0.4825  0.2173
  131MOL    C9347153   0.964   4.073   2.781 -0.3181 -0.1145 -0.6658
  131MOL    C9447154   0.843   4.159   2.820 -0.1770 -0.7582  0.3095
  131MOL    O9547155   0.808   4.181   2.932 -0.7355 -0.4107  0.0448
  131MOL    O9647156   0.768   4.192   2.703  0.4461 -0.6786  0.1676
  131MOL    C9747157   0.640   4.247   2.715 -0.1818 -0.5308 -0.0607
  131MOL    C9847158   0.633   4.393   2.671  0.3238  0.5888 -0.1596
  131MOL    C9947159   0.489   4.429   2.621 -0.7923  0.0897 -0.5014
  131MOL   H10047160   1.114   3.940   2.869  0.9604  1.8111 -0.3670
  131MOL   H10147161   1.046   4.057   2.976 -1.6344  0.4203 -0.0317
  131MOL   H10247162   0.931   3.993   2.714 -0.6734 -0.0807 -0.5325
  131MOL   H10347163   0.565   4.185   2.665  0.1508 -1.5854  0.7431
  131MOL   H10447164   0.593   4.249   2.814 -0.2563  1.5582 -0.1060
  131MOL   H10547165   0.664   4.470   2.742 -0.5696  0.9473 -0.1555
  131MOL   H10647166   0.704   4.399   2.589  0.5896  1.3205  0.1213
  131MOL   H10747167   0.468   4.395   2.520  1.2319  0.9175 -1.2223
  131MOL   H10847168   0.476   4.537   2.629 -2.0519 -0.2018  1.6491
  131MOL   H10947169   0.409   4.396   2.687  0.2675 -0.2642  0.6250
  131MOL   C11047170   1.057   4.166   2.701 -0.1351 -0.2375 -0.1442
  131MOL   C11147171   1.178   4.097   2.637 -1.1536  0.3656 -0.6103
  131MOL   C11247172   1.136   4.032   2.504  1.0698 -0.2234 -0.5918
  131MOL   O11347173   1.018   4.025   2.459 -0.4720  0.5057  0.1620
  131MOL   O11447174   1.248   3.987   2.444  0.0849  0.0882 -0.7015
  131MOL   C11547175   1.237   3.914   2.321 -0.5376  0.2234 -0.3156
  131MOL   C11647176   1.283   3.976   2.190  0.9169  0.1262 -0.2236
  131MOL   C11747177   1.189   4.077   2.130 -0.0901  0.3591 -0.4037
  131MOL   H11847178   1.097   4.232   2.779 -1.1322  0.2835 -0.0625
  131MOL   H11947179   1.003   4.232   2.634 -1.4621  0.2616  1.3809
  131MOL   H12047180   1.205   4.007   2.692 -1.3454 -0.2883 -1.5737
  131MOL   H12147181   1.302   3.827   2.330  0.3254  0.8185 -0.7485
  131MOL   H12247182   1.138   3.873   2.303 -2.0537  3.1444  1.0566
  131MOL   H12347183   1.373   4.033   2.213  1.4829 -0.1362 -1.7423
  131MOL   H12447184   1.299   3.900   2.114 -0.9703  0.7760 -1.3033
  131MOL   H12547185   1.108   4.025   2.079  1.1075 -0.7049 -1.2739
  131MOL   H12647186   1.239   4.132   2.051  0.5883  0.1030 -0.1572
  131MOL   H12747187   1.152   4.145   2.207  1.2998  0.3450  0.2993
  131MOL   C12847188   1.302   4.194   2.633  0.2373 -0.3468  1.1329
  131MOL   C12947189   1.358   4.264   2.765  0.7421 -0.2648  0.1723
  131MOL   C13047190   1.358   4.169   2.880 -0.0029  0.5300  0.0472
  131MOL   O13147191   1.299   4.188   2.986  0.6479  0.3969 -0.1040
  131MOL   O13247192   1.435   4.061   2.852 -0.3791  0.3703  0.3740
  131MOL   C13347193   1.426   3.942   2.936  0.8451 -0.0302  0.0888
  131MOL   C13447194   1.535   3.847   2.878 -0.0273  0.5510  0.4448
  131MOL   C13547195   1.492   3.775   2.754  0.3222  0.5535  0.4983
  131MOL   H13647196   1.279   4.273   2.561  1.2539  0.4889  1.7111
  131MOL   H13747197   1.383   4.135   2.591  0.4013  0.0765  0.8617
  131MOL   H13847198   1.296   4.351   2.789  0.2122 -0.3200 -0.9501
  131MOL   H13947199   1.437   3.979   3.038  1.3871  1.6337 -0.5439
  131MOL   H14047200   1.330   3.892   2.922  0.8076 -0.1268  0.6795
  131MOL   H14147201   1.617   3.913   2.851 -0.3273 -0.1854 -2.5143
  131MOL   H14247202   1.559   3.772   2.953 -1.8691  0.1957  0.7151
  131MOL   H14347203   1.462   3.851   2.682  0.6766  1.1498  0.9693
  131MOL   H14447204   1.406   3.712   2.777 -0.7941  0.8535 -2.6141
  131MOL   H14547205   1.570   3.707   2.719  0.6954  0.9983  0.4543
  131MOL   C14647206   1.504   4.316   2.729 -0.2835  0.9520  0.5913
  131MOL   C14747207   1.563   4.414   2.830  0.0788 -0.3603  0.5945
  131MOL   C14847208   1.695   4.461   2.772 -0.5121 -0.1036  0.1387
  131MOL   O14947209   1.700   4.474   2.650 -0.3279 -0.0214  0.0913
  131MOL   O15047210   1.788   4.499   2.859 -0.4579 -0.3883  0.3012
  131MOL   C15147211   1.914   4.539   2.802  0.9064  0.1896 -0.6353
  131MOL   C15247212   2.009   4.581   2.911  0.0067 -0.3017  0.0643
  131MOL   C15347213   1.956   4.713   2.971 -0.4636 -0.2931 -0.3666
  131MOL   H15447214   1.495   4.360   2.630  0.5931  0.5818  0.3389
  131MOL   H15547215   1.568   4.229   2.714 -0.0808  1.0285  1.0069
  131MOL   H15647216   1.580   4.362   2.924  0.1082 -5.1902 -1.9561
  131MOL   H15747217   1.957   4.444   2.769 -1.2801 -1.1163  0.1982
  131MOL   H15847218   1.907   4.608   2.718 -1.2413  0.8442  0.0487
  131MOL   H15947219   1.998   4.504   2.988  1.8761 -0.2951  0.3549
  131MOL   H16047220   2.112   4.579   2.876 -0.1554 -2.2423 -0.3736
  131MOL   H16147221   2.014   4.761   3.049 -1.0521  1.7424 -1.1515
  131MOL   H16247222   1.853   4.710   3.007 -0.4770 -1.0785 -0.4546
  131MOL   H16347223   1.946   4.798   2.902  0.9825  0.6695  0.5854
  131MOL   C16447224   1.477   4.541   2.849  0.0111 -0.0978  0.0723
  131MOL   C16547225   1.418   4.551   2.994  0.2781  0.1197 -0.7041
  131MOL   C16647226   1.520   4.557   3.115 -0.5033 -0.0137 -0.4270
  131MOL   O16747227   1.634   4.598   3.108  0.2968 -0.0558 -0.6815
  131MOL   O16847228   1.456   4.528   3.232 -0.2962 -0.2699  0.2528
  131MOL   C16947229   1.509   4.524   3.362 -0.3814  0.8742 -1.3788
  131MOL   C17047230   1.484   4.382   3.411  0.2031 -0.1738 -0.9104
  131MOL   C17147231   1.558   4.270   3.331  0.7190  0.2847 -0.8601
  131MOL   H17247232   1.407   4.543   2.766 -0.4628 -1.3679  0.4288
  131MOL   H17347233   1.535   4.632   2.830  0.4756 -0.8636 -2.4677
  131MOL   H17447234   1.362   4.458   3.004  1.1483 -0.1089  2.3773
  131MOL   H17547235   1.616   4.540   3.352 -0.0200 -0.1226  0.5938
  131MOL   H17647236   1.466   4.608   3.418  0.7426  1.0182 -0.7161
  131MOL   H17747237   1.519   4.363   3.513  0.0797  1.0628 -0.6329
  131MOL   H17847238   1.379   4.355   3.425  0.7928 -1.2229  1.8855
  131MOL   H17947239   1.662   4.296   3.315  0.5676  1.6072  0.1844
  131MOL   H18047240   1.514   4.237   3.237  0.7902  1.8832 -1.4760
  131MOL   H18147241   1.555   4.174   3.383  0.7189 -0.1935 -1.7416
  131MOL   C18247242   1.324   4.674   3.001 -0.0704 -0.3893 -1.0709
  131MOL   C18347243   1.202   4.686   2.901  0.2981  0.1726 -0.7318
  131MOL   C18447244   1.102   4.559   2.909  0.4568 -0.4077 -0.3746
  131MOL   O18547245   1.024   4.535   2.816 -0.1605 -0.1045  0.7344
  131MOL   O18647246   1.099   4.503   3.034 -0.2928  0.4760  0.2699
  131MOL   C18747247   1.023   4.390   3.067  0.4729 -0.6402 -0.0328
  131MOL   C18847248   1.019   4.370   3.221  0.3443 -0.6025  0.1225
  131MOL   C18947249   1.145   4.316   3.297  0.0103 -0.4723 -0.8505
  131MOL   H19047250   1.376   4.769   2.989 -0.9589  0.1503 -0.7268
  131MOL   H19147251   1.271   4.675   3.096  2.0311 -0.9143  0.1096
  131MOL   H19247252   1.241   4.690   2.799 -1.8483  0.6264 -1.5591
  131MOL   H19347253   0.920   4.393   3.030  0.4498  0.3355  0.1047
  131MOL   H19447254   1.055   4.302   3.011  1.1778  0.5314 -1.4974
  131MOL   H19547255   0.976   4.467   3.246  0.5515  0.0413 -1.9263
  131MOL   H19647256   0.933   4.303   3.228 -1.2145  1.3278 -0.0688
  131MOL   H19747257   1.170   4.213   3.273 -0.8711 -0.3772 -2.2207
  131MOL   H19847258   1.143   4.324   3.405  0.1131  1.9710 -0.9936
  131MOL   H19947259   1.228   4.376   3.260 -1.5330  2.0571 -0.3225
  131MOL   C20047260   1.126   4.824   2.913 -0.0532  0.2742 -0.5080
  131MOL   C20147261   1.036   4.862   2.796 -0.3125 -0.1525  0.0299
  131MOL   C20247262   0.964   4.991   2.823 -0.1310 -0.0432 -0.0566
  131MOL   O20347263   1.002   5.102   2.775  0.2475 -0.8749  0.1003
  131MOL   O20447264   0.863   4.975   2.911 -0.3896 -0.2289 -0.0953
  131MOL   C20547265   0.799   5.087   2.976  0.1777 -0.0936 -0.3549
  131MOL   C20647266   0.650   5.097   2.927  0.2115  0.3262 -0.0852
  131MOL   C20747267   0.584   4.960   2.923 -0.1120  0.3542 -0.1695
  131MOL   H20847268   1.202   4.901   2.920 -2.4042  2.4282  3.2311
  131MOL   H20947269   1.075   4.823   3.009  0.4297 -1.8868 -0.2517
  131MOL   H21047270   0.962   4.781   2.797 -1.0489  0.5160  1.1585
  131MOL   H21147271   0.804   5.074   3.084  0.1352 -2.3174 -0.6009
  131MOL   H21247272   0.851   5.181   2.961  3.7974 -1.9340  0.2014
  131MOL   H21347273   0.612   5.168   3.000 -0.5188  0.9280 -1.0500
  131MOL   H21447274   0.639   5.142   2.829  1.0501  0.3623 -0.1670
  131MOL   H21547275   0.477   4.978   2.933 -0.3352 -1.7468  1.4452
  131MOL   H21647276   0.605   4.897   3.009 -0.8617 -0.1325 -0.3370
  131MOL   H21747277   0.609   4.896   2.839 -1.4871 -1.4358  0.7407
  131MOL   C21847278   1.097   4.868   2.661 -0.3722  0.0207  1.0230
  131MOL   C21947279   1.004   4.874   2.533  0.1229  0.7310 -1.2021
  131MOL   C22047280   1.086   4.872   2.411  0.2262  0.1929  0.4325
  131MOL   O22147281   1.086   4.960   2.327  0.5500 -0.5395 -0.2583
  131MOL   O22247282   1.154   4.749   2.397 -0.0700 -1.2194  0.1455
  131MOL   C22347283   1.233   4.724   2.292  1.0414  0.2631  0.2797
  131MOL   C22447284   1.275   4.579   2.302 -0.3079 -0.5288  0.4470
  131MOL   C22547285   1.361   4.551   2.425 -0.2206  0.1097 -0.0188
  131MOL   H22647286   1.153   4.775   2.649  0.9848  0.7072  1.8242
  131MOL   H22747287   1.177   4.942   2.668  0.8440 -0.9198 -1.9666
  131MOL   H22847288   0.944   4.964   2.528 -1.1350 -0.0583 -0.6330
  131MOL   H22947289   1.193   4.741   2.191  2.4800  0.3142 -0.2875
  131MOL   H23047290   1.319   4.790   2.303  1.9768 -1.2423  2.1748
  131MOL   H23147291   1.187   4.516   2.285  0.3694 -0.8921 -1.7619
  131MOL   H23247292   1.324   4.551   2.209 -0.4101  0.6205  0.0335
  131MOL   H23347293   1.415   4.457   2.412 -1.5443 -1.0603  2.7105
  131MOL   H23447294   1.300   4.544   2.515 -0.4494 -2.4494 -0.3360
  131MOL   H23547295   1.427   4.634   2.450 -0.8079  0.4813  0.3353
  131MOL   C23647296   0.913   4.745   2.542 -0.4257 -0.1049 -0.1880
  131MOL   C23747297   0.777   4.753   2.458 -0.3182  0.4387 -0.4714
  131MOL   C23847298   0.678   4.854   2.504  0.0702 -0.3488 -0.5431
  131MOL   O23947299   0.590   4.825   2.586 -0.2225  0.1607  0.3149
  131MOL   O24047300   0.712   4.976   2.466 -0.3763 -0.4184 -0.4597
  131MOL   C24147301   0.660   5.094   2.532 -0.9231  0.4026  0.3911
  131MOL   C24247302   0.594   5.180   2.416 -1.0161 -0.4910 -0.6054
  131MOL   C24347303   0.537   5.310   2.462  0.5695 -0.3383 -0.8059
  131MOL   H24447304   0.873   4.722   2.641  1.7607 -2.0715  0.2809
  131MOL   H24547305   0.962   4.650   2.523 -0.5180 -0.0701 -0.6040
  131MOL   H24647306   0.733   4.654   2.471  1.8736 -0.2592  1.9940
  131MOL   H24747307   0.582   5.072   2.605 -1.8163  2.3007  0.0404
  131MOL   H24847308   0.738   5.142   2.591 -0.2385 -0.8923  0.5665
  131MOL   H24947309   0.668   5.191   2.337 -1.3624 -1.8136 -1.1340
  131MOL   H25047310   0.511   5.121   2.377 -0.1853 -3.1605  1.5160
  131MOL   H25147311   0.622   5.377   2.476 -0.2543  0.3026  1.4327
  131MOL   H25247312   0.480   5.297   2.555  1.0416 -0.3238 -0.5150
  131MOL   H25347313   0.462   5.350   2.394  0.1114  0.8167  0.3430
  131MOL   C25447314   0.792   4.773   2.298 -0.6042 -0.4181 -0.1890
  131MOL   C25547315   0.680   4.732   2.202  0.0803  0.1437 -0.3373
  131MOL   C25647316   0.637   4.583   2.213 -0.4071  0.3621 -0.1608
  131MOL   O25747317   0.535   4.548   2.276  0.2286  0.4007 -0.3784
  131MOL   O25847318   0.721   4.496   2.158  0.4205 -0.7318 -0.0213
  131MOL   C25947319   0.717   4.360   2.172 -0.3650  0.6695  0.0694
  131MOL   C26047320   0.768   4.322   2.305  0.3546  0.1771 -0.3779
  131MOL   C26147321   0.917   4.353   2.329 -0.0649 -0.3747  0.3124
  131MOL   H26247322   0.882   4.714   2.278  1.5352  2.2303  1.2355
  131MOL   H26347323   0.823   4.876   2.279 -0.0282 -0.9551 -2.2598
  131MOL   H26447324   0.733   4.730   2.107  0.9064 -0.4118  0.1288
  131MOL   H26547325   0.616   4.319   2.160  0.5143 -1.1033 -1.6217
  131MOL   H26647326   0.785   4.310   2.102 -1.5414  0.4114 -0.9083
  131MOL   H26747327   0.708   4.380   2.375 -2.6747  0.0204 -2.7866
  131MOL   H26847328   0.749   4.218   2.332 -0.8990  0.3565 -0.5370
  131MOL   H26947329   0.974   4.304   2.250 -0.5705 -0.4633 -0.0055
  131MOL   H27047330   0.951   4.310   2.423 -1.3109 -1.4697  0.2827
  131MOL   H27147331   0.937   4.459   2.319 -1.4213 -0.3354 -2.3854
  131MOL   C27247332   0.566   4.840   2.195  1.2582  0.6502  0.1293
  131MOL   C27347333   0.520   4.836   2.046 -0.4004 -0.1602  0.1282
  131MOL   C27447334   0.368   4.866   2.037 -0.4338 -0.0503 -0.4607
  131MOL   O27547335   0.282   4.789   1.979 -0.2264  0.1185 -0.5500
  131MOL   O27647336   0.328   4.979   2.082  0.5915  0.4481  0.3167
  131MOL   C27747337   0.195   5.004   2.118 -0.2325  0.0282 -0.2765
  131MOL   C27847338   0.194   5.132   2.193 -0.1589 -0.1266  0.3632
  131MOL   C27947339   0.220   5.251   2.092  0.6176  0.6565 -0.1252
  131MOL   H28047340   0.608   4.938   2.218  3.8603  0.3497 -2.9884
  131MOL   H28147341   0.482   4.806   2.256  0.2689 -1.3094 -2.2519
  131MOL   H28247342   0.521   4.730   2.018  1.3533 -0.3338  0.7472
  131MOL   H28347343   0.121   5.013   2.039 -0.0833 -0.2799 -0.4531
  131MOL   H28447344   0.157   4.926   2.185  0.8974 -0.0944  0.2345
  131MOL   H28547345   0.096   5.145   2.239 -0.8221  1.9765 -1.5608
  131MOL   H28647346   0.275   5.129   2.266  0.1829  0.0241 -0.0068
  131MOL   H28747347   0.200   5.351   2.129  0.6365  0.0457  1.6234
  131MOL   H28847348   0.167   5.233   1.998  2.2491 -2.1257 -0.5828
  131MOL   H28947349   0.326   5.250   2.066  0.3767  3.7703 -1.3911
  131MOL   C29047350   0.608   4.935   1.969 -0.4464  0.1516 -0.4359
  131MOL   C29147351   0.598   4.922   1.815  0.2226 -0.5238 -0.8039
  131MOL   C29247352   0.469   4.971   1.764  0.2017 -0.1120  1.0962
  131MOL   O29347353   0.394   4.897   1.703 -0.5386  0.5945  0.2473
  131MOL   O29447354   0.444   5.101   1.791  0.6181  0.1947  0.5319
  131MOL   C29547355   0.317   5.160   1.763 -0.5070  0.2345 -0.6505
  131MOL   C29647356   0.309   5.187   1.615  0.4272  0.9163  0.0824
  131MOL   C29747357   0.182   5.270   1.586 -0.2210 -0.5421  0.1327
  131MOL   H29847358   0.712   4.907   1.987 -0.5690 -1.4412 -2.0690
  131MOL   H29947359   0.586   5.037   2.001  0.2627  0.4234 -0.7987
  131MOL   H30047360   0.595   4.814   1.796 -1.9418 -0.5723 -0.3848
  131MOL   H30147361   0.239   5.100   1.809 -1.9391  1.9642 -0.7632
  131MOL   H30247362   0.313   5.257   1.812 -0.8143  0.7151 -1.6262
  131MOL   H30347363   0.400   5.234   1.578  1.5884 -0.5659  0.9502
  131MOL   H30447364   0.308   5.095   1.557  4.6323  0.2520  0.9129
  131MOL   H30547365   0.157   5.250   1.482  1.3565 -3.1145  0.2041
  131MOL   H30647366   0.193   5.376   1.609 -0.3375 -0.4956 -0.0278
  131MOL   H30747367   0.092   5.241   1.640 -0.6634  0.6257  0.0542
  131MOL   C30847368   0.724   4.977   1.743  0.1257  0.1674 -0.7605
  131MOL   C30947369   0.737   4.910   1.601 -0.0986  0.2589 -0.0518
  131MOL   C31047370   0.706   5.007   1.485 -0.1875 -0.0864 -0.3960
  131MOL   O31147371   0.719   5.130   1.494  0.4275  0.9245 -0.3911
  131MOL   O31247372   0.669   4.939   1.370  0.0425 -0.0933  0.2963
  131MOL   C31347373   0.652   5.015   1.249 -0.2268 -0.4586 -0.3653
  131MOL   C31447374   0.729   4.942   1.143  0.4667 -0.2100  0.1653
  131MOL   C31547375   0.876   4.950   1.180  0.0993  0.1647  0.3939
  131MOL   H31647376   0.809   4.955   1.808  0.3327  2.3656 -0.2372
  131MOL   H31747377   0.701   5.083   1.734  1.9774  0.7728  1.2418
  131MOL   H31847378   0.645   4.852   1.598 -1.0170  1.2839  4.6501
  131MOL   H31947379   0.545   5.022   1.233 -0.6739  0.3352  2.7897
  131MOL   H32047380   0.682   5.119   1.254 -0.6063 -0.2612 -1.7719
  131MOL   H32147381   0.709   4.836   1.135  3.3128 -0.6641 -1.6210
  131MOL   H32247382   0.708   4.993   1.049  2.0370  2.4286  1.1887
  131MOL   H32347383   0.928   4.894   1.102 -2.9799 -1.5640 -0.4894
  131MOL   H32447384   0.910   5.053   1.184 -0.6648  0.5463 -2.0123
  131MOL   H32547385   0.907   4.905   1.274 -0.0172  0.3509  0.5228
  131MOL   C32647386   0.860   4.819   1.575  0.7793 -0.1680 -0.5520
  131MOL   C32747387   0.857   4.672   1.625 -0.1991  0.1402  0.5255
  131MOL   C32847388   0.861   4.662   1.777  0.3198 -0.3682  0.0550
  131MOL   O32947389   0.765   4.618   1.843 -0.4709 -0.4180 -0.1195
  131MOL   O33047390   0.984   4.702   1.819  0.2711  0.2056 -0.4421
  131MOL   C33147391   1.018   4.695   1.949  0.4448  0.0038 -0.8443
  131MOL   C33247392   1.037   4.549   2.003  0.4702 -0.5388 -0.4490
  131MOL   C33347393   1.163   4.482   1.953 -0.4555 -0.3043  0.7529
  131MOL   H33447394   0.953   4.866   1.607  0.5918 -0.0692 -0.1591
  131MOL   H33547395   0.885   4.799   1.470 -1.9312  0.7178 -1.4082
  131MOL   H33647396   0.946   4.619   1.593  0.1837  0.5693  0.8776
  131MOL   H33747397   1.103   4.756   1.980  1.2912 -2.1136  1.1708
  131MOL   H33847398   0.927   4.741   1.987  2.0771  2.5486  0.1302
  131MOL   H33947399   1.024   4.565   2.110  0.6811  0.0296 -0.5109
  131MOL   H34047400   0.951   4.490   1.972  0.1946  0.2211 -1.1224
  131MOL   H34147401   1.186   4.387   2.001  1.7502  0.4546  1.2697
  131MOL   H34247402   1.148   4.479   1.845 -2.5857 -0.8549  1.0564
  131MOL   H34347403   1.240   4.553   1.985 -0.3401 -0.8215  1.6377
  131MOL   C34447404   0.741   4.586   1.562  0.3839 -0.3778 -0.2668
  131MOL   C34547405   0.709   4.441   1.598  0.0616 -0.3507  0.2207
  131MOL   C34647406   0.822   4.343   1.585  0.3088 -0.5850 -0.6491
  131MOL   O34747407   0.923   4.369   1.520 -0.0594 -0.6185  0.4823
  131MOL   O34847408   0.810   4.234   1.661 -0.1227 -0.9600 -0.1368
  131MOL   C34947409   0.922   4.144   1.669 -0.2785 -0.6177 -0.6054
  131MOL   C35047410   0.913   4.030   1.566 -0.0127 -0.4341  0.0965
  131MOL   C35147411   0.957   4.062   1.423  0.1264 -0.6115  0.1801
  131MOL   H35247412   0.760   4.593   1.455  1.6149 -0.6882 -0.0832
  131MOL   H35347413   0.653   4.642   1.591 -1.9803 -3.8695 -0.4101
  131MOL   H35447414   0.637   4.397   1.531  1.5752 -1.0899 -0.9492
  131MOL   H35547415   1.019   4.192   1.657 -1.0148  1.0016 -0.3336
  131MOL   H35647416   0.916   4.110   1.772  0.2944  1.1555  0.0388
  131MOL   H35747417   0.977   3.947   1.592  1.6799 -0.0208 -2.5340
  131MOL   H35847418   0.810   3.994   1.568 -0.0360 -0.3195  0.9964
  131MOL   H35947419   0.998   3.972   1.379 -1.1179 -1.4164  0.6525
  131MOL   H36047420   0.880   4.113   1.365  1.3054  1.3452  0.2758
  131MOL   H36147421   1.042   4.131   1.432 -1.2281  0.9446  1.5599
  131MOL   H36247422   0.665   4.435   1.698 -0.4172  0.5917  0.0761
  132MOL     C147423   2.078   6.084   3.746 -1.0132 -0.0218 -0.6786
  132MOL     C247424   2.222   6.112   3.792 -0.6989  0.4030 -0.2482
  132MOL     C347425   2.244   6.101   3.943  0.0610 -0.0397 -0.2817
  132MOL     O447426   2.268   6.198   4.011 -0.5432  0.2132  0.5057
  132MOL     O547427   2.248   5.973   3.983  0.3279  0.2452 -0.6426
  132MOL     C647428   2.297   5.957   4.116  0.1128 -0.4191  0.5730
  132MOL     C747429   2.449   5.937   4.107 -0.1678  0.2648 -0.2912
  132MOL     C847430   2.480   5.784   4.088  0.1497 -0.0596 -0.6387
  132MOL     H947431   2.050   6.106   3.643 -1.3837  0.7870 -0.4141
  132MOL    H1047432   2.066   5.977   3.765  1.1141 -0.1395  0.1296
  132MOL    H1147433   2.241   6.217   3.768 -1.2373  0.7265  0.6888
  132MOL    H1247434   2.268   6.032   4.190  0.8060  1.6923 -1.2437
  132MOL    H1347435   2.262   5.861   4.155 -0.6821 -0.8694 -1.2275
  132MOL    H1447436   2.485   6.002   4.028 -2.9334  2.7815  0.4147
  132MOL    H1547437   2.486   5.967   4.205 -1.9609 -1.0439  0.8338
  132MOL    H1647438   2.436   5.721   4.166 -3.4839  0.5649 -2.1219
  132MOL    H1747439   2.423   5.772   3.996 -0.0183 -0.4530 -0.4852
  132MOL    H1847440   2.588   5.769   4.079  0.1764 -0.1584 -0.1898
  132MOL    H1947441   2.003   6.146   3.796 -2.7528 -0.7624 -2.2779
  132MOL    C2047442   2.317   6.022   3.706 -0.4707 -0.0952  0.0919
  132MOL    C2147443   2.472   6.065   3.723 -0.7100 -0.0572  0.6429
  132MOL    C2247444   2.576   5.952   3.714  1.5188  0.7668 -0.3386
  132MOL    O2347445   2.549   5.839   3.686  0.0402  0.7529 -0.8375
  132MOL    O2447446   2.695   5.987   3.765  0.3142  0.7978  0.2587
  132MOL    C2547447   2.806   5.902   3.769 -0.3742 -0.4097 -0.6370
  132MOL    C2647448   2.917   5.962   3.678 -0.1131 -1.0973 -1.0409
  132MOL    C2747449   2.986   6.082   3.741  0.0334  0.1656 -0.2710
  132MOL    H2847450   2.281   6.025   3.603  1.0619 -0.6690 -0.4679
  132MOL    H2947451   2.300   5.919   3.737 -0.0912 -0.1902 -0.0154
  132MOL    H3047452   2.493   6.088   3.828  0.7121 -0.8104  0.5455
  132MOL    H3147453   2.830   5.886   3.874 -0.5185 -1.6192 -0.7788
  132MOL    H3247454   2.782   5.805   3.725  1.6403 -2.0672  1.8289
  132MOL    H3347455   2.989   5.888   3.644 -0.2260 -0.1005 -3.5991
  132MOL    H3447456   2.862   6.001   3.592  2.2143  0.9560 -1.6616
  132MOL    H3547457   2.914   6.150   3.788  0.4552  1.2409 -1.1754
  132MOL    H3647458   3.039   6.139   3.665 -0.4205  0.7218 -0.1819
  132MOL    H3747459   3.058   6.049   3.816  2.3989  0.3154 -2.4326
  132MOL    C3847460   2.502   6.187   3.627  0.0854  0.3761 -0.3068
  132MOL    C3947461   2.616   6.280   3.676  0.1130 -0.5612 -0.3346
  132MOL    C4047462   2.688   6.335   3.555 -0.1693 -0.4653  0.4841
  132MOL    O4147463   2.804   6.301   3.516 -0.3356  0.0829  0.0428
  132MOL    O4247464   2.612   6.432   3.499  0.3809 -0.0890 -0.3169
  132MOL    C4347465   2.613   6.466   3.360  0.1705  0.5728 -0.5198
  132MOL    C4447466   2.716   6.579   3.337  1.0079  0.3973 -0.4290
  132MOL    C4547467   2.733   6.628   3.192  1.0316  0.5890  0.3726
  132MOL    H4647468   2.415   6.252   3.618  0.1117  0.2068 -1.9512
  132MOL    H4747469   2.527   6.150   3.527  1.4775  1.0148 -0.1907
  132MOL    H4847470   2.688   6.220   3.732 -0.5839  1.6174  3.0822
  132MOL    H4947471   2.629   6.383   3.292 -1.3487 -0.2088  0.0535
  132MOL    H5047472   2.515   6.501   3.329  0.0551  1.5120  0.8109
  132MOL    H5147473   2.681   6.663   3.396  3.1176 -0.6817  2.4805
  132MOL    H5247474   2.817   6.560   3.375  0.9169 -0.2983 -0.5324
  132MOL    H5347475   2.824   6.687   3.189  0.7586  0.9983  0.1946
  132MOL    H5447476   2.647   6.689   3.165 -0.2830 -1.8650 -1.2657
  132MOL    H5547477   2.759   6.546   3.125  1.1708  1.2333 -0.3655
  132MOL    C5647478   2.571   6.390   3.779 -0.2238 -0.9515  0.1353
  132MOL    C5747479   2.670   6.427   3.896  0.9330 -0.2162 -0.1700
  132MOL    C5847480   2.802   6.479   3.847  0.4080 -0.8337 -0.7199
  132MOL    O5947481   2.904   6.436   3.897  0.0359  0.1421 -0.2461
  132MOL    O6047482   2.799   6.581   3.763 -0.3091  0.3271  0.6793
  132MOL    C6147483   2.918   6.650   3.727 -0.5245  0.6861 -0.0623
  132MOL    C6247484   2.885   6.779   3.654  0.3465 -0.5876 -0.9911
  132MOL    C6347485   2.800   6.859   3.750 -0.7448  0.1217 -0.0954
  132MOL    H6447486   2.473   6.361   3.817  0.6085  0.2613  3.4545
  132MOL    H6547487   2.566   6.487   3.731  1.7363 -0.6211  0.5711
  132MOL    H6647488   2.685   6.329   3.942  1.0572 -1.1472 -2.1559
  132MOL    H6747489   2.973   6.669   3.818  0.7654  0.6134 -0.8145
  132MOL    H6847490   2.995   6.597   3.671 -0.9500  0.0500 -0.0502
  132MOL    H6947491   2.973   6.840   3.631 -0.5619  1.3110  0.4410
  132MOL    H7047492   2.837   6.749   3.561  0.3421 -1.3038 -0.7589
  132MOL    H7147493   2.856   6.885   3.840 -0.1341 -2.7215  0.3789
  132MOL    H7247494   2.714   6.808   3.795 -0.9158  0.2173 -0.3098
  132MOL    H7347495   2.776   6.953   3.700  0.6923 -0.1732 -1.3817
  132MOL    C7447496   2.606   6.535   4.000 -0.1955  0.3155 -0.7116
  132MOL    C7547497   2.477   6.488   4.066  0.0599 -0.0041  0.1756
  132MOL    C7647498   2.497   6.379   4.169 -0.1567 -0.0105  0.5533
  132MOL    O7747499   2.488   6.259   4.146 -0.3374 -0.8138  0.0030
  132MOL    O7847500   2.520   6.424   4.288  0.0695  0.2810  0.2369
  132MOL    C7947501   2.545   6.341   4.402 -0.1251 -0.2025  0.1944
  132MOL    C8047502   2.635   6.425   4.498 -0.1044 -0.1404 -0.4717
  132MOL    C8147503   2.571   6.560   4.552 -0.6763  0.2227  0.1895
  132MOL    H8247504   2.596   6.636   3.960 -2.3554  0.0371 -0.9035
  132MOL    H8347505   2.684   6.551   4.075  2.7898 -2.5757 -3.0537
  132MOL    H8447506   2.420   6.429   3.994  0.9348  0.5706 -1.0080
  132MOL    H8547507   2.451   6.309   4.448 -0.8288  0.8305 -0.4880
  132MOL    H8647508   2.588   6.245   4.372 -1.1628 -0.4985 -0.4114
  132MOL    H8747509   2.677   6.364   4.577 -0.5218  0.5640  0.2963
  132MOL    H8847510   2.725   6.454   4.443 -1.4074 -0.2515 -2.7114
  132MOL    H8947511   2.493   6.552   4.628 -1.3910 -0.3302 -0.5917
  132MOL    H9047512   2.518   6.614   4.474 -0.5505 -0.1655 -0.1644
  132MOL    H9147513   2.646   6.622   4.600  0.4983 -2.2820  1.7061
  132MOL    C9247514   2.395   6.609   4.111 -0.2721  1.0251 -0.1597
  132MOL    C9347515   2.318   6.677   3.994  0.7328  0.1481 -0.4925
  132MOL    C9447516   2.218   6.582   3.926  0.2211 -0.7092  0.3473
  132MOL    O9547517   2.214   6.556   3.804 -0.1650  0.3993  0.1009
  132MOL    O9647518   2.134   6.529   4.018  0.6728 -0.6965 -0.4147
  132MOL    C9747519   2.051   6.414   3.978  0.4409  0.5005  0.3892
  132MOL    C9847520   1.910   6.462   3.943 -0.2000  0.0533 -0.2167
  132MOL    C9947521   1.842   6.350   3.870  0.3356  0.1610  0.7866
  132MOL   H10047522   2.455   6.676   4.173  1.0917  0.4217 -0.8168
  132MOL   H10147523   2.310   6.581   4.174  2.0316 -0.1814  2.5479
  132MOL   H10247524   2.384   6.693   3.909  0.8533  5.1600  0.4069
  132MOL   H10347525   2.091   6.360   3.892 -1.5934 -0.7196  0.1719
  132MOL   H10447526   2.050   6.337   4.056  1.2873  2.1201  2.0336
  132MOL   H10547527   1.853   6.475   4.035 -0.3425 -1.1637 -0.1364
  132MOL   H10647528   1.915   6.549   3.877  0.3749 -1.0404 -1.6341
  132MOL   H10747529   1.858   6.253   3.917  0.9229  0.8319  1.9739
  132MOL   H10847530   1.892   6.345   3.772 -1.4256  1.4230 -0.2036
  132MOL   H10947531   1.736   6.373   3.876  0.5562  2.0712 -1.6590
  132MOL   C11047532   2.252   6.813   4.034  0.2505 -0.1658 -0.5884
  132MOL   C11147533   2.347   6.924   4.088 -1.0038  0.0485 -0.5677
  132MOL   C11247534   2.450   6.959   3.981  1.2622 -0.3227 -0.0748
  132MOL   O11347535   2.567   6.943   4.008  0.1756 -0.3141  0.2447
  132MOL   O11447536   2.407   7.012   3.866  0.2363 -0.3597 -0.4635
  132MOL   C11547537   2.487   7.018   3.751  0.2613  0.2172  0.5574
  132MOL   C11647538   2.452   6.897   3.655 -0.0008  0.8160 -0.1207
  132MOL   C11747539   2.312   6.907   3.590  0.6083  0.3797 -1.1556
  132MOL   H11847540   2.166   6.808   4.100 -1.4820 -2.0154 -2.8767
  132MOL   H11947541   2.211   6.844   3.937 -1.7329 -0.2297  0.2089
  132MOL   H12047542   2.403   6.886   4.173 -0.8478  0.7237 -0.3636
  132MOL   H12147543   2.492   7.114   3.700 -0.0526 -0.3793 -0.5928
  132MOL   H12247544   2.589   7.012   3.789  1.1976  0.3449 -1.8560
  132MOL   H12347545   2.533   6.903   3.582 -0.1505  2.0503 -0.1967
  132MOL   H12447546   2.460   6.803   3.710  1.2295  1.8851  1.5739
  132MOL   H12547547   2.297   6.823   3.523  2.7492 -1.4199  0.5350
  132MOL   H12647548   2.291   6.998   3.533  0.1183  2.1731  1.7717
  132MOL   H12747549   2.225   6.895   3.654  0.9981  1.1629 -0.4577
  132MOL   C12847550   2.271   7.058   4.133 -0.2719 -0.4362  0.3493
  132MOL   C12947551   2.364   7.167   4.196 -0.2228  0.5088 -0.1850
  132MOL   C13047552   2.283   7.298   4.196 -0.0053  0.5527  0.0961
  132MOL   O13147553   2.287   7.382   4.106  0.0697 -0.3470 -0.1079
  132MOL   O13247554   2.203   7.307   4.303  0.5131  0.4248  0.9902
  132MOL   C13347555   2.123   7.421   4.311  0.3818 -0.1886 -0.2662
  132MOL   C13447556   2.020   7.401   4.423  0.3097  0.5505 -0.3855
  132MOL   C13547557   1.947   7.264   4.420  0.2910  0.1300  0.2636
  132MOL   H13647558   2.204   7.028   4.213 -0.5465 -2.8451 -0.7377
  132MOL   H13747559   2.206   7.098   4.055 -0.5710  0.4468  1.0360
  132MOL   H13847560   2.449   7.187   4.131 -0.5211  1.1878 -0.3612
  132MOL   H13947561   2.185   7.509   4.324  0.3466  0.0457 -1.6936
  132MOL   H14047562   2.066   7.440   4.220  2.1461  1.5753 -1.0320
  132MOL   H14147563   2.074   7.408   4.518 -0.2600 -0.9920  0.0754
  132MOL   H14247564   1.956   7.489   4.419  1.7078  1.5067 -2.8803
  132MOL   H14347565   1.888   7.236   4.333 -1.1345  1.7487  0.6842
  132MOL   H14447566   1.875   7.266   4.502 -0.4747  1.7334 -0.4268
  132MOL   H14547567   2.013   7.179   4.440 -0.7390 -0.5416  0.8622
  132MOL   C14647568   2.428   7.135   4.328 -0.7289  0.4741  0.3045
  132MOL   C14747569   2.543   7.236   4.365 -0.2229  0.3934 -1.5005
  132MOL   C14847570   2.504   7.326   4.487 -0.5385  0.3011 -0.6064
  132MOL   O14947571   2.539   7.304   4.600 -0.8215  0.0060 -0.0051
  132MOL   O15047572   2.433   7.431   4.453  0.2913  0.1762 -0.2535
  132MOL   C15147573   2.448   7.548   4.528  0.7357  0.2135  0.0444
  132MOL   C15247574   2.539   7.640   4.442  0.2025 -0.2512 -0.1656
  132MOL   C15347575   2.459   7.703   4.325  0.7488  0.3982 -0.3754
  132MOL   H15447576   2.475   7.036   4.325 -0.3395  0.6253  1.4280
  132MOL   H15547577   2.351   7.126   4.403 -2.3063 -1.0521 -1.4414
  132MOL   H15647578   2.541   7.306   4.281 -1.8062  1.4658 -0.6005
  132MOL   H15747579   2.352   7.593   4.555  0.8699  0.9153 -0.6211
  132MOL   H15847580   2.493   7.535   4.627 -2.2438 -1.6975  1.2172
  132MOL   H15947581   2.569   7.719   4.510 -2.1875 -0.8008  1.5896
  132MOL   H16047582   2.636   7.602   4.408  0.4467 -0.9712  1.2832
  132MOL   H16147583   2.383   7.775   4.353  2.0480  1.4043  0.6523
  132MOL   H16247584   2.415   7.625   4.264  0.8041  0.7658 -0.8909
  132MOL   H16347585   2.522   7.766   4.262  1.3295  0.2565  0.0583
  132MOL   C16447586   2.681   7.176   4.389 -0.3308  0.4143 -0.2744
  132MOL   C16547587   2.760   7.124   4.263  0.5428 -0.1979 -1.0101
  132MOL   C16647588   2.758   7.238   4.151  0.7042  0.6035 -0.7777
  132MOL   O16747589   2.705   7.220   4.047 -0.2282 -0.0245 -0.0545
  132MOL   O16847590   2.820   7.354   4.180 -0.1961 -0.0928  0.2100
  132MOL   C16947591   2.851   7.449   4.075  0.1832 -0.7690 -0.6178
  132MOL   C17047592   2.760   7.565   4.079 -0.2175  0.6980  0.2430
  132MOL   C17147593   2.614   7.546   4.041  0.4351 -0.5437  0.0883
  132MOL   H17247594   2.680   7.095   4.463 -1.0393  1.2602  0.6654
  132MOL   H17347595   2.739   7.257   4.434  0.9743 -0.4456 -0.3883
  132MOL   H17447596   2.714   7.035   4.221  1.6926 -1.3499  0.1332
  132MOL   H17547597   2.953   7.485   4.081  0.0616 -0.6540  0.7416
  132MOL   H17647598   2.844   7.396   3.980  0.1527 -1.8602 -0.0137
  132MOL   H17747599   2.756   7.599   4.183 -1.6425  1.4406 -0.0495
  132MOL   H17847600   2.812   7.642   4.022  0.3366 -0.7140 -1.1908
  132MOL   H17947601   2.559   7.492   4.118 -1.5026  2.2012  0.7025
  132MOL   H18047602   2.609   7.486   3.950 -1.9361  1.5766 -1.2436
  132MOL   H18147603   2.561   7.640   4.030  0.4433 -0.5029  0.3988
  132MOL   C18247604   2.910   7.098   4.299 -0.0452  0.2339  0.3151
  132MOL   C18347605   2.945   7.011   4.423  0.0617  0.5621 -0.4034
  132MOL   C18447606   2.902   6.871   4.385  0.9124 -0.7811 -0.1760
  132MOL   O18547607   2.822   6.812   4.460 -0.4017  0.5371  0.1155
  132MOL   O18647608   2.966   6.815   4.281  0.3802  0.0602  0.3358
  132MOL   C18747609   2.932   6.677   4.248 -0.2358  0.1425 -0.0352
  132MOL   C18847610   3.064   6.618   4.190 -0.0033  0.2345 -0.0257
  132MOL   C18947611   3.178   6.605   4.281  0.2966 -0.7055 -0.1514
  132MOL   H19047612   2.974   7.186   4.292  1.2275 -0.7756 -1.0438
  132MOL   H19147613   2.952   7.048   4.212  1.6048  0.6741  0.8492
  132MOL   H19247614   2.885   7.047   4.507 -1.7371 -1.7241 -0.6493
  132MOL   H19347615   2.899   6.621   4.335 -0.9419 -0.6309 -0.7860
  132MOL   H19447616   2.845   6.697   4.186  0.8060  1.7931 -1.0118
  132MOL   H19547617   3.053   6.519   4.145 -2.1673  0.7269 -0.6754
  132MOL   H19647618   3.086   6.694   4.115  0.7985  0.9955  0.9710
  132MOL   H19747619   3.175   6.679   4.361  1.5930 -1.9182  1.0593
  132MOL   H19847620   3.275   6.602   4.232 -0.7070  0.7571 -2.3064
  132MOL   H19947621   3.175   6.505   4.326  1.9455 -1.0357 -0.7523
  132MOL   C20047622   3.094   7.009   4.460 -0.1325 -0.0079  0.5675
  132MOL   C20147623   3.125   7.037   4.608 -0.0216  0.4135 -0.4190
  132MOL   C20247624   3.108   7.186   4.642  0.3003  0.1646  0.3405
  132MOL   O20347625   3.038   7.227   4.736 -0.5656  0.1486  0.0442
  132MOL   O20447626   3.185   7.261   4.563  0.1880  0.2967  0.1096
  132MOL   C20547627   3.173   7.402   4.570  0.0539 -0.1971  0.1602
  132MOL   C20647628   3.218   7.457   4.434  0.1183  0.1045 -0.1162
  132MOL   C20747629   3.136   7.420   4.311  0.2105  0.5249  0.0000
  132MOL   H20847630   3.136   7.083   4.392 -0.4461  0.5076  0.9296
  132MOL   H20947631   3.133   6.910   4.435 -0.3896  0.3744 -1.3693
  132MOL   H21047632   3.231   7.019   4.622 -0.2023 -0.8474 -0.5802
  132MOL   H21147633   3.069   7.433   4.581  0.3751  0.6944  0.7157
  132MOL   H21247634   3.220   7.434   4.663 -2.1975 -0.8430  1.5696
  132MOL   H21347635   3.220   7.566   4.435  0.8137  0.0977 -0.3922
  132MOL   H21447636   3.315   7.417   4.406  0.3067 -1.1635  2.2609
  132MOL   H21547637   3.032   7.396   4.333  1.1186 -2.3409  1.3438
  132MOL   H21647638   3.180   7.339   4.252 -0.3275 -0.0158  0.3461
  132MOL   H21747639   3.147   7.504   4.242  0.3314 -0.4500 -1.1872
  132MOL   C21847640   3.050   6.942   4.710 -0.1113 -0.3088 -0.1059
  132MOL   C21947641   3.084   6.791   4.713 -0.2147 -0.2323 -0.5353
  132MOL   C22047642   3.236   6.776   4.734 -0.2130  0.1027 -0.3795
  132MOL   O22147643   3.313   6.757   4.631 -0.0668 -0.9952 -0.5700
  132MOL   O22247644   3.268   6.799   4.865 -0.0671  0.3895  0.1541
  132MOL   C22347645   3.399   6.791   4.903 -0.1586 -0.5683  0.4128
  132MOL   C22447646   3.394   6.785   5.059  0.2410  0.7054 -0.0586
  132MOL   C22547647   3.322   6.901   5.118  0.0728  0.9804  0.0921
  132MOL   H22647648   2.942   6.956   4.722  0.1072  0.4550  1.0684
  132MOL   H22747649   3.069   6.979   4.811 -0.7887  1.7982 -0.7285
  132MOL   H22847650   3.046   6.754   4.618  0.6248 -1.2921 -0.4755
  132MOL   H22947651   3.443   6.698   4.866 -4.0063 -2.0278 -0.7543
  132MOL   H23047652   3.459   6.876   4.869 -1.6340  0.2857 -0.1290
  132MOL   H23147653   3.350   6.691   5.093 -0.8905  0.6287 -1.6892
  132MOL   H23247654   3.497   6.779   5.095 -0.4406 -3.3181  1.5961
  132MOL   H23347655   3.366   6.995   5.086 -0.5265  1.6627  1.2464
  132MOL   H23447656   3.312   6.906   5.226  2.0614 -0.4807  0.3811
  132MOL   H23547657   3.220   6.914   5.083  0.0768 -0.6303 -0.5774
  132MOL   C23647658   3.005   6.699   4.815 -0.4556 -0.8718 -0.2327
  132MOL   C23747659   3.028   6.544   4.809  0.5926  0.3211  0.5405
  132MOL   C23847660   2.990   6.474   4.946  0.3197  0.9113 -0.2589
  132MOL   O23947661   2.893   6.397   4.959  0.2179 -0.5584 -0.2976
  132MOL   O24047662   3.082   6.511   5.042  0.4132 -0.0763  0.1832
  132MOL   C24147663   3.078   6.455   5.176  0.4917 -0.0133 -0.1034
  132MOL   C24247664   2.981   6.538   5.260 -0.0583  0.0508  0.2051
  132MOL   C24347665   3.041   6.676   5.287 -0.7351  0.6746 -0.3385
  132MOL   H24447666   2.899   6.726   4.818 -0.4067 -0.6253 -0.6618
  132MOL   H24547667   3.030   6.737   4.914 -2.1466 -1.3403  0.3918
  132MOL   H24647668   3.134   6.522   4.801  0.0045 -1.6833 -2.7867
  132MOL   H24747669   3.054   6.349   5.168  2.1982 -0.2789 -1.9412
  132MOL   H24847670   3.170   6.446   5.233  0.7988 -1.4954 -0.8283
  132MOL   H24947671   2.884   6.550   5.213  0.5001  0.1634 -0.9188
  132MOL   H25047672   2.967   6.481   5.353 -1.7955 -0.6388 -0.4595
  132MOL   H25147673   3.135   6.661   5.341  0.1029  2.6898 -1.2129
  132MOL   H25247674   2.969   6.739   5.339 -1.0709  0.2407 -0.2695
  132MOL   H25347675   3.056   6.731   5.194 -2.2688 -0.2404 -1.1512
  132MOL   C25447676   2.951   6.482   4.683  0.2600 -0.2416  0.2203
  132MOL   C25547677   2.991   6.334   4.656  0.1048  0.7372  0.8453
  132MOL   C25647678   2.912   6.242   4.556 -0.1572  0.5509 -0.0488
  132MOL   O25747679   2.851   6.145   4.600 -0.5428 -0.2123  0.7532
  132MOL   O25847680   2.929   6.271   4.434  0.1421 -0.5017  0.8079
  132MOL   C25947681   2.876   6.184   4.333 -0.2028  0.3940  0.1467
  132MOL   C26047682   2.870   6.255   4.196 -0.0962  0.9361  0.8202
  132MOL   C26147683   2.849   6.158   4.077  0.4301  0.6692  0.4398
  132MOL   H26247684   2.962   6.542   4.593  0.7443  1.3726  1.3375
  132MOL   H26347685   2.844   6.481   4.702 -0.2033  2.0421 -1.9601
  132MOL   H26447686   2.971   6.278   4.747  2.5267 -0.7055  0.5488
  132MOL   H26547687   2.957   6.112   4.323  1.9921  2.4414  2.4613
  132MOL   H26647688   2.779   6.145   4.361  0.2194 -0.7744 -0.0005
  132MOL   H26747689   2.795   6.333   4.190 -0.3491  0.9360  3.5597
  132MOL   H26847690   2.967   6.306   4.193  0.3191  0.1453  0.3765
  132MOL   H26947691   2.742   6.139   4.071  0.6075  0.0744 -1.3146
  132MOL   H27047692   2.889   6.058   4.092 -2.2703 -0.4090  0.7873
  132MOL   H27147693   2.871   6.201   3.979 -0.3676  2.0322  0.8395
  132MOL   C27247694   3.144   6.313   4.620 -0.2241 -0.3162 -0.1957
  132MOL   C27347695   3.224   6.270   4.742 -1.4760  0.3747  0.4572
  132MOL   C27447696   3.229   6.116   4.757 -1.3302 -0.7577 -0.4697
  132MOL   O27547697   3.192   6.040   4.670  0.5839  0.3084 -0.4910
  132MOL   O27647698   3.283   6.076   4.868  0.4930 -0.3412 -0.6844
  132MOL   C27747699   3.283   5.945   4.904  0.5045 -0.0262 -0.5429
  132MOL   C27847700   3.421   5.886   4.879 -0.6328 -0.7137  0.8780
  132MOL   C27947701   3.439   5.738   4.924 -0.5122 -0.5439 -0.6709
  132MOL   H28047702   3.187   6.406   4.581 -1.4406  0.5293  0.4601
  132MOL   H28147703   3.161   6.240   4.541 -0.6922  0.8471 -1.3826
  132MOL   H28247704   3.177   6.306   4.833 -1.4088  0.3033  0.5207
  132MOL   H28347705   3.253   5.937   5.008 -0.2270 -0.3408 -0.7739
  132MOL   H28447706   3.209   5.885   4.851  2.4471 -1.3344 -1.8267
  132MOL   H28547707   3.438   5.906   4.773 -0.6729 -0.2441  0.9610
  132MOL   H28647708   3.485   5.950   4.939  0.8998 -1.6931  0.3256
  132MOL   H28747709   3.361   5.667   4.897 -1.0525 -0.2267  0.0595
  132MOL   H28847710   3.453   5.745   5.032 -0.5668 -1.3925 -0.6009
  132MOL   H28947711   3.535   5.694   4.893  0.2011 -0.4393  1.3147
  132MOL   C29047712   3.365   6.333   4.741 -0.5791  0.3707  0.6132
  132MOL   C29147713   3.472   6.270   4.633  0.9908 -0.5395  0.0306
  132MOL   C29247714   3.483   6.352   4.512  0.5129  0.3319  0.4624
  132MOL   O29347715   3.438   6.306   4.406  0.0446 -0.1607  0.0969
  132MOL   O29447716   3.541   6.468   4.527  0.8140  0.1991 -0.2574
  132MOL   C29547717   3.548   6.555   4.416 -0.3325 -0.1651  0.2964
  132MOL   C29647718   3.656   6.650   4.449 -0.6766  0.1993  0.3891
  132MOL   C29747719   3.624   6.747   4.562  0.0984 -0.1225  0.0963
  132MOL   H29847720   3.414   6.317   4.838  0.2140 -0.2460  0.1137
  132MOL   H29947721   3.367   6.442   4.745  1.3626  0.3089  2.1042
  132MOL   H30047722   3.441   6.177   4.585  1.8016 -1.1047  0.5852
  132MOL   H30147723   3.569   6.499   4.325  0.7644 -0.9863  1.0368
  132MOL   H30247724   3.455   6.607   4.395  0.2612  0.8636  0.1676
  132MOL   H30347725   3.741   6.594   4.489 -0.2492  0.2470 -0.4440
  132MOL   H30447726   3.690   6.692   4.354  0.4058 -1.6914 -0.0841
  132MOL   H30547727   3.531   6.802   4.547  0.3866 -0.2300 -2.3404
  132MOL   H30647728   3.710   6.810   4.583 -1.6867  2.4585  0.0064
  132MOL   H30747729   3.610   6.690   4.653  0.4528  0.2182  0.3649
  132MOL   C30847730   3.607   6.245   4.694  0.8678  0.0104  0.1102
  132MOL   C30947731   3.712   6.175   4.608  0.4966 -0.9886  0.1604
  132MOL   C31047732   3.856   6.170   4.665  0.7112  0.1455  0.3263
  132MOL   O31147733   3.870   6.159   4.785 -0.4875  0.2472 -0.4124
  132MOL   O31247734   3.959   6.172   4.567 -0.3754  0.5287 -0.4056
  132MOL   C31347735   4.096   6.175   4.612 -0.4500  0.2545  0.6236
  132MOL   C31447736   4.180   6.076   4.523 -0.1564  0.3628  0.0922
  132MOL   C31547737   4.300   6.024   4.599 -0.1326 -0.7321  0.5646
  132MOL   H31647738   3.583   6.178   4.776 -1.7698 -0.4800 -1.0071
  132MOL   H31747739   3.646   6.340   4.732 -1.2798  1.3049 -0.8288
  132MOL   H31847740   3.726   6.218   4.509  0.5999 -3.6043 -1.0192
  132MOL   H31947741   4.133   6.277   4.594 -1.4117  0.6572  0.9150
  132MOL   H32047742   4.105   6.159   4.719  0.2440 -1.9250  0.2467
  132MOL   H32147743   4.123   5.985   4.504  0.1451 -0.1674  1.6327
  132MOL   H32247744   4.203   6.112   4.423 -1.3378 -0.4135 -0.4746
  132MOL   H32347745   4.387   6.088   4.581 -0.0868 -1.2078 -1.0038
  132MOL   H32447746   4.280   5.996   4.702 -1.7898 -0.1496  0.4171
  132MOL   H32547747   4.337   5.932   4.554  1.4624 -0.3295  1.0185
  132MOL   C32647748   3.669   6.023   4.582  0.1109 -0.8931  0.0963
  132MOL   C32747749   3.744   5.945   4.469 -0.3869 -0.2297 -0.2350
  132MOL   C32847750   3.712   5.796   4.496  0.0166  0.5900  0.3436
  132MOL   O32947751   3.800   5.717   4.510 -0.1066  0.5659  0.4695
  132MOL   O33047752   3.579   5.767   4.504  0.5122 -0.0574  0.5234
  132MOL   C33147753   3.542   5.635   4.548  0.2703  0.2106  0.4807
  132MOL   C33247754   3.386   5.631   4.546  0.5763  0.8998  1.4240
  132MOL   C33347755   3.326   5.577   4.409 -0.6610 -0.2594 -0.1787
  132MOL   H33447756   3.565   6.017   4.552  0.0852  2.3445 -0.6849
  132MOL   H33547757   3.669   5.968   4.676  1.3457  2.4365  2.1530
  132MOL   H33647758   3.853   5.950   4.472 -0.2189 -1.3879 -2.6613
  132MOL   H33747759   3.604   5.559   4.501  0.8275  1.4661 -0.8511
  132MOL   H33847760   3.564   5.632   4.655  1.8608 -1.5625  0.1306
  132MOL   H33947761   3.366   5.559   4.625 -1.7074  1.8676  1.7745
  132MOL   H34047762   3.339   5.726   4.575  1.1183  1.7647 -0.4611
  132MOL   H34147763   3.219   5.560   4.420 -0.8449  0.0096 -1.5293
  132MOL   H34247764   3.337   5.661   4.342  0.9171 -0.3219 -0.0075
  132MOL   H34347765   3.375   5.485   4.376  0.4704  0.2036  0.2143
  132MOL   C34447766   3.708   5.993   4.321 -0.9213 -0.1929 -0.0551
  132MOL   C34547767   3.807   5.949   4.211 -0.0124  0.6235  0.4508
  132MOL   C34647768   3.941   6.010   4.228  0.5445  0.0987  0.1689
  132MOL   O34747769   4.042   5.947   4.252  0.0460  0.6827  0.4641
  132MOL   O34847770   3.943   6.140   4.199 -0.3332  0.3463 -0.6302
  132MOL   C34947771   4.053   6.232   4.210  0.4963  0.0078  0.2624
  132MOL   C35047772   3.991   6.369   4.184  0.0355  1.0318 -0.0495
  132MOL   C35147773   3.886   6.413   4.286  0.2997  0.2807  0.1925
  132MOL   H35247774   3.686   6.099   4.311  0.1442  0.1150  0.8144
  132MOL   H35347775   3.609   5.961   4.287 -1.7839  0.6813  1.5530
  132MOL   H35447776   3.755   5.977   4.119 -1.9370 -1.4845  0.8420
  132MOL   H35547777   4.087   6.238   4.313  1.6732 -1.9521  0.0219
  132MOL   H35647778   4.141   6.205   4.152  1.7689 -0.0406  2.1858
  132MOL   H35747779   4.074   6.440   4.185 -0.0899  1.1735  0.2421
  132MOL   H35847780   3.947   6.382   4.085  1.0491  0.3775 -0.5985
  132MOL   H35947781   3.801   6.346   4.298  0.3223  0.1704 -0.2522
  132MOL   H36047782   3.931   6.421   4.385 -1.2192 -0.1199  0.9263
  132MOL   H36147783   3.851   6.506   4.240  0.4957 -0.1407 -0.8191
  132MOL   H36247784   3.801   5.840   4.212 -0.4991  0.6453  0.3437
  133MOL     C147785   3.109   4.336   1.565 -0.1889 -0.3072  0.2802
  133MOL     C247786   3.237   4.345   1.490 -0.6444  0.0210  0.0498
  133MOL     C347787   3.313   4.468   1.556  0.4407 -0.4598  0.0271
  133MOL     O447788   3.302   4.575   1.509  0.1295 -0.1021  0.0732
  133MOL     O547789   3.383   4.450   1.672 -0.2532 -0.3209  0.1385
  133MOL     C647790   3.456   4.552   1.728  0.0376  0.2271 -0.1086
  133MOL     C747791   3.528   4.516   1.858  0.0369  0.9998  0.1540
  133MOL     C847792   3.621   4.617   1.918  0.4420 -1.0862 -0.0119
  133MOL     H947793   3.043   4.264   1.517  1.4260 -1.3459 -0.4177
  133MOL    H1047794   3.132   4.296   1.663 -1.7839 -1.0431  0.3799
  133MOL    H1147795   3.219   4.367   1.385 -1.0448 -2.3009 -0.3950
  133MOL    H1247796   3.531   4.581   1.654 -0.3439  1.1734 -0.1367
  133MOL    H1347797   3.387   4.635   1.745 -0.3086 -0.7091  3.3380
  133MOL    H1447798   3.459   4.496   1.940 -1.2781 -1.9951 -1.5563
  133MOL    H1547799   3.592   4.429   1.840 -0.3055  0.9945 -1.1239
  133MOL    H1647800   3.648   4.587   2.019  0.3134 -1.0090  0.0450
  133MOL    H1747801   3.713   4.622   1.860  1.2125  0.4025  1.3194
  133MOL    H1847802   3.591   4.720   1.935  0.6268 -1.0135 -0.1242
  133MOL    H1947803   3.063   4.435   1.570  2.0328  0.7330  0.5382
  133MOL    C2047804   3.307   4.205   1.482  0.3798 -0.6272 -0.5811
  133MOL    C2147805   3.421   4.215   1.383  0.0223  1.0910 -0.2802
  133MOL    C2247806   3.546   4.132   1.443 -0.3680 -0.5691  0.5876
  133MOL    O2347807   3.601   4.054   1.371  0.0659  0.0094 -0.1169
  133MOL    O2447808   3.586   4.159   1.561 -0.5892 -0.6173 -0.0525
  133MOL    C2547809   3.709   4.096   1.605 -0.1974  0.5926 -0.7922
  133MOL    C2647810   3.806   4.187   1.683  0.1223 -0.2529  0.4023
  133MOL    C2747811   3.834   4.309   1.601 -0.1057  0.3610 -0.3964
  133MOL    H2847812   3.227   4.137   1.451  1.3673 -0.6989 -3.0210
  133MOL    H2947813   3.336   4.168   1.581 -1.1043 -0.5640 -0.1118
  133MOL    H3047814   3.449   4.321   1.381 -0.7434  1.2691 -1.6540
  133MOL    H3147815   3.687   4.008   1.665 -0.2499  1.1088 -0.0566
  133MOL    H3247816   3.774   4.071   1.521  1.0883  1.2507  0.0007
  133MOL    H3347817   3.774   4.218   1.782 -0.1958  0.8736 -0.0451
  133MOL    H3447818   3.899   4.130   1.694 -0.6186 -1.2794  1.4480
  133MOL    H3547819   3.746   4.372   1.592 -0.9865 -0.8558 -0.4819
  133MOL    H3647820   3.851   4.298   1.494  0.2897  0.5738 -0.3561
  133MOL    H3747821   3.918   4.356   1.651  2.1371 -1.1675 -2.6135
  133MOL    C3847822   3.394   4.181   1.235  0.3460  0.3676 -0.0942
  133MOL    C3947823   3.506   4.214   1.136  0.0618 -0.1996  0.9102
  133MOL    C4047824   3.483   4.149   1.004  0.0626  0.1943  0.0968
  133MOL    O4147825   3.387   4.181   0.932 -0.0052  0.1134  0.2538
  133MOL    O4247826   3.569   4.049   0.978 -0.4622  0.0630  0.5958
  133MOL    C4347827   3.544   3.962   0.874  0.3196  0.7852  0.0772
  133MOL    C4447828   3.507   3.819   0.918 -0.2190 -0.9672  0.3947
  133MOL    C4547829   3.499   3.716   0.800 -0.0060 -0.5869  0.7088
  133MOL    H4647830   3.311   4.242   1.201  1.4013  1.0753 -1.4837
  133MOL    H4747831   3.366   4.076   1.232 -2.9214  1.2044 -1.5143
  133MOL    H4847832   3.603   4.177   1.171  1.7377  2.2032 -0.9980
  133MOL    H4947833   3.466   3.998   0.807 -0.6873  2.1947  1.9711
  133MOL    H5047834   3.633   3.952   0.812 -0.7313  0.6062 -1.4556
  133MOL    H5147835   3.577   3.784   0.994 -1.1901  0.3581  1.9414
  133MOL    H5247836   3.407   3.824   0.963 -0.1702 -0.0912  0.4188
  133MOL    H5347837   3.464   3.620   0.839  0.6327 -1.7113 -1.4534
  133MOL    H5447838   3.595   3.711   0.749 -0.8216  0.0739 -0.9297
  133MOL    H5547839   3.422   3.751   0.731 -0.4941 -0.5752  1.2503
  133MOL    C5647840   3.530   4.369   1.124  0.0534 -0.1904 -0.2938
  133MOL    C5747841   3.651   4.416   1.044  0.1188 -0.4062 -0.3748
  133MOL    C5847842   3.614   4.560   0.992  0.7093  0.5024  0.1907
  133MOL    O5947843   3.646   4.602   0.884  0.6468 -0.1095  0.1304
  133MOL    O6047844   3.564   4.642   1.081 -0.5469 -0.4235 -0.1467
  133MOL    C6147845   3.551   4.784   1.063 -0.9452 -0.1309 -0.5245
  133MOL    C6247846   3.529   4.863   1.203 -0.4989  0.3345  0.5878
  133MOL    C6347847   3.382   4.875   1.241 -0.0109 -0.1377 -0.8657
  133MOL    H6447848   3.536   4.415   1.223 -1.7730  0.7761 -0.6063
  133MOL    H6547849   3.440   4.402   1.073 -0.4707 -0.1322  0.6726
  133MOL    H6647850   3.662   4.355   0.955 -0.0276 -2.5941  1.0758
  133MOL    H6747851   3.641   4.816   1.011 -1.7859  1.1076 -1.2573
  133MOL    H6847852   3.478   4.805   0.984 -0.9952 -0.8981 -0.6910
  133MOL    H6947853   3.593   4.822   1.281  1.0290 -0.3177 -0.9917
  133MOL    H7047854   3.570   4.965   1.203  0.5688 -0.0815  1.8254
  133MOL    H7147855   3.331   4.941   1.172  1.9880  0.8292 -1.4413
  133MOL    H7247856   3.362   4.900   1.346  0.7230 -3.7728  0.2287
  133MOL    H7347857   3.345   4.774   1.225  1.0405 -0.6600 -0.0359
  133MOL    C7447858   3.785   4.412   1.124  0.2919 -0.5615  0.7067
  133MOL    C7547859   3.879   4.292   1.128  0.2827 -0.5896  0.1633
  133MOL    C7647860   3.909   4.233   0.991  0.3019  1.0343  0.1857
  133MOL    O7747861   3.895   4.112   0.968  0.0355 -0.0991  0.1481
  133MOL    O7847862   3.950   4.322   0.905 -0.0989 -0.2732 -0.8317
  133MOL    C7947863   3.966   4.298   0.768 -0.0992  0.3627  0.0149
  133MOL    C8047864   3.848   4.364   0.700 -0.0916  0.6478 -0.5455
  133MOL    C8147865   3.851   4.515   0.689 -0.0800  0.1365  0.2852
  133MOL    H8247866   3.768   4.422   1.231 -1.4862 -2.0429  0.5856
  133MOL    H8347867   3.841   4.501   1.095 -0.5833 -0.3193 -0.2551
  133MOL    H8447868   3.812   4.219   1.171  0.4083  0.0652  1.4847
  133MOL    H8547869   4.061   4.349   0.748  0.6001 -0.8990  0.0599
  133MOL    H8647870   3.982   4.191   0.753  2.2081  0.7469 -0.4443
  133MOL    H8747871   3.839   4.313   0.604  0.7232 -2.9259  1.1832
  133MOL    H8847872   3.759   4.346   0.761  0.4070 -0.6231 -0.1710
  133MOL    H8947873   3.927   4.551   0.619 -0.1099 -1.1204 -0.3949
  133MOL    H9047874   3.875   4.557   0.787 -0.2349 -1.4194  1.0025
  133MOL    H9147875   3.754   4.551   0.653 -0.2086 -1.2644 -0.8110
  133MOL    C9247876   4.010   4.321   1.206 -0.0952  0.3193  0.3174
  133MOL    C9347877   4.108   4.205   1.238 -0.9598  0.4334  1.1340
  133MOL    C9447878   4.231   4.263   1.301  0.7663 -0.5094  0.2394
  133MOL    O9547879   4.248   4.250   1.422 -1.1707 -0.0414 -0.3553
  133MOL    O9647880   4.315   4.322   1.211  0.0100 -0.0082 -0.0263
  133MOL    C9747881   4.428   4.392   1.247  0.1903  0.0107 -0.9407
  133MOL    C9847882   4.530   4.393   1.129 -0.5717  0.1537 -0.8013
  133MOL    C9947883   4.600   4.258   1.114  0.4696  0.4956  0.7010
  133MOL   H10047884   3.979   4.377   1.294 -1.1091  3.2722 -1.8315
  133MOL   H10147885   4.066   4.391   1.144  1.7988  0.1228  1.7867
  133MOL   H10247886   4.158   4.169   1.147 -1.4420  1.0042  0.6353
  133MOL   H10347887   4.391   4.494   1.254 -0.9126 -0.3743 -0.9271
  133MOL   H10447888   4.479   4.352   1.335 -1.2826 -0.4243 -0.2571
  133MOL   H10547889   4.485   4.434   1.039 -2.9809  0.4927  0.4908
  133MOL   H10647890   4.607   4.466   1.151 -0.5012 -0.4422  1.0829
  133MOL   H10747891   4.648   4.216   1.202  1.5395 -2.1791 -1.1164
  133MOL   H10847892   4.674   4.279   1.037  1.9483 -2.2112  1.3421
  133MOL   H10947893   4.535   4.182   1.071  2.4641 -0.4180 -0.7550
  133MOL   C11047894   4.041   4.093   1.313  0.2244 -0.2204 -0.4563
  133MOL   C11147895   4.120   3.955   1.324 -0.0506  0.6503  0.6721
  133MOL   C11247896   4.050   3.869   1.424  0.1046  0.5475  0.5669
  133MOL   O11347897   4.109   3.795   1.504  0.2086 -0.2698  0.3058
  133MOL   O11447898   3.915   3.872   1.396 -0.5456  0.3076  0.1018
  133MOL   C11547899   3.830   3.781   1.457  0.1284  0.0030  0.2336
  133MOL   C11647900   3.788   3.669   1.361 -0.0884 -0.0985  0.5723
  133MOL   C11747901   3.718   3.717   1.229  0.0684 -0.2829  0.3703
  133MOL   H11847902   3.944   4.080   1.266  0.9380 -0.1296 -1.9995
  133MOL   H11947903   4.016   4.133   1.411  2.7991  0.0896  0.1063
  133MOL   H12047904   4.221   3.983   1.354 -0.4108  0.5648  1.9664
  133MOL   H12147905   3.878   3.727   1.539  1.6324 -0.7970 -1.1298
  133MOL   H12247906   3.742   3.838   1.487  0.4690  0.4113  0.4697
  133MOL   H12347907   3.876   3.612   1.330 -1.2112 -0.8685 -1.2965
  133MOL   H12447908   3.721   3.602   1.415 -2.5484  1.0456 -0.9824
  133MOL   H12547909   3.795   3.768   1.171  0.5067 -2.2602 -0.8406
  133MOL   H12647910   3.628   3.776   1.243 -1.0479 -1.5247 -1.3617
  133MOL   H12747911   3.694   3.639   1.156  0.4422  0.4881 -0.5820
  133MOL   C12847912   4.118   3.879   1.188  0.5483 -0.4051  0.0955
  133MOL   C12947913   4.187   3.741   1.184  0.4034  0.0005 -0.1433
  133MOL   C13047914   4.140   3.667   1.054 -0.4884  0.1526 -0.0380
  133MOL   O13147915   4.093   3.555   1.046  0.0275  0.6879  0.0819
  133MOL   O13247916   4.164   3.744   0.941  0.5671  0.6495 -0.2436
  133MOL   C13347917   4.133   3.687   0.815 -0.3905  0.2800 -0.2808
  133MOL   C13447918   4.109   3.795   0.721 -0.1861 -0.5384 -0.2798
  133MOL   C13547919   3.999   3.884   0.764  0.0788  0.1265 -0.9328
  133MOL   H13647920   4.159   3.945   1.112 -0.8676 -0.1277 -0.4521
  133MOL   H13747921   4.014   3.850   1.173  0.1750 -0.5349  2.7087
  133MOL   H13847922   4.171   3.663   1.258 -0.9166  0.5064  0.1231
  133MOL   H13947923   4.212   3.623   0.776  0.0027  0.4154  0.2881
  133MOL   H14047924   4.047   3.622   0.831 -1.1244  1.7771  2.2179
  133MOL   H14147925   4.201   3.851   0.709 -0.5274  0.0222 -0.2861
  133MOL   H14247926   4.083   3.740   0.630 -1.7378  1.1682 -0.9151
  133MOL   H14347927   3.963   3.957   0.691 -1.7085  1.2264  1.0080
  133MOL   H14447928   4.023   3.945   0.851 -1.7451 -1.2783  0.6109
  133MOL   H14547929   3.913   3.821   0.788 -0.9688  2.0413  0.4504
  133MOL   C14647930   4.342   3.761   1.193 -0.0987 -0.7222  0.3922
  133MOL   C14747931   4.432   3.634   1.162  0.0533  0.3587 -0.8892
  133MOL   C14847932   4.469   3.621   1.013 -0.4659 -0.6235  0.2716
  133MOL   O14947933   4.411   3.538   0.946 -0.0421  0.1524 -0.6007
  133MOL   O15047934   4.568   3.700   0.974  0.3715  0.0584 -0.3097
  133MOL   C15147935   4.616   3.684   0.844  0.4608  0.4796  0.0791
  133MOL   C15247936   4.750   3.764   0.830  0.0078  0.4604 -0.2790
  133MOL   C15347937   4.868   3.688   0.878 -1.3547  0.3864  0.5129
  133MOL   H15447938   4.364   3.804   1.290  0.5529  1.8079 -0.8385
  133MOL   H15547939   4.364   3.840   1.121  1.0603 -0.3539  1.1377
  133MOL   H15647940   4.365   3.550   1.182  2.3952 -0.8717  2.2043
  133MOL   H15747941   4.619   3.578   0.819 -1.1085  0.5077 -0.2894
  133MOL   H15847942   4.550   3.726   0.768  0.7942  2.5723  0.9110
  133MOL   H15947943   4.766   3.801   0.729  0.3047  1.3238  0.0768
  133MOL   H16047944   4.744   3.854   0.892 -0.8657 -0.0256  0.3497
  133MOL   H16147945   4.852   3.647   0.978 -1.9306 -0.6269  0.0141
  133MOL   H16247946   4.968   3.731   0.875 -0.2050 -2.2834 -3.7389
  133MOL   H16347947   4.891   3.604   0.812 -2.2262  0.9078 -0.4645
  133MOL   C16447948   4.558   3.616   1.258  0.0919 -0.1198  0.3200
  133MOL   C16547949   4.642   3.484   1.233  0.0994 -0.5598 -0.0618
  133MOL   C16647950   4.784   3.497   1.283  0.7612  0.5173 -0.3955
  133MOL   O16747951   4.832   3.607   1.321 -0.0124  0.0390 -0.4552
  133MOL   O16847952   4.849   3.379   1.274  0.5240  0.4993 -0.6269
  133MOL   C16947953   4.978   3.363   1.323 -0.4831  0.3279  0.3023
  133MOL   C17047954   5.072   3.358   1.200  0.4626  0.2330 -0.1310
  133MOL   C17147955   5.113   3.501   1.143  0.1450 -0.7918 -0.6300
  133MOL   H17247956   4.529   3.608   1.363  0.5531 -0.7099  0.4045
  133MOL   H17347957   4.614   3.709   1.257  1.0395 -0.6821  0.8610
  133MOL   H17447958   4.660   3.470   1.127  0.0964  0.2593 -0.1784
  133MOL   H17547959   4.996   3.444   1.392 -0.9062  1.1332 -0.5174
  133MOL   H17647960   4.990   3.275   1.387  0.6192  1.9734  2.3781
  133MOL   H17747961   5.162   3.297   1.215  1.2038  0.6174 -2.8391
  133MOL   H17847962   5.017   3.305   1.122  0.5598 -0.5854  0.3436
  133MOL   H17947963   5.179   3.550   1.215  1.1567 -1.2654 -1.2262
  133MOL   H18047964   5.026   3.565   1.125 -0.6854 -1.5848  0.5181
  133MOL   H18147965   5.164   3.479   1.049 -1.3380 -1.1884 -1.3740
  133MOL   C18247966   4.562   3.361   1.275 -0.4633 -0.1188 -0.8355
  133MOL   C18347967   4.553   3.337   1.428 -0.4358  0.9252 -0.4277
  133MOL   C18447968   4.425   3.407   1.491 -0.1146  0.7049  0.3600
  133MOL   O18547969   4.429   3.483   1.583  0.9125  0.4043 -0.2480
  133MOL   O18647970   4.305   3.379   1.431 -0.4764  0.0631  0.4274
  133MOL   C18747971   4.184   3.441   1.471 -0.1837 -0.4050  0.0394
  133MOL   C18847972   4.096   3.344   1.546 -0.0084 -0.0287 -0.2117
  133MOL   C18947973   3.949   3.393   1.567  0.0101  0.0341  0.7604
  133MOL   H19047974   4.595   3.273   1.221 -0.4451 -0.5464 -0.1374
  133MOL   H19147975   4.465   3.379   1.228  0.0643  1.7816 -1.2217
  133MOL   H19247976   4.646   3.372   1.472  0.5447 -1.8121 -0.1994
  133MOL   H19347977   4.207   3.527   1.535  0.4647 -0.7209  0.2329
  133MOL   H19447978   4.122   3.476   1.388  3.0396  3.9140 -0.7119
  133MOL   H19547979   4.093   3.259   1.477 -2.1763 -0.2950  0.1776
  133MOL   H19647980   4.139   3.316   1.642  1.2207  1.3824 -0.3363
  133MOL   H19747981   3.946   3.483   1.629  0.2658 -0.1226  1.0034
  133MOL   H19847982   3.879   3.325   1.615 -1.2851 -0.2538 -1.4948
  133MOL   H19947983   3.901   3.426   1.475  1.4336 -0.6216 -0.2377
  133MOL   C20047984   4.554   3.190   1.462 -0.2883  0.4118  0.6213
  133MOL   C20147985   4.698   3.114   1.445 -0.3957  0.1223 -0.3389
  133MOL   C20247986   4.789   3.111   1.570  0.1132 -0.0688  0.4397
  133MOL   O20347987   4.734   3.109   1.682 -0.1074 -0.2720  0.3376
  133MOL   O20447988   4.921   3.111   1.538  0.6301 -0.0461  0.3546
  133MOL   C20547989   5.016   3.102   1.639  0.0149 -0.0004 -0.3655
  133MOL   C20647990   5.043   2.950   1.668  0.6522  0.3177  0.1391
  133MOL   C20747991   5.080   2.876   1.534 -0.2924 -0.2739 -0.3123
  133MOL   H20847992   4.477   3.155   1.394  1.8296 -1.6204 -0.7832
  133MOL   H20947993   4.504   3.164   1.556 -0.5746  0.6820  0.5451
  133MOL   H21047994   4.749   3.157   1.359 -1.8362  3.2703  0.3126
  133MOL   H21147995   5.105   3.155   1.604 -0.0637 -0.7128 -1.6597
  133MOL   H21247996   4.979   3.162   1.722 -1.9201 -0.0695 -1.1406
  133MOL   H21347997   5.134   2.949   1.728  1.4845  3.8163 -0.9361
  133MOL   H21447998   4.963   2.907   1.729 -0.0153  1.1788 -0.1156
  133MOL   H21547999   5.162   2.928   1.486  1.1941 -0.1229  2.2973
  133MOL   H21648000   4.998   2.879   1.462  0.1782 -1.2091 -0.8907
  133MOL   H21748001   5.121   2.777   1.554  2.1929  0.9141  0.7629
  133MOL   C21848002   4.674   2.967   1.409 -0.6077  0.0707  0.4506
  133MOL   C21948003   4.625   2.936   1.268 -0.5217  0.8810  0.7351
  133MOL   C22048004   4.731   2.986   1.163  0.1130 -0.4590 -0.7282
  133MOL   O22148005   4.854   2.974   1.186 -0.3860 -0.4794 -0.9695
  133MOL   O22248006   4.673   3.036   1.052  0.5947 -0.3535 -0.4248
  133MOL   C22348007   4.751   3.084   0.940  0.3614  0.2007  0.1307
  133MOL   C22448008   4.776   3.231   0.961 -0.2974 -0.7039 -0.7470
  133MOL   C22548009   4.684   3.309   0.870 -0.6066  0.7353 -0.5565
  133MOL   H22648010   4.605   2.927   1.484 -1.3343  0.6660  0.1091
  133MOL   H22748011   4.773   2.923   1.419 -0.0555  0.9552 -0.9967
  133MOL   H22848012   4.534   2.989   1.237  0.0941  0.8277 -1.2572
  133MOL   H22948013   4.850   3.039   0.950 -0.6513 -2.6903 -2.2456
  133MOL   H23048014   4.716   3.050   0.843 -1.5647 -1.5548  1.3882
  133MOL   H23148015   4.758   3.262   1.064  0.5337  0.9845 -1.0941
  133MOL   H23248016   4.878   3.260   0.938 -0.0376  0.2044  1.3891
  133MOL   H23348017   4.675   3.413   0.901  0.1614  0.6572 -0.0529
  133MOL   H23448018   4.581   3.273   0.873  0.3825 -2.2170 -0.1990
  133MOL   H23548019   4.720   3.305   0.767  0.3545 -0.3756 -0.1890
  133MOL   C23648020   4.606   2.781   1.247 -0.2591  0.0859 -0.0500
  133MOL   C23748021   4.524   2.705   1.353  0.6446 -0.6230 -0.1245
  133MOL   C23848022   4.392   2.777   1.395 -0.2362  0.1764 -0.0063
  133MOL   O23948023   4.331   2.858   1.319 -1.0738 -0.5164  0.2427
  133MOL   O24048024   4.356   2.742   1.519  0.4140  0.2210  0.2000
  133MOL   C24148025   4.254   2.812   1.584 -0.0681  0.9944 -0.7260
  133MOL   C24248026   4.146   2.705   1.628  0.2644 -0.3942  0.4057
  133MOL   C24348027   4.102   2.596   1.526  0.2849 -0.5972  0.3521
  133MOL   H24448028   4.709   2.746   1.240  0.5578  2.3828 -0.0140
  133MOL   H24548029   4.555   2.781   1.151  1.8583 -0.9818 -1.2042
  133MOL   H24648030   4.567   2.708   1.453 -1.5891  0.1155  0.8440
  133MOL   H24748031   4.280   2.871   1.672  0.7704  0.1820 -0.4156
  133MOL   H24848032   4.206   2.881   1.515 -3.8036 -1.3111 -0.6108
  133MOL   H24948033   4.191   2.650   1.711 -1.2390 -0.0038  1.4989
  133MOL   H25048034   4.055   2.745   1.673  0.8763 -0.9363  2.1729
  133MOL   H25148035   4.185   2.539   1.483  0.8919  1.9283 -2.0190
  133MOL   H25248036   4.050   2.646   1.444 -1.8952 -2.8289  0.3361
  133MOL   H25348037   4.027   2.534   1.575  2.2000 -0.4509  3.6535
  133MOL   C25448038   4.507   2.552   1.320  0.2739 -0.9845  0.5970
  133MOL   C25548039   4.513   2.466   1.459  0.4875 -0.2108  0.1660
  133MOL   C25648040   4.416   2.353   1.463  0.5525  0.2444 -0.1456
  133MOL   O25748041   4.346   2.328   1.366 -0.0548  0.9024 -0.2400
  133MOL   O25848042   4.396   2.293   1.585 -0.7002  0.4697  0.0730
  133MOL   C25948043   4.285   2.209   1.606 -0.4270 -0.0439  0.3490
  133MOL   C26048044   4.209   2.244   1.738 -0.1681 -0.0515  0.9255
  133MOL   C26148045   4.114   2.129   1.792 -0.3227  0.0720  0.4558
  133MOL   H26248046   4.580   2.513   1.249  0.9069 -1.2079  1.3739
  133MOL   H26348047   4.409   2.540   1.272  0.3127  1.9689 -0.2627
  133MOL   H26448048   4.508   2.514   1.557 -2.2270 -0.0855  0.0108
  133MOL   H26548049   4.213   2.205   1.523 -1.5743  0.9601  1.2752
  133MOL   H26648050   4.318   2.106   1.614 -0.2272  0.0658  0.9348
  133MOL   H26748051   4.289   2.255   1.811  0.2206  0.4263  0.4305
  133MOL   H26848052   4.162   2.342   1.730  2.1742  1.1883  1.9576
  133MOL   H26948053   4.185   2.048   1.809  0.5963  1.4425  3.5653
  133MOL   H27048054   4.038   2.091   1.724  0.1191 -1.3158  0.7143
  133MOL   H27148055   4.061   2.159   1.883 -0.6424  1.6192 -0.2334
  133MOL   C27248056   4.659   2.398   1.472 -0.0189 -0.1857 -0.4039
  133MOL   C27348057   4.780   2.496   1.469  0.3342  0.0546 -0.2755
  133MOL   C27448058   4.768   2.590   1.597 -0.7041 -0.9011 -0.1609
  133MOL   O27548059   4.785   2.708   1.580  0.0128  0.4632 -0.4149
  133MOL   O27648060   4.746   2.530   1.717  0.5286 -0.3415  0.0297
  133MOL   C27748061   4.760   2.610   1.839 -0.1460 -0.2135 -0.5210
  133MOL   C27848062   4.622   2.663   1.869  0.0299 -1.0419  0.1212
  133MOL   C27948063   4.586   2.786   1.792  0.1638 -0.0325 -0.3264
  133MOL   H28048064   4.666   2.329   1.388  0.8308 -1.3433  0.5786
  133MOL   H28148065   4.676   2.334   1.559 -0.0894  1.1616  0.6084
  133MOL   H28248066   4.788   2.556   1.379  1.3859  1.4418  0.7188
  133MOL   H28348067   4.789   2.539   1.916  0.9540  0.1817 -0.5626
  133MOL   H28448068   4.840   2.684   1.842  1.4988 -1.9579 -0.6774
  133MOL   H28548069   4.560   2.577   1.849 -0.0627 -0.9080 -0.1608
  133MOL   H28648070   4.615   2.684   1.976  1.4046 -2.2062  0.4564
  133MOL   H28748071   4.574   2.769   1.685  1.0373  3.9490 -1.1585
  133MOL   H28848072   4.657   2.863   1.822 -2.0477  2.1429 -0.5440
  133MOL   H28948073   4.491   2.803   1.842  0.9735  1.2585  0.8203
  133MOL   C29048074   4.913   2.409   1.474  0.0264  0.1744  0.1435
  133MOL   C29148075   4.970   2.382   1.340 -0.8467  0.1050 -0.2627
  133MOL   C29248076   5.042   2.503   1.272 -0.1371 -0.2924  0.0577
  133MOL   O29348077   4.994   2.562   1.175  0.4025 -0.7214  0.1098
  133MOL   O29448078   5.159   2.534   1.325 -0.3400  0.3706  0.1643
  133MOL   C29548079   5.237   2.634   1.265  0.5010 -0.6045 -0.5623
  133MOL   C29648080   5.358   2.578   1.188  0.0360 -0.3913  0.3391
  133MOL   C29748081   5.453   2.474   1.249  0.0111 -0.5998  0.5323
  133MOL   H29848082   4.887   2.316   1.525  1.7905  0.1162  0.9438
  133MOL   H29948083   4.992   2.455   1.532  0.8257  1.4235 -1.8682
  133MOL   H30048084   4.894   2.362   1.265 -1.5784  2.4317 -0.1671
  133MOL   H30148085   5.189   2.700   1.193 -1.4140 -1.1307  0.2185
  133MOL   H30248086   5.283   2.702   1.337 -0.6903 -0.5812  0.1728
  133MOL   H30348087   5.317   2.522   1.103  1.6301  1.6978 -1.8609
  133MOL   H30448088   5.418   2.663   1.155 -3.9833  2.7509  0.7787
  133MOL   H30548089   5.407   2.379   1.276  0.0088 -1.1287 -1.2329
  133MOL   H30648090   5.499   2.505   1.343  1.2227 -0.2371 -0.1646
  133MOL   H30748091   5.524   2.460   1.167 -1.2065  0.4700 -0.7439
  133MOL   C30848092   5.068   2.264   1.351  0.4481  0.1627 -0.1535
  133MOL   C30948093   5.014   2.122   1.329  0.2179 -0.7355 -0.4389
  133MOL   C31048094   5.019   2.086   1.184 -0.4086  0.3164  0.3203
  133MOL   O31148095   5.116   2.026   1.140 -0.1611  0.0364 -0.0081
  133MOL   O31248096   4.911   2.126   1.122  0.0590  0.5328  0.0670
  133MOL   C31348097   4.897   2.107   0.980  0.2571 -0.8209 -0.7905
  133MOL   C31448098   4.909   2.254   0.922  0.1750  0.1294  0.3417
  133MOL   C31548099   5.054   2.294   0.894 -0.3864  0.5179  0.8537
  133MOL   H31648100   5.132   2.267   1.439 -1.1781  0.7010  1.0218
  133MOL   H31748101   5.153   2.282   1.284  1.0582 -0.6807  0.3840
  133MOL   H31848102   4.905   2.130   1.336  0.1147 -1.8029 -0.7319
  133MOL   H31948103   4.980   2.045   0.944  1.8457  1.8615 -1.9226
  133MOL   H32048104   4.801   2.063   0.954 -0.3499 -0.1223  0.2423
  133MOL   H32148105   4.854   2.258   0.828  0.2522 -1.0344  0.2308
  133MOL   H32248106   4.870   2.323   0.996 -0.1277 -0.4309  0.7127
  133MOL   H32348107   5.071   2.399   0.871 -0.2934  0.3361  0.0643
  133MOL   H32448108   5.120   2.285   0.980 -2.2040 -0.3212  2.1785
  133MOL   H32548109   5.092   2.234   0.811 -0.9835 -0.7503  1.4900
  133MOL   C32648110   5.079   2.018   1.422 -0.0576  0.4450  0.3619
  133MOL   C32748111   5.022   2.025   1.562 -0.2092 -0.0600  0.0149
  133MOL   C32848112   4.872   2.005   1.577  0.7921 -0.5886 -0.5586
  133MOL   O32948113   4.813   2.082   1.654 -0.3138 -0.1590  0.3026
  133MOL   O33048114   4.825   1.915   1.492  0.4471 -0.3884  0.1306
  133MOL   C33148115   4.683   1.897   1.487  0.3532 -0.8745  0.2762
  133MOL   C33248116   4.617   2.013   1.420  0.3561  0.0907  0.1400
  133MOL   C33348117   4.471   1.991   1.376  0.4891  0.1079 -1.0557
  133MOL   H33448118   5.184   2.041   1.408 -0.0502 -0.5163 -1.2206
  133MOL   H33548119   5.069   1.916   1.384  0.9963  0.5589 -0.2240
  133MOL   H33648120   5.049   2.123   1.602 -0.7516 -0.2955  0.9850
  133MOL   H33748121   4.660   1.807   1.431 -3.7449 -0.6604  1.5001
  133MOL   H33848122   4.640   1.878   1.585 -1.6115  1.8432 -0.0241
  133MOL   H33948123   4.612   2.088   1.499  1.1763 -0.1725  0.4557
  133MOL   H34048124   4.679   2.047   1.337  0.7644  0.7906  0.7289
  133MOL   H34148125   4.465   1.920   1.294  3.1460 -0.6776 -0.6345
  133MOL   H34248126   4.411   1.947   1.455 -0.8630  0.5383 -1.8239
  133MOL   H34348127   4.419   2.083   1.348  1.3674  1.5385  1.8156
  133MOL   C34448128   5.090   1.929   1.654 -0.0714  0.0601  0.1145
  133MOL   C34548129   5.066   1.942   1.807  0.1202 -0.0326  0.6303
  133MOL   C34648130   5.117   2.076   1.859  0.0308  0.4113 -0.0478
  133MOL   O34748131   5.231   2.120   1.847 -0.1301 -0.3514 -0.3378
  133MOL   O34848132   5.020   2.152   1.914 -0.1343 -0.5117 -0.5629
  133MOL   C34948133   5.055   2.276   1.966  0.4028  0.3456 -0.0948
  133MOL   C35048134   5.045   2.377   1.846  0.3663 -0.1406 -0.8169
  133MOL   C35148135   5.060   2.518   1.901 -0.1292 -0.6268  0.0290
  133MOL   H35248136   5.198   1.941   1.645 -0.0370  1.1541  1.7782
  133MOL   H35348137   5.064   1.827   1.627  0.1134  0.1271 -0.3162
  133MOL   H35448138   5.101   1.858   1.867 -1.3432 -0.4875  0.8639
  133MOL   H35548139   4.987   2.303   2.046  1.9291  0.9455  1.0309
  133MOL   H35648140   5.156   2.287   2.007 -0.1205  0.2089  1.2568
  133MOL   H35748141   5.123   2.360   1.771  0.0565  0.2030 -1.2185
  133MOL   H35848142   4.946   2.376   1.801  0.8020  2.2264 -1.9370
  133MOL   H35948143   4.990   2.537   1.982  1.4024  1.1842  0.9716
  133MOL   H36048144   5.162   2.532   1.936  0.4951  0.8519 -2.2266
  133MOL   H36148145   5.043   2.596   1.827  3.6532 -0.6489 -0.9673
  133MOL   H36248146   4.959   1.944   1.827 -0.4613 -1.8762 -1.9728
  134MOL     C148147   3.742   0.413   2.516 -0.1986 -0.0698 -0.0903
  134MOL     C248148   3.727   0.487   2.645  0.4605  0.6394  0.1232
  134MOL     C348149   3.864   0.492   2.718 -0.7313  0.0958 -0.1969
  134MOL     O448150   3.889   0.426   2.814 -0.5984 -0.3143 -0.7816
  134MOL     O548151   3.952   0.577   2.657  0.3877 -0.0201 -0.2733
  134MOL     C648152   4.089   0.578   2.695  0.1250  0.1030 -0.7009
  134MOL     C748153   4.168   0.689   2.620 -0.5851 -0.5240  0.0060
  134MOL     C848154   4.191   0.664   2.476 -0.3811 -0.2247  0.1538
  134MOL     H948155   3.650   0.398   2.460 -0.1416  0.4868 -0.3429
  134MOL    H1048156   3.811   0.465   2.449 -1.7559  1.8879 -0.2145
  134MOL    H1148157   3.653   0.436   2.709 -0.6977  1.0326 -0.8876
  134MOL    H1248158   4.096   0.600   2.801 -0.5954 -1.0387 -0.4070
  134MOL    H1348159   4.133   0.479   2.695  2.1511  0.8784  3.8575
  134MOL    H1448160   4.110   0.781   2.630 -0.4744 -0.3212 -1.1477
  134MOL    H1548161   4.265   0.699   2.670 -2.0712  0.8120  2.7376
  134MOL    H1648162   4.097   0.671   2.421  0.7342  0.3719 -1.7383
  134MOL    H1748163   4.252   0.746   2.438 -0.4787 -0.4704 -0.5406
  134MOL    H1848164   4.243   0.572   2.447 -2.0010 -0.4749 -2.1429
  134MOL    H1948165   3.791   0.318   2.537 -0.6461  0.0506  1.5631
  134MOL    C2048166   3.660   0.626   2.627  0.3433  0.2619 -0.0316
  134MOL    C2148167   3.619   0.701   2.752 -0.3506  0.2740  0.1496
  134MOL    C2248168   3.566   0.844   2.719 -0.3539 -1.8764  1.0074
  134MOL    O2348169   3.613   0.947   2.771  0.8903 -0.0018 -0.6450
  134MOL    O2448170   3.459   0.837   2.627 -0.0436  0.0872  0.2848
  134MOL    C2548171   3.417   0.962   2.574  0.1320  0.3729  0.3760
  134MOL    C2648172   3.274   0.981   2.622 -0.9984  0.7851  0.3792
  134MOL    C2748173   3.257   0.976   2.770 -0.2029 -0.2775 -0.3364
  134MOL    H2848174   3.561   0.618   2.581  0.5257  1.0271 -0.5850
  134MOL    H2948175   3.736   0.687   2.577  0.9974 -0.1032  0.5133
  134MOL    H3048176   3.708   0.719   2.814 -2.2028  1.2811  2.6087
  134MOL    H3148177   3.472   1.052   2.602  0.7308 -0.0084  0.4353
  134MOL    H3248178   3.418   0.959   2.465 -0.5973  0.8960  0.3476
  134MOL    H3348179   3.243   1.074   2.575 -1.6254  0.5897  0.4074
  134MOL    H3448180   3.204   0.907   2.583 -2.6256  2.1619  0.6421
  134MOL    H3548181   3.171   1.032   2.806  1.1775  0.2217  2.2938
  134MOL    H3648182   3.344   1.017   2.821 -0.8676  0.5141  0.1601
  134MOL    H3748183   3.247   0.872   2.800 -0.4455 -0.1770 -0.0684
  134MOL    C3848184   3.520   0.619   2.835  0.0089  0.0582 -0.0025
  134MOL    C3948185   3.451   0.688   2.955 -0.0798  0.4875 -0.3878
  134MOL    C4048186   3.333   0.597   3.010  0.0134  0.5720 -0.4220
  134MOL    O4148187   3.215   0.626   2.990 -0.6354 -0.6983  0.5046
  134MOL    O4248188   3.366   0.493   3.074  0.5397  0.3754  0.3224
  134MOL    C4348189   3.277   0.390   3.103  0.2936  0.1214  0.0928
  134MOL    C4448190   3.337   0.252   3.078 -0.0269 -0.2889 -0.0542
  134MOL    C4548191   3.379   0.236   2.932 -0.8094 -1.1315  0.4690
  134MOL    H4648192   3.575   0.533   2.873 -0.3807  0.0807  0.6204
  134MOL    H4748193   3.440   0.584   2.771  0.6766 -0.8336 -0.3518
  134MOL    H4848194   3.402   0.774   2.908 -0.8364  0.7290  0.8415
  134MOL    H4948195   3.237   0.393   3.204  1.9588 -0.9260  0.8105
  134MOL    H5048196   3.193   0.391   3.034  1.4389  1.4654 -1.3259
  134MOL    H5148197   3.407   0.217   3.153 -0.5752  0.7720  0.9563
  134MOL    H5248198   3.263   0.174   3.098  0.4062 -0.5831  0.4011
  134MOL    H5348199   3.438   0.148   2.911  1.3031  0.2897  0.3157
  134MOL    H5448200   3.443   0.321   2.906  0.7940 -1.7305  2.3961
  134MOL    H5548201   3.302   0.242   2.855 -0.0138 -0.6724 -0.3022
  134MOL    C5648202   3.557   0.727   3.064  0.1282 -0.0582 -0.2363
  134MOL    C5748203   3.520   0.847   3.163  0.3070 -1.3518  0.1844
  134MOL    C5848204   3.407   0.816   3.267  0.6819  0.5128  0.3311
  134MOL    O5948205   3.300   0.872   3.273 -0.3010  0.4366  0.3488
  134MOL    O6048206   3.433   0.717   3.351 -0.2871 -0.1408 -0.3617
  134MOL    C6148207   3.355   0.694   3.467 -0.1338  0.5065 -0.8380
  134MOL    C6248208   3.408   0.794   3.575 -0.6346 -0.4867 -0.4374
  134MOL    C6348209   3.344   0.768   3.707 -0.2329  0.7708 -0.5319
  134MOL    H6448210   3.655   0.747   3.021 -0.3951  2.4939 -0.3410
  134MOL    H6548211   3.565   0.638   3.127 -0.6710  0.6946  0.9490
  134MOL    H6648212   3.477   0.916   3.091 -1.5254 -1.5916  1.0187
  134MOL    H6748213   3.247   0.697   3.456 -0.3583 -1.0722  0.6692
  134MOL    H6848214   3.384   0.594   3.500 -0.2576  0.0407 -2.1302
  134MOL    H6948215   3.515   0.773   3.582 -0.1663  1.5362 -1.1178
  134MOL    H7048216   3.377   0.891   3.535 -1.8415 -0.1627  1.2281
  134MOL    H7148217   3.380   0.682   3.764 -0.0864 -0.2070 -2.0956
  134MOL    H7248218   3.236   0.753   3.694  0.4442 -3.5324 -1.7950
  134MOL    H7348219   3.352   0.850   3.779 -1.8328 -1.8321  2.8141
  134MOL    C7448220   3.642   0.914   3.230 -0.1759  0.4275  0.1764
  134MOL    C7548221   3.701   1.033   3.146  0.2598  0.2202 -0.6817
  134MOL    C7648222   3.626   1.163   3.168 -0.2481  0.5343 -0.0192
  134MOL    O7748223   3.680   1.268   3.211  0.3470  0.2988  0.4940
  134MOL    O7848224   3.494   1.148   3.133 -0.1739  0.1227 -0.3159
  134MOL    C7948225   3.404   1.244   3.171 -0.5898 -0.3189  0.3157
  134MOL    C8048226   3.314   1.272   3.049  0.0682  0.4611 -0.0692
  134MOL    C8148227   3.378   1.349   2.931  0.2544 -0.4977 -0.3400
  134MOL    H8248228   3.722   0.844   3.253  1.7603  2.1410 -1.1725
  134MOL    H8348229   3.616   0.951   3.329  1.9502  2.2372  0.0762
  134MOL    H8448230   3.681   1.003   3.044 -2.2672 -0.2396 -0.0730
  134MOL    H8548231   3.349   1.192   3.251 -0.8483 -1.9409 -0.8862
  134MOL    H8648232   3.444   1.336   3.214  0.3077 -0.6290  0.1485
  134MOL    H8748233   3.280   1.178   3.007  1.9539 -0.8081  1.1875
  134MOL    H8848234   3.241   1.343   3.088 -0.3437  1.4938 -2.5858
  134MOL    H8948235   3.466   1.303   2.886  2.4388  0.0402  3.1772
  134MOL    H9048236   3.406   1.448   2.969 -2.1354  1.3252 -3.0555
  134MOL    H9148237   3.303   1.351   2.852  0.7714  0.5544 -0.8289
  134MOL    C9248238   3.855   1.031   3.150  0.4025 -0.6270  0.1812
  134MOL    C9348239   3.935   0.907   3.092  0.6709  0.0642  0.0216
  134MOL    C9448240   3.945   0.906   2.939  0.2551  0.0721  0.1547
  134MOL    O9548241   3.911   0.803   2.877  0.0189 -1.0778  0.1959
  134MOL    O9648242   3.991   1.030   2.887 -0.1902  0.9842 -0.1571
  134MOL    C9748243   3.939   1.070   2.760 -0.2476  0.0119 -0.9900
  134MOL    C9848244   3.921   1.228   2.764  0.6453 -0.4410  0.8430
  134MOL    C9948245   3.796   1.266   2.847  0.1358  0.0289  0.1934
  134MOL   H10048246   3.878   1.027   3.257  0.9410  2.3652  0.2338
  134MOL   H10148247   3.894   1.126   3.113 -2.6598  0.7375  0.3285
  134MOL   H10248248   3.889   0.813   3.121  0.4373 -0.0203 -0.6081
  134MOL   H10348249   4.000   1.053   2.671  1.1530 -0.1162 -0.0199
  134MOL   H10448250   3.839   1.033   2.739  0.0760 -0.3774 -1.8847
  134MOL   H10548251   4.005   1.291   2.791  1.4467 -0.9933 -0.3137
  134MOL   H10648252   3.903   1.260   2.661 -1.8787 -0.5403  1.2071
  134MOL   H10748253   3.767   1.371   2.852 -1.1011 -0.2475 -0.8518
  134MOL   H10848254   3.810   1.228   2.948 -2.0222 -0.1773  0.4435
  134MOL   H10948255   3.707   1.220   2.804  1.2438  0.0143 -2.1985
  134MOL   C11048256   4.073   0.896   3.152 -0.6696  0.7329 -0.4223
  134MOL   C11148257   4.170   1.011   3.128  0.0085 -0.3655 -0.7217
  134MOL   C11248258   4.227   1.054   3.268 -0.5725 -0.4462 -0.1335
  134MOL   O11348259   4.189   1.160   3.318 -1.1095 -0.4610  0.3426
  134MOL   O11448260   4.311   0.963   3.324  0.3644  0.4276 -0.2265
  134MOL   C11548261   4.361   0.981   3.456  0.6213 -0.2481  0.4634
  134MOL   C11648262   4.514   0.971   3.454 -0.3810  0.2532  0.2555
  134MOL   C11748263   4.569   0.966   3.593  0.3908 -0.8364  0.9735
  134MOL   H11848264   4.128   0.805   3.129  1.6328  1.9103  0.1808
  134MOL   H11948265   4.058   0.887   3.259 -0.2402 -1.4455 -0.5291
  134MOL   H12048266   4.115   1.097   3.089 -0.4907 -0.4128 -0.1224
  134MOL   H12148267   4.326   1.071   3.507 -0.8639 -0.8353  0.5200
  134MOL   H12248268   4.325   0.896   3.515  0.6572 -0.1207  0.6694
  134MOL   H12348269   4.547   0.885   3.395 -1.0906  0.7704 -0.9221
  134MOL   H12448270   4.552   1.054   3.394  0.2627  0.6113  1.1507
  134MOL   H12548271   4.522   1.045   3.650 -1.1604 -0.2499 -1.0382
  134MOL   H12648272   4.678   0.967   3.603  0.2660  1.7745  2.2046
  134MOL   H12748273   4.537   0.872   3.639  0.4568 -1.1913  0.3079
  134MOL   C12848274   4.287   0.966   3.033  0.3290  0.1901  0.2251
  134MOL   C12948275   4.389   1.074   3.006 -0.2908 -0.5240  0.0719
  134MOL   C13048276   4.516   1.003   2.959  0.1903 -0.2971 -0.1903
  134MOL   O13148277   4.613   0.995   3.037  0.0734  0.1487 -0.2723
  134MOL   O13248278   4.511   0.962   2.833  0.0939  0.2427 -0.0873
  134MOL   C13348279   4.604   0.874   2.779  0.4055 -0.3700 -0.7355
  134MOL   C13448280   4.587   0.837   2.630 -0.0049 -0.1485 -0.4248
  134MOL   C13548281   4.598   0.970   2.546 -0.1603  0.4237 -0.5344
  134MOL   H13648282   4.245   0.931   2.939  0.2054 -2.2123  1.1613
  134MOL   H13748283   4.328   0.877   3.080 -1.4213 -2.4350 -3.0921
  134MOL   H13848284   4.409   1.121   3.102  3.7970 -2.0204  0.0334
  134MOL   H13948285   4.694   0.932   2.797 -0.2559  0.0143  1.5235
  134MOL   H14048286   4.614   0.779   2.833 -3.2788  0.3919  1.4752
  134MOL   H14148287   4.668   0.772   2.597 -0.8072 -1.2018 -0.3206
  134MOL   H14248288   4.489   0.791   2.621 -0.6785  1.2073 -0.1366
  134MOL   H14348289   4.600   0.957   2.438 -0.5947  0.0720 -0.5030
  134MOL   H14448290   4.691   1.026   2.556 -1.9454  3.2081  1.4938
  134MOL   H14548291   4.515   1.039   2.563  0.3036  1.0014 -0.6079
  134MOL   C14648292   4.331   1.184   2.903 -0.1260 -0.6161 -0.6849
  134MOL   C14748293   4.443   1.286   2.866  0.0526 -1.0045 -0.1238
  134MOL   C14848294   4.382   1.366   2.748 -0.7288 -0.0675 -0.7695
  134MOL   O14948295   4.415   1.338   2.631 -0.4964 -0.2866  0.2096
  134MOL   O15048296   4.286   1.454   2.785  0.1415  0.0011 -0.1795
  134MOL   C15148297   4.261   1.564   2.697 -0.0429 -0.1661  0.3804
  134MOL   C15248298   4.115   1.624   2.719  0.2197 -0.0097  0.0495
  134MOL   C15348299   4.078   1.728   2.611 -0.3522  0.3093 -0.0837
  134MOL   H15448300   4.251   1.233   2.958  1.5463  1.7616 -0.2631
  134MOL   H15548301   4.289   1.141   2.813 -0.9321  1.4759 -1.3377
  134MOL   H15648302   4.527   1.230   2.824  0.2042  0.3687 -1.7014
  134MOL   H15748303   4.338   1.641   2.703  0.9572 -0.9854 -1.4728
  134MOL   H15848304   4.273   1.537   2.592 -1.5020  0.4779  0.0533
  134MOL   H15948305   4.036   1.549   2.712 -2.0416  2.4284 -1.2271
  134MOL   H16048306   4.117   1.673   2.817 -0.6500 -1.3013  0.7384
  134MOL   H16148307   4.094   1.691   2.509 -2.5112 -1.6597  0.2497
  134MOL   H16248308   4.157   1.803   2.615  0.1964 -0.2749  0.1786
  134MOL   H16348309   3.980   1.774   2.626 -1.1277 -0.2300 -3.0466
  134MOL   C16448310   4.485   1.375   2.978 -0.0424  0.3025  0.4989
  134MOL   C16548311   4.639   1.420   2.978 -0.1887 -0.3155 -0.4789
  134MOL   C16648312   4.649   1.514   2.855  0.4413 -0.6081  0.9024
  134MOL   O16748313   4.711   1.476   2.751  0.1863 -0.8808 -0.1057
  134MOL   O16848314   4.593   1.634   2.870 -0.8473  0.2407  0.5519
  134MOL   C16948315   4.632   1.735   2.781  0.0293  0.7870 -0.4524
  134MOL   C17048316   4.624   1.865   2.857  0.3394 -0.0283  0.0616
  134MOL   C17148317   4.744   1.891   2.951 -0.0415  0.2120  0.3219
  134MOL   H17248318   4.470   1.327   3.075  1.7971 -0.5167  0.3988
  134MOL   H17348319   4.422   1.463   2.982 -0.2801  0.2133 -1.3033
  134MOL   H17448320   4.699   1.332   2.953  0.6306  0.3799 -0.9698
  134MOL   H17548321   4.737   1.712   2.765  0.0473 -0.8069  1.7441
  134MOL   H17648322   4.557   1.731   2.701  0.9628  0.3339 -1.3102
  134MOL   H17748323   4.628   1.938   2.775  1.8890 -2.0080 -1.6894
  134MOL   H17848324   4.537   1.872   2.922  1.4333 -0.1191  1.5538
  134MOL   H17948325   4.738   1.822   3.035  0.4582 -0.3486 -0.1010
  134MOL   H18048326   4.751   1.990   2.995 -1.1349 -0.1939  1.4381
  134MOL   H18148327   4.835   1.869   2.896 -2.2501 -1.1451 -2.9328
  134MOL   C18248328   4.684   1.480   3.117 -0.0532 -0.1391 -0.3629
  134MOL   C18348329   4.829   1.530   3.144 -0.0764  0.2350  0.4410
  134MOL   C18448330   4.831   1.587   3.285 -0.1653 -0.5271 -1.2400
  134MOL   O18548331   4.754   1.558   3.379  0.1962 -0.0401  0.2866
  134MOL   O18648332   4.926   1.679   3.303  0.8124 -0.2416 -0.0074
  134MOL   C18748333   4.936   1.764   3.413 -0.1287 -0.5989  0.4170
  134MOL   C18848334   5.017   1.895   3.393 -0.1217  0.2422 -0.1251
  134MOL   C18948335   5.167   1.863   3.369  0.1067  0.4116  0.3935
  134MOL   H19048336   4.659   1.404   3.190  4.1777 -1.6362 -0.3214
  134MOL   H19148337   4.618   1.563   3.142  0.2157 -0.2992  0.9125
  134MOL   H19248338   4.844   1.621   3.086 -0.8665  1.3880  2.0243
  134MOL   H19348339   4.834   1.788   3.443  0.9054  2.2087  1.7701
  134MOL   H19448340   4.982   1.702   3.489 -0.2389 -0.2657  0.7560
  134MOL   H19548341   4.978   1.946   3.305  0.3820  1.2285  0.2201
  134MOL   H19648342   5.020   1.966   3.476  0.1072 -0.5955  0.5918
  134MOL   H19748343   5.216   1.955   3.336 -0.6696  1.1020  1.1453
  134MOL   H19848344   5.188   1.800   3.282 -2.5017  1.2291 -0.8594
  134MOL   H19948345   5.219   1.821   3.455 -0.9970  0.7108  1.2066
  134MOL   C20048346   4.937   1.424   3.113  0.5884 -0.1839  0.7696
  134MOL   C20148347   5.008   1.458   2.984 -0.2895  0.1204 -0.2179
  134MOL   C20248348   5.102   1.584   2.986 -0.3111  0.1799  0.1591
  134MOL   O20348349   5.065   1.691   2.947  0.0669  0.0692 -0.5248
  134MOL   O20448350   5.228   1.561   3.040  0.2437  0.3261  0.0181
  134MOL   C20548351   5.318   1.668   3.038  0.1854  0.1726 -0.1640
  134MOL   C20648352   5.425   1.650   3.144 -0.7281 -0.6979  0.5331
  134MOL   C20748353   5.545   1.737   3.125 -1.0727 -0.4515 -0.0136
  134MOL   H20848354   4.883   1.331   3.096 -1.6680  0.6013  3.3937
  134MOL   H20948355   5.000   1.404   3.199 -0.8784 -0.7711  1.7111
  134MOL   H21048356   4.939   1.463   2.899 -0.5784 -2.7162 -0.1811
  134MOL   H21148357   5.358   1.664   2.936 -1.8365  0.1441 -0.9796
  134MOL   H21248358   5.261   1.761   3.049  0.5902  0.2605  1.2993
  134MOL   H21348359   5.379   1.668   3.242 -1.2496  1.2515 -0.0511
  134MOL   H21448360   5.468   1.550   3.157 -2.0681 -1.1576  1.6233
  134MOL   H21548361   5.612   1.723   3.210 -0.4252  0.1977 -0.4106
  134MOL   H21648362   5.510   1.840   3.125  0.8216  0.2050 -0.0099
  134MOL   H21748363   5.585   1.715   3.026 -0.2855 -0.5072  0.3126
  134MOL   C21848364   5.094   1.331   2.955 -0.0183  0.0199 -0.0597
  134MOL   C21948365   5.025   1.198   2.902 -0.4971 -0.3320 -0.5464
  134MOL   C22048366   4.958   1.215   2.765 -0.0734 -0.6109 -0.1212
  134MOL   O22148367   4.853   1.163   2.739 -0.1303 -0.0462  0.0958
  134MOL   O22248368   5.038   1.286   2.679  0.8039  0.1778 -0.4813
  134MOL   C22348369   4.980   1.330   2.560  0.2681  0.1719 -0.7178
  134MOL   C22448370   5.049   1.453   2.497 -0.3073  0.2147  0.3923
  134MOL   C22548371   5.004   1.471   2.349  0.1534  0.0123  0.2483
  134MOL   H22648372   5.155   1.303   3.041 -1.3089 -1.2391  0.4656
  134MOL   H22748373   5.170   1.364   2.884  1.3402 -1.1970  0.8059
  134MOL   H22848374   4.940   1.176   2.966  1.1548 -2.2734  1.0910
  134MOL   H22948375   4.974   1.250   2.486 -1.1369 -0.6060  0.2036
  134MOL   H23048376   4.877   1.358   2.585  0.6094  1.5017 -0.7843
  134MOL   H23148377   5.027   1.541   2.558 -0.4550 -0.1867  0.9194
  134MOL   H23248378   5.155   1.427   2.492 -0.3437 -0.5627  2.6849
  134MOL   H23348379   4.992   1.375   2.298  0.7456  0.6747 -1.1514
  134MOL   H23448380   5.055   1.541   2.283  1.4573  0.5136  1.7611
  134MOL   H23548381   4.905   1.516   2.359  1.1295  2.5559 -1.1566
  134MOL   C23648382   5.123   1.077   2.897  0.6617 -0.4154 -0.1466
  134MOL   C23748383   5.203   1.043   3.026 -0.2180  0.6452 -0.1052
  134MOL   C23848384   5.114   0.962   3.124  0.2084  0.0449 -0.3696
  134MOL   O23948385   5.111   0.834   3.131 -0.0553 -0.2909 -0.5855
  134MOL   O24048386   5.044   1.048   3.198 -0.0860  0.6172 -0.0732
  134MOL   C24148387   4.972   0.990   3.305  0.1139 -0.5335 -0.3055
  134MOL   C24248388   4.981   1.075   3.433  0.7734 -0.6283 -0.5018
  134MOL   C24348389   4.890   1.201   3.436 -0.8858  0.2113 -0.2890
  134MOL   H24448390   5.181   1.092   2.807  3.0224 -1.3198  1.1711
  134MOL   H24548391   5.063   0.992   2.864  0.5790  0.3186 -1.9324
  134MOL   H24648392   5.235   1.133   3.079  0.4128  0.0590  0.5109
  134MOL   H24748393   4.867   0.978   3.279 -0.2954 -0.1730  1.1293
  134MOL   H24848394   5.011   0.892   3.334  0.3096 -0.2192  0.5141
  134MOL   H24948395   4.944   1.016   3.517  0.7219 -0.7054 -0.5790
  134MOL   H25048396   5.083   1.113   3.445  0.2780  0.4658  0.3392
  134MOL   H25148397   4.906   1.263   3.525  1.9130  0.1074 -0.6833
  134MOL   H25248398   4.788   1.163   3.438 -0.7002 -0.2630  0.4355
  134MOL   H25348399   4.913   1.254   3.344 -1.6859 -1.9152 -1.7438
  134MOL   C25448400   5.330   0.966   2.992 -0.7910  0.1762  0.1151
  134MOL   C25548401   5.442   0.957   3.103 -0.6165  0.6481  0.4718
  134MOL   C25648402   5.424   0.828   3.188 -0.2345 -0.7566  0.0598
  134MOL   O25748403   5.382   0.849   3.308 -0.0979 -0.0631  0.5794
  134MOL   O25848404   5.443   0.712   3.121  0.2617 -0.1201 -0.4362
  134MOL   C25948405   5.400   0.593   3.189 -0.2857  0.6300  0.3448
  134MOL   C26048406   5.296   0.517   3.102 -0.0564  0.1823  0.5021
  134MOL   C26148407   5.367   0.460   2.981  0.3429 -0.7274  0.3918
  134MOL   H26248408   5.375   1.012   2.904 -1.8670 -0.5292 -0.8125
  134MOL   H26348409   5.297   0.870   2.952  1.4059 -0.0369 -1.2879
  134MOL   H26448410   5.426   1.041   3.171 -3.4290  0.4958  0.0769
  134MOL   H26548411   5.486   0.529   3.211 -0.0622  0.1719 -1.7451
  134MOL   H26648412   5.357   0.617   3.286 -2.1456  1.6320 -0.7030
  134MOL   H26748413   5.255   0.432   3.155 -0.3155 -2.4467 -3.6941
  134MOL   H26848414   5.210   0.578   3.074  0.4087  1.4863  1.8213
  134MOL   H26948415   5.440   0.382   3.002  2.0762  0.8979  0.5042
  134MOL   H27048416   5.426   0.539   2.934 -0.7668 -0.2699 -0.2433
  134MOL   H27148417   5.299   0.415   2.909  1.3541 -0.7000 -0.6018
  134MOL   C27248418   5.585   0.965   3.043  0.0123  0.1865 -0.2629
  134MOL   C27348419   5.696   1.016   3.144 -0.1436 -0.8672 -0.3043
  134MOL   C27448420   5.828   1.010   3.071  0.3247 -0.2605  0.2525
  134MOL   O27548421   5.919   0.933   3.092  0.2080  0.5302  0.0040
  134MOL   O27648422   5.837   1.097   2.967 -0.3483 -0.0651  0.0421
  134MOL   C27748423   5.965   1.129   2.914  0.6199  0.9111  0.2173
  134MOL   C27848424   5.960   1.108   2.763 -0.3961  0.1020 -0.1591
  134MOL   C27948425   5.929   0.966   2.717  0.4333  0.3760  0.3428
  134MOL   H28048426   5.586   1.031   2.956 -0.2155 -0.3028 -0.6376
  134MOL   H28148427   5.614   0.862   3.021  0.4563  0.2078  0.2202
  134MOL   H28248428   5.706   0.936   3.217  0.4604 -0.5336 -0.0243
  134MOL   H28348429   5.980   1.231   2.947  2.4954  0.0037  2.3172
  134MOL   H28448430   6.052   1.084   2.962  0.7831  0.6188 -0.3544
  134MOL   H28548431   5.883   1.175   2.724  0.3354  0.3253 -1.2265
  134MOL   H28648432   6.061   1.131   2.729 -0.6049  1.0239 -0.1695
  134MOL   H28748433   5.862   0.920   2.790 -2.0765  1.6675 -1.0852
  134MOL   H28848434   6.014   0.898   2.707  0.6586  0.9838 -2.4408
  134MOL   H28948435   5.886   0.963   2.617 -1.5514 -2.7736  1.2232
  134MOL   C29048436   5.667   1.157   3.211 -0.6592  0.3072  0.3828
  134MOL   C29148437   5.741   1.179   3.347 -0.2180 -0.1469  0.4182
  134MOL   C29248438   5.703   1.073   3.449 -0.1003 -0.8626  0.0013
  134MOL   O29348439   5.779   0.982   3.476  0.0403 -0.0121 -0.0419
  134MOL   O29448440   5.575   1.087   3.495  0.1927 -0.3420 -0.7195
  134MOL   C29548441   5.533   0.979   3.576  0.1848  0.0231 -0.1264
  134MOL   C29648442   5.394   0.999   3.626  0.3084  0.1250  0.7063
  134MOL   C29748443   5.375   1.119   3.714  0.1429 -0.2969  0.0947
  134MOL   H29848444   5.564   1.182   3.238 -0.2634  2.4181  0.0598
  134MOL   H29948445   5.686   1.230   3.132  1.0684 -1.1590 -0.5782
  134MOL   H30048446   5.693   1.272   3.377 -0.3620 -0.4528  1.1411
  134MOL   H30148447   5.539   0.885   3.521 -0.7257 -0.4047  0.4908
  134MOL   H30248448   5.598   0.961   3.662  0.0313  0.7904  0.1548
  134MOL   H30348449   5.332   1.018   3.539  1.5837 -1.7045 -0.6280
  134MOL   H30448450   5.356   0.908   3.672  2.2191 -2.1662 -2.0646
  134MOL   H30548451   5.421   1.108   3.812  0.5862  0.0798 -0.0707
  134MOL   H30648452   5.270   1.149   3.724  0.4024  0.3790  0.7957
  134MOL   H30748453   5.426   1.204   3.670 -1.4098  0.4704 -0.2595
  134MOL   C30848454   5.899   1.200   3.332 -0.0888  0.4457  0.9727
  134MOL   C30948455   5.974   1.293   3.433  0.4234 -0.1352 -0.4096
  134MOL   C31048456   5.920   1.437   3.439  0.0125  0.7727 -0.2479
  134MOL   O31148457   5.987   1.528   3.400  0.2522 -0.2443  0.5215
  134MOL   O31248458   5.793   1.461   3.503  0.0317  0.4051 -0.1890
  134MOL   C31348459   5.739   1.593   3.507 -0.5510 -0.1640 -0.4881
  134MOL   C31448460   5.589   1.597   3.495  0.3157 -0.2073 -0.1111
  134MOL   C31548461   5.522   1.739   3.501  0.4473 -0.3349 -0.0141
  134MOL   H31648462   5.914   1.231   3.228  2.5844 -1.2430  0.7923
  134MOL   H31748463   5.951   1.104   3.329  1.8985  1.3962  3.7043
  134MOL   H31848464   6.075   1.305   3.394  0.1562  1.7731 -0.5479
  134MOL   H31948465   5.763   1.629   3.608 -0.9229  0.9280 -0.7849
  134MOL   H32048466   5.784   1.667   3.441  0.5765 -0.0210  0.4195
  134MOL   H32148467   5.558   1.557   3.399  0.9724  0.8117 -0.7577
  134MOL   H32248468   5.543   1.530   3.568  0.2610  0.6204  0.6317
  134MOL   H32348469   5.413   1.735   3.510  0.4653 -0.2230  0.2567
  134MOL   H32448470   5.546   1.783   3.598 -1.5239 -1.2651  0.9521
  134MOL   H32548471   5.567   1.807   3.429  0.4419 -0.4405 -0.1178
  134MOL   C32648472   5.979   1.239   3.580 -0.3212  0.7383 -0.0356
  134MOL   C32748473   6.080   1.126   3.606  0.1338 -0.3950  0.1373
  134MOL   C32848474   6.226   1.172   3.578  0.5571 -0.4886 -1.4163
  134MOL   O32948475   6.300   1.119   3.488 -0.1109  0.2950  0.6676
  134MOL   O33048476   6.270   1.264   3.671 -0.5511  0.0710  0.1609
  134MOL   C33148477   6.374   1.350   3.631 -0.8209 -0.0329 -0.2836
  134MOL   C33248478   6.514   1.308   3.684 -0.6205 -0.1065 -0.5619
  134MOL   C33348479   6.519   1.313   3.841 -0.0002  0.1174 -0.2018
  134MOL   H33448480   5.877   1.215   3.612 -0.1254 -2.0956 -1.3560
  134MOL   H33548481   6.022   1.310   3.650  1.2947 -0.7412  0.5012
  134MOL   H33648482   6.069   1.043   3.537 -2.1956  0.9815 -1.1859
  134MOL   H33748483   6.373   1.349   3.522 -1.6464  1.2529 -0.3051
  134MOL   H33848484   6.353   1.452   3.663  0.8406 -0.2558  1.6251
  134MOL   H33948485   6.549   1.213   3.643 -0.6227  0.0530 -0.9358
  134MOL   H34048486   6.577   1.386   3.643 -0.1799 -0.1001  0.1162
  134MOL   H34148487   6.610   1.269   3.882 -0.5852 -0.3225  0.6515
  134MOL   H34248488   6.522   1.415   3.878 -0.4384  0.3718 -0.8568
  134MOL   H34348489   6.442   1.270   3.906 -0.5859 -1.2891 -1.7928
  134MOL   C34448490   6.063   1.069   3.752  0.2339  0.5368 -0.5832
  134MOL   C34548491   6.138   0.937   3.788  0.1280 -0.5011  0.9559
  134MOL   C34648492   6.081   0.804   3.735  0.2106 -0.3639 -0.6861
  134MOL   O34748493   6.051   0.708   3.805  0.1097 -0.5352 -0.0932
  134MOL   O34848494   6.073   0.805   3.602  0.4026 -0.2099  0.0293
  134MOL   C34948495   6.038   0.695   3.525 -0.3234 -0.1431 -0.5744
  134MOL   C35048496   6.023   0.728   3.381  0.5464 -0.1059  0.2655
  134MOL   C35148497   6.153   0.783   3.307 -0.1071  0.3503 -0.8588
  134MOL   H35248498   5.960   1.036   3.755  0.5993 -0.5430  1.0659
  134MOL   H35348499   6.075   1.142   3.833 -0.6137  0.5211 -0.4472
  134MOL   H35448500   6.131   0.920   3.896 -1.9153  0.3057  0.9767
  134MOL   H35548501   6.116   0.622   3.547 -0.7083 -0.3823  0.0347
  134MOL   H35648502   5.941   0.657   3.556 -1.5027  0.4818 -3.3309
  134MOL   H35748503   5.974   0.649   3.324 -1.2964  1.0571  0.2043
  134MOL   H35848504   5.943   0.801   3.389 -0.2439 -1.0943  1.5738
  134MOL   H35948505   6.127   0.808   3.204 -0.6941 -0.4057 -0.9033
  134MOL   H36048506   6.194   0.869   3.360  0.3728  0.8108 -1.9726
  134MOL   H36148507   6.237   0.716   3.288 -0.4777 -0.5328  0.5088
  134MOL   H36248508   6.245   0.943   3.769  0.5038  0.8494  3.2867
  135MOL     C148509   6.856   3.984   0.813 -0.0366  0.2101  0.0148
  135MOL     C248510   6.751   3.878   0.829 -0.1337  0.8613  0.1099
  135MOL     C348511   6.819   3.740   0.834 -1.0510  1.3543  0.6989
  135MOL     O448512   6.779   3.643   0.766  0.1456 -0.7765  0.0975
  135MOL     O548513   6.934   3.732   0.907  0.3971 -0.5297  0.6435
  135MOL     C648514   6.976   3.606   0.954 -0.2725 -0.3864  0.2248
  135MOL     C748515   7.065   3.643   1.074  0.2789  0.5108  0.7943
  135MOL     C848516   7.179   3.544   1.096 -0.1056  0.1412 -0.7928
  135MOL     H948517   6.813   4.074   0.769  0.1232 -0.1460 -0.8917
  135MOL    H1048518   6.903   4.002   0.909  2.2668  0.4089 -1.1098
  135MOL    H1148519   6.707   3.870   0.730  0.6211 -0.9070 -0.1033
  135MOL    H1248520   6.888   3.553   0.993 -2.4037  0.8256 -2.7414
  135MOL    H1348521   7.029   3.553   0.875  1.2844  0.7339  0.4930
  135MOL    H1448522   7.117   3.732   1.038 -1.1617  0.0057 -2.7221
  135MOL    H1548523   7.004   3.662   1.163 -0.5179 -0.3478  0.4404
  135MOL    H1648524   7.225   3.513   1.002  0.5734 -0.3041 -0.3138
  135MOL    H1748525   7.257   3.592   1.155  0.6493 -2.5090  0.4375
  135MOL    H1848526   7.163   3.461   1.164  0.1558  0.3867 -0.4289
  135MOL    H1948527   6.930   3.952   0.740  0.3280  1.4427 -0.1557
  135MOL    C2048528   6.651   3.906   0.943  0.5206  0.0394 -0.2319
  135MOL    C2148529   6.581   4.045   0.933 -0.0017  0.3228  0.6320
  135MOL    C2248530   6.447   4.038   0.861  0.1735  0.0648  1.5895
  135MOL    O2348531   6.345   4.071   0.920  0.0621  0.9547 -0.0360
  135MOL    O2448532   6.461   3.983   0.740  0.3082 -0.3477  0.7736
  135MOL    C2548533   6.352   3.930   0.671  0.9437  0.3167 -0.0457
  135MOL    C2648534   6.395   3.874   0.541 -0.5002 -0.0997 -0.0119
  135MOL    C2748535   6.287   3.798   0.456 -0.2729  0.2172 -0.7097
  135MOL    H2848536   6.699   3.892   1.040 -1.0535 -0.5553  0.4888
  135MOL    H2948537   6.569   3.834   0.946 -0.0961  0.6732 -1.3315
  135MOL    H3048538   6.642   4.113   0.873 -0.5328  0.3624  0.1306
  135MOL    H3148539   6.313   3.853   0.737 -0.7636  0.8943 -0.3689
  135MOL    H3248540   6.275   4.006   0.662  0.1783 -0.4355  0.0833
  135MOL    H3348541   6.437   3.953   0.480 -1.4504  0.5464  0.1787
  135MOL    H3448542   6.477   3.808   0.573  0.8777  0.2068 -2.7702
  135MOL    H3548543   6.210   3.754   0.519 -1.6502  0.6900 -2.0161
  135MOL    H3648544   6.339   3.719   0.403  0.8885  1.6910 -1.8158
  135MOL    H3748545   6.245   3.862   0.378 -0.0986  0.2616 -0.7668
  135MOL    C3848546   6.573   4.124   1.063 -0.3162  0.1729  0.0103
  135MOL    C3948547   6.707   4.148   1.133 -0.6449 -0.0603  0.0303
  135MOL    C4048548   6.797   4.243   1.043  0.4241  0.2137  0.1122
  135MOL    O4148549   6.750   4.329   0.969 -0.0481 -0.2877 -0.5766
  135MOL    O4248550   6.927   4.222   1.067 -0.2242 -0.1705 -0.5560
  135MOL    C4348551   7.026   4.305   1.007  0.0437 -0.2788 -0.6406
  135MOL    C4448552   7.075   4.388   1.123  0.2141 -0.3471  0.8186
  135MOL    C4548553   7.187   4.478   1.082 -0.0957 -0.4304 -0.4044
  135MOL    H4648554   6.505   4.078   1.135  3.3815 -1.9140  2.2979
  135MOL    H4748555   6.529   4.221   1.040 -3.3346 -0.6886  1.8491
  135MOL    H4848556   6.763   4.055   1.127 -2.2651 -0.9896 -0.9671
  135MOL    H4948557   7.105   4.238   0.974  1.6658  0.2992  1.9357
  135MOL    H5048558   6.980   4.364   0.927  0.6529  0.1970 -0.6431
  135MOL    H5148559   7.005   4.458   1.168 -1.0599  0.2987 -2.0913
  135MOL    H5248560   7.100   4.319   1.203 -0.1772  0.1791  1.3972
  135MOL    H5348561   7.159   4.545   1.001  0.0114 -0.0570 -0.1368
  135MOL    H5448562   7.278   4.427   1.051  0.8615  0.3090  1.1093
  135MOL    H5548563   7.218   4.539   1.167 -5.7941  1.0566  0.8488
  135MOL    C5648564   6.692   4.211   1.274  0.4539 -0.2436  0.2542
  135MOL    C5748565   6.604   4.135   1.383  0.2722  0.6962 -0.4865
  135MOL    C5848566   6.650   3.997   1.419  0.6533 -0.2960  0.2716
  135MOL    O5948567   6.592   3.899   1.369  0.1923  0.4331 -0.4399
  135MOL    O6048568   6.758   3.993   1.488 -0.0411  0.4695  0.4349
  135MOL    C6148569   6.848   3.887   1.495 -0.8237  0.5166  0.4090
  135MOL    C6248570   6.951   3.888   1.383  0.2077 -0.3088 -0.4378
  135MOL    C6348571   7.031   4.019   1.360 -0.0264 -0.4850  0.1871
  135MOL    H6448572   6.627   4.297   1.259  1.7297  0.7809  0.5955
  135MOL    H6548573   6.784   4.242   1.322  1.4516 -1.0603 -1.0909
  135MOL    H6648574   6.503   4.121   1.346  0.3573  0.1298 -0.5072
  135MOL    H6748575   6.894   3.885   1.593  2.6712 -0.5577 -1.1483
  135MOL    H6848576   6.787   3.797   1.490 -1.6785  1.1467 -0.6618
  135MOL    H6948577   7.017   3.804   1.404 -0.4680 -0.6433  0.3692
  135MOL    H7048578   6.891   3.880   1.293  0.4514 -0.0498 -0.6260
  135MOL    H7148579   7.108   4.011   1.283 -0.6718  3.1321 -0.9272
  135MOL    H7248580   7.086   4.044   1.450 -1.6074 -1.6422  1.5129
  135MOL    H7348581   6.968   4.102   1.328  1.4819  0.5627 -0.1342
  135MOL    C7448582   6.598   4.219   1.515 -0.1675  0.3421  0.3186
  135MOL    C7548583   6.517   4.352   1.511 -0.7397 -1.1866  0.3701
  135MOL    C7648584   6.366   4.348   1.527 -0.2143 -0.3244  0.3281
  135MOL    O7748585   6.289   4.393   1.440  0.4183 -0.0893  0.1725
  135MOL    O7848586   6.329   4.299   1.643  0.1287  0.2730  0.4071
  135MOL    C7948587   6.189   4.275   1.668 -0.0119  0.4136 -0.1218
  135MOL    C8048588   6.182   4.123   1.711 -0.0481 -0.0752 -0.1888
  135MOL    C8148589   6.212   4.026   1.601 -0.8283  0.9534 -0.1857
  135MOL    H8248590   6.699   4.237   1.550  0.0701  0.5182 -0.4524
  135MOL    H8348591   6.542   4.171   1.596  1.0928  0.3637  1.2079
  135MOL    H8448592   6.524   4.392   1.409 -1.2452  0.4439  0.9554
  135MOL    H8548593   6.161   4.339   1.751  0.1823 -0.2728  0.4767
  135MOL    H8648594   6.137   4.297   1.575 -0.0780 -0.7185 -0.3689
  135MOL    H8748595   6.249   4.113   1.796  1.9907  0.1129 -1.7350
  135MOL    H8848596   6.087   4.094   1.757 -0.4932  1.2340 -0.2536
  135MOL    H8948597   6.306   4.036   1.547 -0.4166  0.2205  0.3848
  135MOL    H9048598   6.157   4.040   1.508  0.5769  0.3124 -1.1227
  135MOL    H9148599   6.192   3.921   1.623 -0.6213  0.5443 -1.9339
  135MOL    C9248600   6.589   4.445   1.608 -0.3936  0.6262 -1.1354
  135MOL    C9348601   6.720   4.521   1.555 -0.4065 -1.2168  0.6136
  135MOL    C9448602   6.681   4.626   1.442 -0.6271 -0.1218 -0.1183
  135MOL    O9548603   6.702   4.740   1.466 -0.0724 -0.1446 -0.0186
  135MOL    O9648604   6.635   4.572   1.323 -0.6478  0.0065 -0.2137
  135MOL    C9748605   6.590   4.655   1.220  0.1402 -0.3265 -0.4950
  135MOL    C9848606   6.439   4.632   1.195 -0.7743  0.0121 -0.1195
  135MOL    C9948607   6.424   4.501   1.107  0.8582  0.3125  0.0028
  135MOL   H10048608   6.605   4.386   1.698  2.1609  0.1786 -1.8493
  135MOL   H10148609   6.519   4.517   1.651 -1.2201  0.5922 -2.4056
  135MOL   H10248610   6.780   4.447   1.501  0.7857  0.0209  0.2032
  135MOL   H10348611   6.602   4.760   1.247  1.1393 -0.1563 -1.5412
  135MOL   H10448612   6.643   4.646   1.125  2.6774  0.0195  0.8398
  135MOL   H10548613   6.398   4.609   1.293 -1.6691 -0.0562 -0.5115
  135MOL   H10648614   6.388   4.710   1.138 -2.8880 -1.2955 -0.0584
  135MOL   H10748615   6.479   4.509   1.014  0.5787  0.0330 -0.1836
  135MOL   H10848616   6.321   4.481   1.080  1.3419 -1.7020 -0.4075
  135MOL   H10948617   6.460   4.415   1.163 -0.3732  0.0832  0.4460
  135MOL   C11048618   6.809   4.578   1.663 -0.1228  0.6607  0.2008
  135MOL   C11148619   6.873   4.469   1.755 -0.0149  0.0159  0.3449
  135MOL   C11248620   6.962   4.368   1.677  0.7838 -0.2065  0.1609
  135MOL   O11348621   6.936   4.245   1.683 -0.7870  0.3319 -0.4237
  135MOL   O11448622   7.057   4.422   1.603  0.0064 -0.0661 -0.4198
  135MOL   C11548623   7.130   4.345   1.516  0.7254  0.3383  0.1007
  135MOL   C11648624   7.254   4.423   1.469  0.6204  0.4363  0.6911
  135MOL   C11748625   7.357   4.450   1.585  0.1065  0.4338 -0.5360
  135MOL   H11848626   6.745   4.648   1.717  0.5949  1.8270 -0.4421
  135MOL   H11948627   6.888   4.645   1.628  0.1360  0.9943  1.4080
  135MOL   H12048628   6.789   4.412   1.794 -1.0454  1.0303 -0.3590
  135MOL   H12148629   7.153   4.253   1.571  2.2752  0.6316 -0.0268
  135MOL   H12248630   7.076   4.324   1.424 -0.2406  0.3884  0.6499
  135MOL   H12348631   7.302   4.371   1.386  0.9984  1.6972  0.1073
  135MOL   H12448632   7.222   4.519   1.428 -0.9483 -0.8295 -1.1558
  135MOL   H12548633   7.326   4.542   1.634  0.5642  0.1958  0.2191
  135MOL   H12648634   7.453   4.439   1.534  0.3880 -0.6475  0.2156
  135MOL   H12748635   7.363   4.368   1.656 -0.2711 -0.8084 -1.9241
  135MOL   C12848636   6.950   4.532   1.868 -0.2668  0.6953 -0.2029
  135MOL   C12948637   7.015   4.440   1.978  0.1773 -0.2606 -0.3385
  135MOL   C13048638   7.159   4.491   2.000  1.0642  0.3631  0.1848
  135MOL   O13148639   7.251   4.421   1.951 -0.8033  0.6038 -0.0888
  135MOL   O13248640   7.176   4.613   2.050 -0.1713  0.4296 -0.1416
  135MOL   C13348641   7.304   4.677   2.064 -0.7934  0.8890  0.1836
  135MOL   C13448642   7.287   4.830   2.087 -0.4504 -0.4288  0.0605
  135MOL   C13548643   7.223   4.874   2.218 -0.4593 -0.0066  0.0733
  135MOL   H13648644   6.887   4.601   1.924  0.6515  1.2201  0.2040
  135MOL   H13748645   7.029   4.590   1.821  0.9651 -0.5121  0.3263
  135MOL   H13848646   7.040   4.344   1.934 -0.9385 -0.4262 -0.6298
  135MOL   H13948647   7.364   4.631   2.142 -2.3917 -1.8644 -0.1346
  135MOL   H14048648   7.353   4.653   1.969  0.5857  0.3365  1.0200
  135MOL   H14148649   7.390   4.863   2.084 -0.4663 -0.3788  0.0860
  135MOL   H14248650   7.251   4.896   2.008 -2.1117 -0.3983  0.8161
  135MOL   H14348651   7.233   4.980   2.241 -1.0041  0.1876 -0.5502
  135MOL   H14448652   7.266   4.817   2.300 -1.1179  1.8548  1.7333
  135MOL   H14548653   7.117   4.846   2.214 -0.4162 -0.0352 -0.9196
  135MOL   C14648654   6.927   4.441   2.105  0.2726 -0.2184 -0.7845
  135MOL   C14748655   6.789   4.359   2.093  0.2373 -0.1677 -0.0955
  135MOL   C14848656   6.792   4.211   2.051 -0.2284 -0.2400  0.1393
  135MOL   O14948657   6.890   4.141   2.076 -0.2175  0.5330  0.0093
  135MOL   O15048658   6.693   4.184   1.967  0.0445  1.0833 -0.2606
  135MOL   C15148659   6.692   4.064   1.887 -0.1489  0.3059  0.3660
  135MOL   C15248660   6.554   4.010   1.883  0.1595 -0.2206 -0.3404
  135MOL   C15348661   6.543   3.867   1.809  0.1224 -0.6171 -0.0400
  135MOL   H15448662   6.899   4.541   2.138  1.6423 -0.5506  1.5191
  135MOL   H15548663   6.980   4.392   2.187  1.2254  0.5930 -0.9122
  135MOL   H15648664   6.742   4.401   2.003 -0.9352 -1.4759 -0.1013
  135MOL   H15748665   6.728   4.079   1.785 -0.6553  0.6768  0.2438
  135MOL   H15848666   6.749   3.982   1.931  0.5327  0.6851  0.1941
  135MOL   H15948667   6.526   3.998   1.988 -1.2594 -1.5070 -0.8578
  135MOL   H16048668   6.485   4.077   1.833 -2.1544 -5.0560 -4.0014
  135MOL   H16148669   6.444   3.824   1.824 -0.0649  0.0106  0.5700
  135MOL   H16248670   6.629   3.808   1.839  1.0433  0.7744  0.1188
  135MOL   H16348671   6.546   3.892   1.703 -0.6527  0.2089  0.1198
  135MOL   C16448672   6.709   4.382   2.218  0.6022 -0.0545  0.5953
  135MOL   C16548673   6.587   4.466   2.183  0.4207 -0.4191 -0.1994
  135MOL   C16648674   6.479   4.388   2.108 -1.1382 -0.6551 -0.4695
  135MOL   O16748675   6.438   4.436   2.008 -0.1633 -0.2826 -0.1027
  135MOL   O16848676   6.435   4.277   2.165  0.5571 -0.1018 -0.0519
  135MOL   C16948677   6.331   4.196   2.109  0.2427 -0.3851  0.1057
  135MOL   C17048678   6.332   4.060   2.179  0.9901  0.3653  0.4737
  135MOL   C17148679   6.250   4.067   2.302  0.2416  0.3763 -0.8550
  135MOL   H17248680   6.769   4.433   2.293 -0.8475  0.7292  1.2474
  135MOL   H17348681   6.681   4.294   2.276 -0.0318  0.0086  0.3917
  135MOL   H17448682   6.617   4.554   2.125  1.1353 -0.0687  0.6837
  135MOL   H17548683   6.237   4.249   2.121 -0.7002 -2.3244  1.6163
  135MOL   H17648684   6.338   4.199   2.000 -0.0180  3.0198  0.1264
  135MOL   H17748685   6.278   3.992   2.114  0.5619  0.1922  1.0030
  135MOL   H17848686   6.435   4.033   2.204  0.7121  1.0308  2.3954
  135MOL   H17948687   6.145   4.097   2.291 -0.0052 -0.5451 -0.9968
  135MOL   H18048688   6.293   4.144   2.366 -2.1908 -0.0306  1.3871
  135MOL   H18148689   6.260   3.978   2.363 -0.3569  1.3032  0.6296
  135MOL   C18248690   6.532   4.537   2.311 -0.1839 -0.2079 -0.0745
  135MOL   C18348691   6.622   4.659   2.363 -0.3947  0.4838  0.2713
  135MOL   C18448692   6.635   4.765   2.250  0.1818 -1.0502 -0.3528
  135MOL   O18548693   6.745   4.797   2.210  0.5597 -0.0497 -0.4082
  135MOL   O18648694   6.521   4.818   2.221 -0.2141 -0.0557 -0.1104
  135MOL   C18748695   6.522   4.924   2.131  0.1489 -0.3179 -0.2169
  135MOL   C18848696   6.518   4.867   1.990 -0.3522  0.1599 -0.3904
  135MOL   C18948697   6.645   4.828   1.918  0.5403  0.0109  0.0747
  135MOL   H19048698   6.505   4.461   2.384  0.7492 -0.8177 -0.3461
  135MOL   H19148699   6.433   4.574   2.286 -0.3517 -0.6424 -0.0461
  135MOL   H19248700   6.721   4.615   2.376 -1.4090 -1.7485  0.6547
  135MOL   H19348701   6.438   4.990   2.151  1.1705  0.7123  0.7563
  135MOL   H19448702   6.607   4.991   2.143 -0.4546  0.1661  1.4520
  135MOL   H19548703   6.437   4.794   1.980  0.9629 -1.4294  0.3909
  135MOL   H19648704   6.485   4.953   1.931 -0.8733  0.5083  0.4039
  135MOL   H19748705   6.639   4.828   1.809  0.3582 -3.2583  0.0478
  135MOL   H19848706   6.688   4.733   1.949  0.5547 -0.7146 -2.0732
  135MOL   H19948707   6.713   4.911   1.941  0.6903 -0.4578  1.3463
  135MOL   C20048708   6.571   4.716   2.482 -0.2433 -0.5932 -0.6860
  135MOL   C20148709   6.600   4.634   2.615  0.4442 -0.5305 -0.1486
  135MOL   C20248710   6.753   4.613   2.647  0.5621 -0.0505  0.4294
  135MOL   O20348711   6.803   4.516   2.702 -1.0451 -0.2702  0.3044
  135MOL   O20448712   6.827   4.720   2.617  0.4615  0.2829  0.1705
  135MOL   C20548713   6.973   4.729   2.622 -0.5001 -0.3202 -0.2235
  135MOL   C20648714   7.029   4.728   2.478  0.2984 -0.1120  0.2911
  135MOL   C20748715   7.031   4.592   2.418 -0.7941 -0.7850 -0.4323
  135MOL   H20848716   6.463   4.726   2.472 -0.4910 -1.3623  1.0460
  135MOL   H20948717   6.614   4.816   2.490 -0.1598 -0.8156  2.0893
  135MOL   H21048718   6.568   4.530   2.606 -1.0277 -0.0157 -1.0225
  135MOL   H21148719   6.996   4.828   2.659 -0.7557  0.1314 -1.2393
  135MOL   H21248720   7.013   4.658   2.695 -0.5602  0.7954  0.8940
  135MOL   H21348721   6.969   4.789   2.411 -0.9264  0.5760  1.9676
  135MOL   H21448722   7.126   4.776   2.486 -0.1341  0.9993 -1.1219
  135MOL   H21548723   7.072   4.609   2.318  0.1602  0.2576  0.1248
  135MOL   H21648724   6.933   4.547   2.405 -0.8230 -0.6815 -0.5690
  135MOL   H21748725   7.100   4.525   2.471  2.8911  1.6904 -1.8851
  135MOL   C21848726   6.527   4.697   2.738  0.3798 -0.3096 -0.2994
  135MOL   C21948727   6.371   4.724   2.720 -0.2334  0.1517 -0.7886
  135MOL   C22048728   6.287   4.590   2.681 -0.0997 -0.6981 -0.3584
  135MOL   O22148729   6.264   4.504   2.762 -0.0571  0.3639 -0.5212
  135MOL   O22248730   6.240   4.587   2.546 -0.3097 -0.8340  0.4223
  135MOL   C22348731   6.166   4.474   2.504 -0.1453 -0.5637 -0.1803
  135MOL   C22448732   6.163   4.453   2.356 -0.4290 -0.2190 -0.1302
  135MOL   C22548733   6.097   4.574   2.275  0.2156  0.1656 -0.2280
  135MOL   H22648734   6.571   4.793   2.764 -0.3672  0.4270 -1.6817
  135MOL   H22748735   6.538   4.626   2.820  0.0810 -1.3046 -1.1022
  135MOL   H22848736   6.363   4.792   2.635  0.9114  2.1787  0.6794
  135MOL   H22948737   6.194   4.385   2.560  2.3245  0.3562  0.1022
  135MOL   H23048738   6.061   4.484   2.532  0.5133  3.5019  1.1903
  135MOL   H23148739   6.263   4.431   2.318 -0.1430 -0.3957  0.7049
  135MOL   H23248740   6.108   4.362   2.332  2.2212 -2.5413  2.1862
  135MOL   H23348741   5.996   4.585   2.315 -0.9731  0.3566 -3.1425
  135MOL   H23448742   6.076   4.554   2.170  1.7795  1.0110 -0.7096
  135MOL   H23548743   6.158   4.663   2.287 -2.2723  1.5848  2.7329
  135MOL   C23648744   6.321   4.801   2.846  0.1276 -0.4297  1.1935
  135MOL   C23748745   6.169   4.818   2.876  0.3683  0.3874  0.5135
  135MOL   C23848746   6.117   4.696   2.958 -0.5067  0.3742 -0.2075
  135MOL   O23948747   6.181   4.651   3.049  0.0839  0.7299  0.0220
  135MOL   O24048748   5.997   4.652   2.916 -0.0787 -0.1050  0.6522
  135MOL   C24148749   5.951   4.532   2.976 -0.0769 -0.1859 -0.3788
  135MOL   C24248750   5.818   4.489   2.905  0.5285 -0.0141  0.3062
  135MOL   C24348751   5.713   4.592   2.942 -0.1523  0.1256  0.7586
  135MOL   H24448752   6.373   4.895   2.827  0.7996 -0.8916  0.7035
  135MOL   H24548753   6.374   4.761   2.932  2.4947 -2.7656 -1.2202
  135MOL   H24648754   6.112   4.834   2.785  0.2844 -2.7668 -0.0254
  135MOL   H24748755   6.027   4.455   2.963  1.8086  1.2358  1.6719
  135MOL   H24848756   5.938   4.549   3.083 -2.0052 -0.6644 -0.5141
  135MOL   H24948757   5.833   4.464   2.800  1.5406 -1.5949  0.8167
  135MOL   H25048758   5.780   4.391   2.935  3.6461 -1.6738 -0.9832
  135MOL   H25148759   5.625   4.574   2.880  1.9755  0.3607 -2.4261
  135MOL   H25248760   5.733   4.695   2.913  1.4601 -0.8631 -1.7772
  135MOL   H25348761   5.690   4.593   3.048  1.5800  0.5492  1.1343
  135MOL   C25448762   6.146   4.944   2.960 -0.0924 -0.3875 -0.3763
  135MOL   C25548763   6.002   4.998   2.977 -0.2233 -0.6011  0.3365
  135MOL   C25648764   5.942   4.969   3.113  0.4835  0.6853  1.1651
  135MOL   O25748765   5.903   5.062   3.186 -0.1119  0.3149  0.0127
  135MOL   O25848766   5.921   4.837   3.144  0.0866 -0.0645 -0.5795
  135MOL   C25948767   5.858   4.805   3.267 -0.3564  0.1371 -0.7163
  135MOL   C26048768   5.954   4.727   3.355  0.8460 -1.0510  0.2349
  135MOL   C26148769   5.900   4.682   3.489 -0.5834  0.2226  0.1172
  135MOL   H26248770   6.204   5.017   2.903  2.4374 -0.9766  1.3288
  135MOL   H26348771   6.196   4.948   3.057 -3.1036 -2.3723  1.3186
  135MOL   H26448772   5.947   4.927   2.914  0.8413 -0.2349 -1.0261
  135MOL   H26548773   5.811   4.891   3.313  1.3953  0.0945  1.2106
  135MOL   H26648774   5.776   4.734   3.251  1.2519 -1.5444 -1.7057
  135MOL   H26748775   5.989   4.638   3.304 -0.8119 -1.7297  0.2733
  135MOL   H26848776   6.044   4.789   3.363 -0.0980  0.5366 -1.0156
  135MOL   H26948777   5.835   4.755   3.537 -1.0117 -0.8701  1.2031
  135MOL   H27048778   5.984   4.654   3.551 -0.8445  0.1415  0.4326
  135MOL   H27148779   5.843   4.590   3.477  0.3254 -0.2022 -1.1173
  135MOL   C27248780   5.974   5.142   2.917  0.2412 -0.3122  0.6597
  135MOL   C27348781   5.848   5.143   2.835  0.3563  0.0343  0.0485
  135MOL   C27448782   5.778   5.274   2.836  0.1599  1.0165  0.5950
  135MOL   O27548783   5.654   5.278   2.834  0.2421 -0.2334  0.3548
  135MOL   O27648784   5.860   5.386   2.838 -0.0589 -0.1168 -0.2541
  135MOL   C27748785   5.804   5.512   2.832  0.6364 -0.2900  0.5241
  135MOL   C27848786   5.912   5.615   2.813 -0.3844 -0.1584  1.2209
  135MOL   C27948787   5.985   5.584   2.684 -0.1909 -0.0838  0.2600
  135MOL   H28048788   6.053   5.178   2.851 -0.5567  0.2971  0.0281
  135MOL   H28148789   5.985   5.215   2.997 -2.0894 -0.0211  0.7409
  135MOL   H28248790   5.789   5.078   2.899 -0.0799  0.6323  0.2540
  135MOL   H28348791   5.737   5.524   2.748  1.0751 -2.7719 -0.2066
  135MOL   H28448792   5.741   5.534   2.918 -0.5124 -0.5013 -0.2619
  135MOL   H28548793   5.884   5.720   2.800  2.7884  0.4310 -1.3577
  135MOL   H28648794   5.992   5.607   2.887 -0.0095  1.8785  1.0749
  135MOL   H28748795   5.918   5.558   2.602  0.9100 -0.9169 -0.4017
  135MOL   H28848796   6.051   5.497   2.690 -0.3849 -0.1743  1.1022
  135MOL   H28948797   6.047   5.670   2.659 -1.1029 -0.2139 -2.6051
  135MOL   C29048798   5.876   5.100   2.695 -0.1895  0.4038  1.1930
  135MOL   C29148799   5.752   5.057   2.604  0.7411 -0.0574  0.3256
  135MOL   C29248800   5.787   5.085   2.453  0.3064  0.4587  0.0356
  135MOL   O29348801   5.730   5.173   2.386  0.0769  0.4131  0.1905
  135MOL   O29448802   5.890   5.000   2.409 -0.1680 -0.1156 -0.1372
  135MOL   C29548803   5.947   5.041   2.290 -0.1635  0.2693 -0.8641
  135MOL   C29648804   6.052   4.936   2.242 -0.0329  0.1025  0.0619
  135MOL   C29748805   6.119   4.978   2.104  0.3105  0.0045  0.5255
  135MOL   H29848806   5.939   5.014   2.718 -0.2522 -0.2126 -0.8493
  135MOL   H29948807   5.939   5.176   2.649 -1.1752  0.8662  0.5911
  135MOL   H30048808   5.670   5.125   2.627  1.6410  0.9115  0.6732
  135MOL   H30148809   5.867   5.052   2.217  1.5050 -0.7117 -2.8971
  135MOL   H30248810   5.989   5.141   2.299 -1.2401  0.6021  0.5902
  135MOL   H30348811   6.120   4.914   2.324  0.6024  0.9149 -0.2381
  135MOL   H30448812   6.003   4.840   2.224  0.1215 -0.2060  1.2227
  135MOL   H30548813   6.042   4.996   2.029  0.2389 -2.6912 -0.1010
  135MOL   H30648814   6.196   4.906   2.074  1.3724  2.1929 -2.2145
  135MOL   H30748815   6.169   5.074   2.118  0.9986 -0.2675  0.0079
  135MOL   C30848816   5.711   4.920   2.629  0.3705  0.6036  0.7174
  135MOL   C30948817   5.588   4.865   2.546 -0.6020  0.0823  0.3556
  135MOL   C31048818   5.575   4.715   2.585  0.2955 -0.0942 -0.6187
  135MOL   O31148819   5.510   4.689   2.682  0.3794  0.8255 -0.0864
  135MOL   O31248820   5.644   4.623   2.509 -0.2052  0.1682  0.4871
  135MOL   C31348821   5.648   4.484   2.534 -0.0130 -0.5247  0.9331
  135MOL   C31448822   5.734   4.423   2.429 -0.4829 -0.8602 -0.1368
  135MOL   C31548823   5.785   4.284   2.462  0.4682  0.1718  0.5886
  135MOL   H31648824   5.681   4.903   2.733 -0.7387  2.4309  0.7094
  135MOL   H31748825   5.791   4.847   2.618 -1.2876 -0.9313 -1.6097
  135MOL   H31848826   5.608   4.852   2.440 -0.5828  1.6118  0.1565
  135MOL   H31948827   5.695   4.474   2.632 -0.4160 -0.2308  1.1571
  135MOL   H32048828   5.550   4.437   2.541  0.3186 -1.2480  0.7743
  135MOL   H32148829   5.675   4.419   2.337 -2.1840 -0.5414  0.9331
  135MOL   H32248830   5.820   4.490   2.420 -1.4079  0.5687  1.4732
  135MOL   H32348831   5.855   4.238   2.392 -0.3171  1.6121 -1.1893
  135MOL   H32448832   5.830   4.284   2.561  1.0368 -0.0484  0.3295
  135MOL   H32548833   5.707   4.210   2.479  1.6961 -1.4609 -0.6920
  135MOL   C32648834   5.456   4.942   2.553  0.1713  0.2531  0.1197
  135MOL   C32748835   5.341   4.862   2.483  1.0505 -0.1321 -0.3830
  135MOL   C32848836   5.202   4.925   2.530 -0.0136 -0.1813  0.1984
  135MOL   O32948837   5.139   4.997   2.455  0.0758 -0.4726 -0.2720
  135MOL   O33048838   5.177   4.896   2.656  0.6442 -0.2282 -0.0395
  135MOL   C33148839   5.054   4.937   2.720 -0.4854  0.1263 -0.0109
  135MOL   C33248840   5.023   4.839   2.840  0.4139 -0.5221 -0.1150
  135MOL   C33348841   4.979   4.698   2.792 -0.6039 -0.3065 -0.3730
  135MOL   H33448842   5.468   5.042   2.513 -1.4922  0.5994  0.4836
  135MOL   H33548843   5.424   4.955   2.657 -0.9578  0.6308 -0.2726
  135MOL   H33648844   5.336   4.764   2.531  2.0539  0.6943  1.4527
  135MOL   H33748845   5.061   5.039   2.758  0.6052  0.4910 -1.1682
  135MOL   H33848846   4.967   4.943   2.655 -0.5232 -1.0665 -0.0712
  135MOL   H33948847   5.111   4.836   2.904 -1.3228 -1.8776  2.2654
  135MOL   H34048848   4.947   4.884   2.903  1.2778  1.8087 -0.6770
  135MOL   H34148849   5.054   4.652   2.728 -1.3484 -1.0978 -0.6879
  135MOL   H34248850   4.953   4.634   2.875 -1.2376  0.8186  0.3172
  135MOL   H34348851   4.889   4.703   2.729 -2.4770 -0.3172  2.2334
  135MOL   C34448852   5.372   4.844   2.336 -0.3770  0.1333 -0.4003
  135MOL   C34548853   5.267   4.790   2.249  0.3868  0.8983  0.1743
  135MOL   C34648854   5.201   4.668   2.305  0.2637  0.5581  0.1625
  135MOL   O34748855   5.267   4.563   2.331 -0.1833 -0.1579  0.0974
  135MOL   O34848856   5.070   4.686   2.314  0.9042 -0.1803  0.4361
  135MOL   C34948857   4.985   4.589   2.373  0.0106  0.7764 -0.2097
  135MOL   C35048858   4.837   4.613   2.329 -0.0002  0.1316 -0.1378
  135MOL   C35148859   4.770   4.731   2.395  0.4211  0.3342 -0.1790
  135MOL   H35248860   5.465   4.791   2.311  0.9294  1.6924  1.0214
  135MOL   H35348861   5.389   4.945   2.301  1.1450 -0.3739 -1.2029
  135MOL   H35448862   5.298   4.756   2.150  0.9413  1.9544 -0.0225
  135MOL   H35548863   5.021   4.490   2.345  1.4875  1.5893 -1.2572
  135MOL   H35648864   4.993   4.609   2.480  1.5457  0.4360 -0.2543
  135MOL   H35748865   4.840   4.627   2.220 -0.3327  0.1432 -0.1442
  135MOL   H35848866   4.779   4.522   2.340 -1.4571  1.1758  0.8770
  135MOL   H35948867   4.802   4.821   2.342 -0.2034  1.3329  1.0933
  135MOL   H36048868   4.661   4.725   2.385  0.1781  2.4619  0.7999
  135MOL   H36148869   4.787   4.749   2.501 -2.4724 -0.1312  0.4064
  135MOL   H36248870   5.187   4.861   2.228  0.1251  0.6221  0.2301
  136MOL     C148871   2.536   7.249   0.270  0.8623 -0.0912  0.0617
  136MOL     C248872   2.461   7.277   0.401 -0.4775 -0.1827 -0.4453
  136MOL     C348873   2.481   7.166   0.509  0.3980  0.5056  0.5152
  136MOL     O448874   2.558   7.160   0.605 -0.4906 -0.2407  0.2625
  136MOL     O548875   2.393   7.069   0.482  0.0274  0.0466  0.4631
  136MOL     C648876   2.402   6.935   0.537  0.0384  0.2649 -0.4311
  136MOL     C748877   2.266   6.860   0.507 -0.7833 -0.5996  0.5157
  136MOL     C848878   2.290   6.732   0.423  0.1712  0.5711  0.1653
  136MOL     H948879   2.643   7.264   0.263  0.8588 -0.9143 -2.2156
  136MOL    H1048880   2.517   7.147   0.237  0.2412  0.7046 -2.1783
  136MOL    H1148881   2.353   7.269   0.383 -0.4714 -1.9739  0.2058
  136MOL    H1248882   2.484   6.886   0.485  0.6428 -0.7825  1.4999
  136MOL    H1348883   2.431   6.933   0.642 -1.0075 -1.9472 -0.1493
  136MOL    H1448884   2.225   6.830   0.604  0.0397  0.3761  1.1876
  136MOL    H1548885   2.201   6.927   0.452 -0.9398 -0.4254  0.9104
  136MOL    H1648886   2.208   6.660   0.416  1.8850 -1.4974  0.8452
  136MOL    H1748887   2.306   6.773   0.323  1.4939 -0.7283 -0.1742
  136MOL    H1848888   2.371   6.673   0.466 -0.7183 -1.4568 -0.8301
  136MOL    H1948889   2.487   7.312   0.195  0.4641 -0.7147 -0.2037
  136MOL    C2048890   2.482   7.420   0.452  0.0064 -0.3263 -0.1511
  136MOL    C2148891   2.429   7.531   0.343 -0.4824 -0.6233 -0.4606
  136MOL    C2248892   2.331   7.623   0.416 -0.4555  0.3938  0.0545
  136MOL    O2348893   2.374   7.707   0.491 -0.1666 -0.4071 -0.7644
  136MOL    O2448894   2.202   7.587   0.403  0.1131  0.3260  0.0164
  136MOL    C2548895   2.104   7.646   0.486 -0.8940  0.4477 -0.3215
  136MOL    C2648896   1.987   7.553   0.524  0.0531  0.3465  0.6945
  136MOL    C2748897   2.029   7.428   0.606  0.1703 -0.6931 -0.4133
  136MOL    H2848898   2.587   7.431   0.479  0.1490  0.3977 -0.9977
  136MOL    H2948899   2.426   7.431   0.545  1.1171 -1.8749  0.7357
  136MOL    H3048900   2.372   7.486   0.261  0.9156 -1.2160 -1.1181
  136MOL    H3148901   2.141   7.687   0.580 -1.4106 -0.2427  0.1874
  136MOL    H3248902   2.056   7.724   0.428 -3.7577  0.6430  2.2106
  136MOL    H3348903   1.909   7.605   0.578 -0.2546 -0.5432  1.1170
  136MOL    H3448904   1.941   7.520   0.431  0.4470  0.3482  0.4978
  136MOL    H3548905   2.069   7.451   0.704 -0.7608 -1.1105  0.0680
  136MOL    H3648906   2.113   7.377   0.558  0.8969 -1.2609  1.4124
  136MOL    H3748907   1.945   7.358   0.615  0.4612 -0.9983 -0.0602
  136MOL    C3848908   2.553   7.602   0.276 -0.3425 -0.6391  0.1952
  136MOL    C3948909   2.518   7.713   0.163  0.4762  0.3433 -0.3775
  136MOL    C4048910   2.638   7.794   0.122  0.0686  0.0378  0.3653
  136MOL    O4148911   2.754   7.748   0.117  0.5267  0.4130 -0.4455
  136MOL    O4248912   2.602   0.040   0.100  0.8146  0.1115  0.4406
  136MOL    C4348913   2.704   0.140   0.083  0.3707  0.9912  0.1797
  136MOL    C4448914   2.659   0.284   0.065  1.0697  0.2510 -0.0000
  136MOL    C4548915   2.570   0.313   7.822  0.1433 -0.0505  0.6480
  136MOL    H4648916   2.630   7.531   0.248  0.0330 -0.0639 -0.2571
  136MOL    H4748917   2.588   7.668   0.356 -2.0993 -1.8309  2.0085
  136MOL    H4848918   2.437   7.772   0.204 -1.6298 -0.3767 -3.3171
  136MOL    H4948919   2.766   0.137   0.173  0.4904  2.6008  0.1539
  136MOL    H5048920   2.767   0.112   7.879 -1.4591 -3.2503  0.0529
  136MOL    H5148921   2.610   0.307   0.160  0.7245 -0.2123 -0.0659
  136MOL    H5248922   2.755   0.335   0.065  0.3361  1.6839  1.0281
  136MOL    H5348923   2.560   0.419   7.803 -0.2535 -0.4457 -1.5031
  136MOL    H5448924   2.471   0.267   7.817  0.8895 -1.5882 -0.4671
  136MOL    H5548925   2.621   0.272   7.734  0.3555  0.6661  0.4385
  136MOL    C5648926   2.459   7.630   0.039  0.1519  0.8397  0.4555
  136MOL    C5748927   2.347   7.699   7.828  0.3166  0.5654  0.1955
  136MOL    C5848928   2.221   7.743   0.022  0.2129  0.0617 -0.4592
  136MOL    O5948929   2.142   7.660   0.056 -0.3094 -0.2956  0.7062
  136MOL    O6048930   2.210   7.876   0.043  0.3376 -0.2394  0.0022
  136MOL    C6148931   2.091   0.049   0.082  0.2111 -0.2746 -0.0071
  136MOL    C6248932   2.040   0.153   7.863 -0.3085 -0.6063  0.1817
  136MOL    C6348933   2.114   0.292   7.867 -0.3707  0.2871  0.7100
  136MOL    H6448934   2.417   7.537   0.076 -1.6575  1.4864  0.0562
  136MOL    H6548935   2.539   7.596   7.853 -0.3684  1.9563 -0.7650
  136MOL    H6648936   2.307   7.630   7.754  1.4424  0.1224 -0.0207
  136MOL    H6748937   2.017   7.851   0.097 -0.3078  0.4316  1.1998
  136MOL    H6848938   2.085   0.099   0.179 -0.6199 -2.3238  1.0300
  136MOL    H6948939   2.058   0.128   7.758  1.5863  1.5409 -0.0292
  136MOL    H7048940   1.931   0.154   7.869 -0.2389 -0.3216  1.4513
  136MOL    H7148941   2.081   0.357   0.067 -3.3634  0.2096 -0.3958
  136MOL    H7248942   2.112   0.350   7.775  1.8001  1.5313  1.4012
  136MOL    H7348943   2.222   0.273   7.870 -0.4227 -0.0760  0.3762
  136MOL    C7448944   2.397   7.799   7.724 -0.0061  0.3543  0.3595
  136MOL    C7548945   2.304   7.852   7.615  0.4922 -0.2444 -0.0527
  136MOL    C7648946   2.366   0.093   7.540  0.0729 -0.0215 -0.0920
  136MOL    O7748947   2.487   0.099   7.510 -0.2723 -0.1992  0.5009
  136MOL    O7848948   2.282   0.195   7.531  0.1062  0.3761  0.3821
  136MOL    C7948949   2.305   0.316   7.459  0.6143  0.8531 -0.0278
  136MOL    C8048950   2.348   0.433   7.549  0.2492  0.5869 -0.5997
  136MOL    C8148951   2.332   0.565   7.472  0.3523  0.2992 -0.0240
  136MOL    H8248952   2.490   7.764   7.677 -1.0389  0.0580 -1.5236
  136MOL    H8348953   2.436   0.001   7.785  2.8913 -1.2957  0.8388
  136MOL    H8448954   2.211   0.009   7.657 -0.4626 -1.5898 -0.9288
  136MOL    H8548955   2.397   0.300   7.403 -0.1099  0.4531 -1.1109
  136MOL    H8648956   2.227   0.346   7.388 -1.0537 -0.3824  1.2547
  136MOL    H8748957   2.279   0.437   7.634  2.3680  1.5676  1.1377
  136MOL    H8848958   2.447   0.428   7.596 -0.7178  1.5708  1.6273
  136MOL    H8948959   2.226   0.571   7.449  0.3941  0.1842 -0.2491
  136MOL    H9048960   2.370   0.549   7.371 -0.1725 -1.6011  0.0674
  136MOL    H9148961   2.363   0.658   7.519 -0.5859  1.5559 -1.8301
  136MOL    C9248962   2.262   7.734   7.519  0.0382  0.1081 -0.4976
  136MOL    C9348963   2.145   7.779   7.424  0.3254 -0.2417  0.6418
  136MOL    C9448964   2.149   7.695   7.297 -0.3103  0.6380  0.2123
  136MOL    O9548965   2.194   7.577   7.294  0.0927  0.1750 -0.1126
  136MOL    O9648966   2.091   7.759   7.187  0.4336  0.2209 -0.6689
  136MOL    C9748967   2.072   7.691   7.066 -0.4605  0.4132 -0.4760
  136MOL    C9848968   1.943   7.728   6.996 -0.3478  0.1577  0.1870
  136MOL    C9948969   1.817   7.679   7.063  0.4584  0.0594  0.1737
  136MOL   H10048970   2.240   7.636   7.562  3.2778 -1.4676 -2.2483
  136MOL   H10148971   2.353   7.719   7.461  2.0140  0.0527  2.5292
  136MOL   H10248972   2.165   0.003   7.401 -2.4825 -0.0230 -1.0551
  136MOL   H10348973   2.168   7.706   7.017 -0.5989  2.3216 -0.2020
  136MOL   H10448974   2.066   7.584   7.088 -0.7909  0.5098 -0.0789
  136MOL   H10548975   1.935   7.836   6.980  1.8779  0.0968 -1.6163
  136MOL   H10648976   1.941   7.699   6.891 -0.1657 -0.8761  0.4704
  136MOL   H10748977   1.825   7.571   7.076  2.4119  0.2984  1.1623
  136MOL   H10848978   1.725   7.692   7.005  0.4454 -1.6900 -0.2505
  136MOL   H10948979   1.817   7.725   7.161 -1.3324 -1.0980  0.7379
  136MOL   C11048980   2.007   7.767   7.495 -0.1006 -0.1314 -0.3143
  136MOL   C11148981   1.904   7.863   7.432 -0.5678 -0.0360 -0.0139
  136MOL   C11248982   1.756   7.824   7.453  0.7349  0.3693 -0.2227
  136MOL   O11348983   1.669   0.027   7.493  0.1135  0.4940  0.3063
  136MOL   O11448984   1.724   7.702   7.411  0.1358 -0.0196  0.6273
  136MOL   C11548985   1.583   7.668   7.417  0.7580 -0.0854  0.0594
  136MOL   C11648986   1.581   7.518   7.383  0.1009  0.1839 -0.2188
  136MOL   C11748987   1.448   7.460   7.428 -0.4931 -0.5405 -0.0328
  136MOL   H11848988   2.017   7.786   7.602 -0.7485 -0.2260 -0.2318
  136MOL   H11948989   1.980   7.661   7.491 -1.9231  0.3875 -3.1105
  136MOL   H12048990   1.910   7.846   7.325 -0.0495  0.0458 -0.0014
  136MOL   H12148991   1.528   7.699   7.505 -1.1763  2.0828 -1.8281
  136MOL   H12248992   1.535   7.723   7.336 -1.9985  0.1171  1.7957
  136MOL   H12348993   1.586   7.496   7.276 -2.2947 -0.4913 -0.2295
  136MOL   H12448994   1.656   7.470   7.446  2.2674  1.3047 -1.8952
  136MOL   H12548995   1.431   7.357   7.397  0.1710 -0.6068 -0.1878
  136MOL   H12648996   1.364   7.516   7.386  0.3978  0.9485  0.1391
  136MOL   H12748997   1.437   7.453   7.537 -0.8428  0.1030 -0.0247
  136MOL   C12848998   1.929   0.137   7.447 -1.0894  0.3221  0.7073
  136MOL   C12948999   1.859   0.233   7.347 -0.1433 -0.2635  0.0290
  136MOL   C13049000   1.885   0.383   7.389 -0.4375  0.1387 -0.4037
  136MOL   O13149001   1.982   0.421   7.454  0.7876  0.3542 -0.0300
  136MOL   O13249002   1.790   0.464   7.340  0.5628 -0.2838 -0.2869
  136MOL   C13349003   1.806   0.608   7.354  0.2070  0.4661 -0.4267
  136MOL   C13449004   1.748   0.689   7.235 -0.4573  0.9302  0.2248
  136MOL   C13549005   1.827   0.680   7.101  1.3027  0.1396 -0.2716
  136MOL   H13649006   2.033   0.171   7.452 -1.2035  0.6419  0.9261
  136MOL   H13749007   1.889   0.163   7.545 -2.6660 -1.2373  0.5002
  136MOL   H13849008   1.755   0.207   7.363  0.5752 -1.7133  2.5410
  136MOL   H13949009   1.753   0.642   7.442  0.4664 -0.8040  0.2279
  136MOL   H14049010   1.909   0.645   7.356 -0.2017  1.5340  0.6094
  136MOL   H14149011   1.646   0.652   7.228  0.1681 -0.9094  0.4597
  136MOL   H14249012   1.747   0.795   7.259  0.6660  0.7839  0.9345
  136MOL   H14349013   1.834   0.578   7.063  1.9028 -0.4041  1.2573
  136MOL   H14449014   1.928   0.712   7.124  0.6725  0.9385  1.5107
  136MOL   H14549015   1.781   0.750   7.032  0.6972 -1.8015 -1.9105
  136MOL   C14649016   1.894   0.211   7.202 -0.6554 -0.4310  0.0440
  136MOL   C14749017   1.772   0.234   7.110  0.3391  0.4384 -0.2089
  136MOL   C14849018   1.784   0.303   6.971 -0.5158  0.8787  0.2244
  136MOL   O14949019   1.897   0.320   6.932  0.0605  0.2562  0.4750
  136MOL   O15049020   1.672   0.362   6.925  0.1486  0.2940  0.4524
  136MOL   C15149021   1.683   0.440   6.803 -0.3370  0.0543 -0.2459
  136MOL   C15249022   1.551   0.503   6.762  0.5771  1.0640  0.1139
  136MOL   C15349023   1.449   0.393   6.715  0.1328  0.4232 -0.0336
  136MOL   H15449024   1.933   0.111   7.179 -0.2816  0.0609 -1.5303
  136MOL   H15549025   1.980   0.265   7.164 -1.8312  1.8018  0.4435
  136MOL   H15649026   1.705   0.300   7.166  0.5747 -0.3041  0.9573
  136MOL   H15749027   1.762   0.514   6.818  0.7439 -1.2287  0.5676
  136MOL   H15849028   1.716   0.371   6.725 -0.7847  0.1769 -0.5491
  136MOL   H15949029   1.518   0.566   6.844 -1.8652 -0.8299  0.6337
  136MOL   H16049030   1.570   0.577   6.685  0.5057 -0.0118 -0.9521
  136MOL   H16149031   1.505   0.318   6.659  1.8945  1.8053 -0.1827
  136MOL   H16249032   1.372   0.432   6.649  0.1776 -0.3743 -0.5647
  136MOL   H16349033   1.390   0.354   6.798 -1.8736  1.7133 -0.8416
  136MOL   C16449034   1.694   0.103   7.086  1.2655  0.2952 -0.2461
  136MOL   C16549035   1.529   0.121   7.068 -0.3009  0.4155 -0.6453
  136MOL   C16649036   1.459   0.001   7.001 -0.0124 -0.5841 -0.9506
  136MOL   O16749037   1.461   7.769   7.053 -0.0499 -0.0220 -0.5117
  136MOL   O16849038   1.406   0.032   6.883 -0.2614  0.0573 -0.6412
  136MOL   C16949039   1.326   7.823   6.808 -0.2246  0.6658 -0.0901
  136MOL   C17049040   1.242   0.028   6.705 -0.2087  0.0375  0.1590
  136MOL   C17149041   1.160   7.816   6.611  0.4408 -0.4489 -0.4884
  136MOL   H17249042   1.711   0.032   7.167  1.9494  0.6391 -0.0856
  136MOL   H17349043   1.734   0.054   6.997 -0.7218 -1.0951 -0.4065
  136MOL   H17449044   1.510   0.202   6.998  2.0788  0.0869 -1.7074
  136MOL   H17549045   1.389   7.751   6.757  3.4533  2.6758  1.4681
  136MOL   H17649046   1.267   7.761   6.877 -2.3303  1.8207 -0.8016
  136MOL   H17749047   1.184   0.097   6.766  0.9177 -0.1008  1.4088
  136MOL   H17849048   1.311   0.086   6.643  0.1168 -0.3636  0.1376
  136MOL   H17949049   1.095   7.865   6.538  0.3716 -0.9101 -0.7398
  136MOL   H18049050   1.088   7.761   6.672  0.7605 -0.0346  0.2727
  136MOL   H18149051   1.228   7.754   6.554  1.5286  2.1051 -2.0715
  136MOL   C18249052   1.462   0.160   7.208 -0.2365 -0.5331  0.3045
  136MOL   C18349053   1.434   0.309   7.237 -0.1584 -0.4016  0.3268
  136MOL   C18449054   1.342   0.368   7.130 -0.4266 -0.2876  0.3446
  136MOL   O18549055   1.372   0.479   7.093  0.2377  0.1670 -0.0439
  136MOL   O18649056   1.242   0.288   7.089 -0.7826 -0.2120  0.6404
  136MOL   C18749057   1.159   0.339   6.985 -0.2716 -0.1847  0.2501
  136MOL   C18849058   1.022   0.289   7.008  0.3265 -0.5445 -0.1753
  136MOL   C18949059   0.935   0.338   6.894  0.4252  0.1553  0.1233
  136MOL   H19049060   1.525   0.130   7.292 -1.5323  0.9336  1.8355
  136MOL   H19149061   1.366   0.109   7.211 -0.3568 -0.4486 -1.4818
  136MOL   H19249062   1.529   0.361   7.227 -0.1433 -0.7426 -1.5911
  136MOL   H19349063   1.153   0.448   6.988 -1.5324 -0.2632  0.9400
  136MOL   H19449064   1.195   0.316   6.884  0.4730 -1.9048  0.8932
  136MOL   H19549065   1.021   0.181   7.020 -0.4515 -0.6268 -0.9529
  136MOL   H19649066   0.987   0.318   7.107  2.6329 -0.5003  0.6688
  136MOL   H19749067   0.976   0.365   6.797 -0.3578 -0.5226 -0.4121
  136MOL   H19849068   0.884   0.428   6.927 -0.3166  0.3863 -1.5611
  136MOL   H19949069   0.860   0.263   6.866  1.4091 -1.0268  0.6436
  136MOL   C20049070   1.394   0.349   7.385  0.0954  0.5586  0.9898
  136MOL   C20149071   1.246   0.312   7.429  0.5094  0.1237 -0.0219
  136MOL   C20249072   1.218   0.163   7.421  0.0290  0.3375  0.4335
  136MOL   O20349073   1.155   0.103   7.339  0.1435 -0.3293 -0.2023
  136MOL   O20449074   1.288   0.095   7.520 -1.3126 -0.7206 -0.3468
  136MOL   C20549075   1.262   7.836   7.526 -0.4743  0.0836 -0.8046
  136MOL   C20649076   1.310   7.792   7.667 -0.5404 -0.0757  0.5659
  136MOL   C20749077   1.239   7.662   7.718  0.1439  0.0909 -0.3613
  136MOL   H20849078   1.406   0.457   7.387  0.7825  0.5082 -0.2697
  136MOL   H20949079   1.456   0.303   7.462  0.3527 -1.6708 -0.4978
  136MOL   H21049080   1.180   0.366   7.362 -0.7258  1.5044  2.2294
  136MOL   H21149081   1.158   7.807   7.511 -1.2108  1.7042  1.0285
  136MOL   H21249082   1.318   7.783   7.449 -1.5638 -1.2372 -0.7073
  136MOL   H21349083   1.418   7.797   7.677 -0.5302  2.2310 -0.3839
  136MOL   H21449084   1.276   7.862   7.743  0.3351 -0.4298  1.2923
  136MOL   H21549085   1.131   7.677   7.717 -0.3917 -3.3291 -0.8385
  136MOL   H21649086   1.261   7.631   7.820  0.1891 -0.0300 -0.4070
  136MOL   H21749087   1.266   7.584   7.647 -0.2648  1.2279 -1.7798
  136MOL   C21849088   1.210   0.377   7.568  0.8912  0.0301  0.9177
  136MOL   C21949089   1.062   0.434   7.581  0.5327 -0.1683 -0.1596
  136MOL   C22049090   0.949   0.343   7.528 -0.5686 -0.8973 -0.2388
  136MOL   O22149091   0.897   0.354   7.415 -0.1959  0.2558  0.0260
  136MOL   O22249092   0.913   0.247   7.618  0.0392  0.4090  0.0376
  136MOL   C22349093   0.843   0.129   7.574  0.0443 -0.1736 -1.0072
  136MOL   C22449094   0.835   0.026   7.681  0.2014  0.0442 -0.4555
  136MOL   C22549095   0.826   7.761   7.637  0.1238  0.0767  0.0298
  136MOL   H22649096   1.289   0.447   7.596  0.9771  0.2325  0.1712
  136MOL   H22749097   1.213   0.309   7.653 -1.6102  1.2273  2.0117
  136MOL   H22849098   1.059   0.517   7.511  1.2502  1.3834  1.6089
  136MOL   H22949099   0.743   0.157   7.540  0.3539  0.8748 -1.0843
  136MOL   H23049100   0.890   0.096   7.482  1.2724 -2.3581  0.3517
  136MOL   H23149101   0.930   0.045   7.731  0.2754 -1.0544 -0.1537
  136MOL   H23249102   0.769   0.047   7.765  0.2363  0.1190 -0.4468
  136MOL   H23349103   0.725   7.734   7.608 -0.9359  1.2424  2.4816
  136MOL   H23449104   0.843   7.696   7.722  1.3620 -1.2245 -1.1814
  136MOL   H23549105   0.898   7.744   7.556  1.1216 -0.1746  0.9549
  136MOL   C23649106   1.026   0.478   7.719 -0.2682  0.1836  0.4950
  136MOL   C23749107   1.090   0.611   7.775  0.1745  0.0618 -0.0819
  136MOL   C23849108   1.024   0.731   7.701  0.0632 -0.0601  0.7479
  136MOL   O23949109   1.073   0.782   7.604  0.7221  0.0111  0.1259
  136MOL   O24049110   0.906   0.768   7.753  0.3153  0.0438  0.1560
  136MOL   C24149111   0.824   0.867   7.691 -0.3733  0.1316 -0.2097
  136MOL   C24249112   0.696   0.854   7.774 -0.3667 -0.1016  0.6242
  136MOL   C24349113   0.606   0.978   7.772 -0.1177  0.5967  0.1005
  136MOL   H24449114   1.049   0.393   7.782 -2.2996 -0.5753  0.2399
  136MOL   H24549115   0.919   0.497   7.731 -0.5119 -0.1483 -1.0639
  136MOL   H24649116   1.197   0.605   7.756  0.6658 -3.9180  3.0765
  136MOL   H24749117   0.864   0.966   7.709 -3.3558  1.0587  1.5755
  136MOL   H24849118   0.813   0.848   7.584 -1.6981  0.7876 -0.1899
  136MOL   H24949119   0.645   0.762   7.748 -0.7448  0.3655 -0.3071
  136MOL   H25049120   0.717   0.826   7.878 -0.0003 -0.7382  0.3827
  136MOL   H25149121   0.583   1.014   7.672 -0.2749  2.3233  0.7398
  136MOL   H25249122   0.639   1.064   7.831 -2.2581  1.8035 -0.3914
  136MOL   H25349123   0.508   0.953   7.814 -1.6196  3.4740 -1.5013
  136MOL   C25449124   1.079   0.607   0.049  0.0385 -0.4462  0.6978
  136MOL   C25549125   1.182   0.702   0.122 -0.2934 -0.7118 -0.4806
  136MOL   C25649126   1.150   0.845   0.088 -0.0326  0.3683 -0.1321
  136MOL   O25749127   1.232   0.917   0.037  0.3406 -0.4054  0.2463
  136MOL   O25849128   1.020   0.875   0.126 -0.0510  0.0595 -0.5304
  136MOL   C25949129   0.977   1.010   0.150  0.6969 -0.1042 -0.4218
  136MOL   C26049130   0.855   1.019   0.243  0.2345 -0.5498 -0.5041
  136MOL   C26149131   0.861   0.925   0.364 -0.1507 -0.1281  0.2840
  136MOL   H26249132   1.089   0.503   0.082 -0.1966 -0.9495 -0.7911
  136MOL   H26349133   0.979   0.639   0.079  0.5169  2.5488 -0.7098
  136MOL   H26449134   1.281   0.686   0.079  0.0239  1.0452 -0.4290
  136MOL   H26549135   1.060   1.069   0.190  3.0424 -2.5958 -1.5288
  136MOL   H26649136   0.949   1.058   0.056 -0.8358  0.0775  0.1097
  136MOL   H26749137   0.816   1.116   0.274  0.3896 -0.4907 -0.4900
  136MOL   H26849138   0.778   0.972   0.182  0.1836 -0.8068 -0.2453
  136MOL   H26949139   0.922   0.962   0.446 -1.3297 -0.0137  1.1288
  136MOL   H27049140   0.901   0.831   0.328  1.6621 -0.2490  2.5075
  136MOL   H27149141   0.769   0.890   0.411  0.2480  0.7562  1.7576
  136MOL   C27249142   1.194   0.672   0.273 -0.2203  0.3679  0.4096
  136MOL   C27349143   1.299   0.744   0.360  0.5477 -0.3684 -0.7465
  136MOL   C27449144   1.289   0.701   0.507  0.2747 -0.0287 -0.3425
  136MOL   O27549145   1.364   0.612   0.557 -0.1128 -0.1775 -0.1680
  136MOL   O27649146   1.179   0.760   0.568 -0.0760  0.1435  0.6541
  136MOL   C27749147   1.149   0.736   0.698 -0.0392  0.4691 -0.4430
  136MOL   C27849148   0.999   0.757   0.713  0.2810  0.1625  0.9803
  136MOL   C27949149   0.918   0.661   0.632 -0.3026  0.1826  0.4050
  136MOL   H28049150   1.199   0.564   0.286  1.0561  0.1812 -1.4677
  136MOL   H28149151   1.091   0.677   0.308 -0.4898  0.0587 -0.3161
  136MOL   H28249152   1.260   0.846   0.361 -2.2614 -1.3881 -0.1812
  136MOL   H28349153   1.174   0.637   0.735  1.9394  0.9541 -0.4390
  136MOL   H28449154   1.199   0.814   0.756  0.5533  0.8128 -1.4091
  136MOL   H28549155   0.982   0.756   0.821 -0.8733 -0.2223  0.8006
  136MOL   H28649156   0.974   0.859   0.684  1.1393 -0.1996 -1.0531
  136MOL   H28749157   0.821   0.702   0.658 -0.0308  0.7195  0.5759
  136MOL   H28849158   0.939   0.556   0.655 -0.9452  0.1372  0.7776
  136MOL   H28949159   0.933   0.679   0.525 -0.4899  0.4230  0.4200
  136MOL   C29049160   1.444   0.731   0.304 -0.4314 -0.2369  0.7741
  136MOL   C29149161   1.544   0.837   0.363  0.1158  0.6975 -0.6013
  136MOL   C29249162   1.628   0.781   0.473  0.7568  0.1531 -0.2696
  136MOL   O29349163   1.733   0.718   0.451 -0.0141 -0.1162  0.0009
  136MOL   O29449164   1.572   0.804   0.592  0.1291  0.0471  0.1489
  136MOL   C29549165   1.636   0.761   0.716 -0.5148  0.0805  0.3171
  136MOL   C29649166   1.568   0.823   0.837 -0.6443  0.3733 -0.4137
  136MOL   C29749167   1.662   0.811   0.959  0.4882 -0.1813  0.6142
  136MOL   H29849168   1.442   0.726   0.195  1.4767  1.0134  0.6590
  136MOL   H29949169   1.478   0.628   0.310  2.1834  0.4155 -1.6523
  136MOL   H30049170   1.489   0.920   0.409  0.9943  1.0078 -0.1033
  136MOL   H30149171   1.619   0.653   0.717 -1.8971  0.2166 -2.8882
  136MOL   H30249172   1.742   0.788   0.706 -1.3080  3.1688 -0.3056
  136MOL   H30349173   1.536   0.925   0.818 -0.9952  0.8960  2.7433
  136MOL   H30449174   1.477   0.763   0.843 -0.5599  0.5019  2.7250
  136MOL   H30549175   1.610   0.825   1.054 -0.4355  0.6156  0.0128
  136MOL   H30649176   1.742   0.885   0.960 -2.7919  3.5642 -0.6494
  136MOL   H30749177   1.712   0.714   0.955  0.6109 -0.0955 -0.1543
  136MOL   C30849178   1.634   0.891   0.249  0.2244 -0.2003 -0.2240
  136MOL   C30949179   1.558   0.967   0.140  0.1708 -0.1277  0.8299
  136MOL   C31049180   1.499   1.091   0.205 -0.0616  1.3300 -0.6178
  136MOL   O31149181   1.382   1.106   0.223 -0.2583  0.0234  0.1857
  136MOL   O31249182   1.591   1.186   0.231  0.0993  0.9547 -0.0517
  136MOL   C31349183   1.548   1.319   0.262  0.3589 -0.1907 -0.1338
  136MOL   C31449184   1.554   1.410   0.137  0.1024  0.2278  0.1372
  136MOL   C31549185   1.545   1.564   0.166  0.3552 -0.2078  0.0707
  136MOL   H31649186   1.676   0.807   0.193  1.3778  0.1118  0.1720
  136MOL   H31749187   1.724   0.934   0.291 -0.4395  0.2520  0.7640
  136MOL   H31849188   1.480   0.901   0.102  1.4284 -0.5159 -1.1620
  136MOL   H31949189   1.450   1.320   0.308  0.2863 -1.2996 -0.2442
  136MOL   H32049190   1.617   1.368   0.331 -0.4110  2.7540 -1.3642
  136MOL   H32149191   1.647   1.403   0.081  0.2267  0.3551  0.3306
  136MOL   H32249192   1.477   1.389   0.063 -0.4142  1.6973  0.2325
  136MOL   H32349193   1.553   1.620   0.074  2.1328 -0.2401  0.1906
  136MOL   H32449194   1.444   1.584   0.204  0.8985  1.3922  0.7064
  136MOL   H32549195   1.619   1.609   0.231 -0.6335  1.9776 -0.2854
  136MOL   C32649196   1.650   0.996   0.019  0.4555  0.2881  0.0179
  136MOL   C32749197   1.586   1.020   7.765 -0.2704 -0.6171  0.0735
  136MOL   C32849198   1.663   1.113   7.671  0.2144 -0.7180  0.4379
  136MOL   O32949199   1.784   1.107   7.650 -0.3017  0.3891  0.4397
  136MOL   O33049200   1.580   1.206   7.621  0.2170  0.3300 -0.2301
  136MOL   C33149201   1.632   1.327   7.588  0.2516  0.3885  0.4253
  136MOL   C33249202   1.536   1.448   7.586 -0.4550 -0.3382 -0.2875
  136MOL   C33349203   1.422   1.424   7.485  1.0301 -0.5957 -0.1561
  136MOL   H33449204   1.722   0.916   0.000  0.5449  0.4979 -0.5511
  136MOL   H33549205   1.710   1.081   0.050 -1.9452  1.5665  1.3304
  136MOL   H33649206   1.491   1.066   7.791 -0.0539 -1.1122  1.7554
  136MOL   H33749207   1.700   1.347   7.671  2.1364  0.3215 -1.0716
  136MOL   H33849208   1.684   1.317   7.493 -1.8222  1.4630 -0.8413
  136MOL   H33949209   1.497   1.456   7.688 -4.0836 -3.2288 -1.3587
  136MOL   H34049210   1.591   1.535   7.549 -0.0788 -0.5716 -0.2771
  136MOL   H34149211   1.393   1.319   7.476 -0.8609 -0.1213  0.0722
  136MOL   H34249212   1.328   1.475   7.506  0.5874 -1.4227 -0.1188
  136MOL   H34349213   1.456   1.449   7.385  0.6496 -1.4136 -0.4929
  136MOL   C34449214   1.547   0.883   7.702 -0.0989  0.0917 -0.6427
  136MOL   C34549215   1.420   0.891   7.612 -0.2124  0.0999  0.1875
  136MOL   C34649216   1.395   0.770   7.523  0.0670  0.3625  0.1170
  136MOL   O34749217   1.421   0.651   7.567 -0.2945  0.3267  0.0831
  136MOL   O34849218   1.321   0.804   7.415  0.6626  0.2773 -0.0291
  136MOL   C34949219   1.267   0.699   7.340  0.3073  0.3713 -0.0512
  136MOL   C35049220   1.134   0.742   7.279  0.2417  0.4561 -0.3943
  136MOL   C35149221   1.145   0.814   7.142  0.3051  0.3824 -0.2363
  136MOL   H35249222   1.519   0.799   7.766  0.1760 -0.0074 -0.6544
  136MOL   H35349223   1.640   0.849   7.657  1.4550  0.9350  1.8471
  136MOL   H35449224   1.416   0.985   7.557 -1.8028 -0.5488 -0.8415
  136MOL   H35549225   1.345   0.672   7.268  0.1093 -0.8654  0.1791
  136MOL   H35649226   1.253   0.614   7.407  1.2874 -0.6456 -1.1055
  136MOL   H35749227   1.072   0.652   7.272  1.0729 -0.1419 -0.1747
  136MOL   H35849228   1.078   0.808   7.345  0.4239 -0.8902  1.1498
  136MOL   H35949229   1.054   0.844   7.091 -0.0346 -1.1874 -0.5720
  136MOL   H36049230   1.212   0.900   7.149  2.1651 -1.1516  1.3992
  136MOL   H36149231   1.195   0.745   7.074 -0.4670  0.2510 -0.6751
  136MOL   H36249232   1.332   0.893   7.676 -1.9980 -1.2537 -2.1863
  137MOL     C149233   4.897   4.626   7.178 -0.2877  0.6219  0.4929
  137MOL     C249234   4.942   4.729   7.069 -0.1408  0.5891 -0.4086
  137MOL     C349235   5.047   4.663   6.975  0.5991  0.1427 -0.0242
  137MOL     O449236   5.157   4.716   6.971  1.0058  0.2144  0.6045
  137MOL     O549237   5.003   4.559   6.909 -0.4385  0.3577 -0.2027
  137MOL     C649238   5.080   4.488   6.817 -0.6240  0.1182  0.8218
  137MOL     C749239   5.048   4.533   6.675 -0.1412 -0.0881 -0.0478
  137MOL     C849240   4.906   4.495   6.635  0.8268 -0.2248  0.1003
  137MOL     H949241   4.988   4.596   7.230 -0.9404  0.7533  1.7242
  137MOL    H1049242   4.850   4.673   7.265  2.4326  1.9669  1.3182
  137MOL    H1149243   4.982   4.814   7.126 -0.6079 -0.0457  0.8927
  137MOL    H1249244   5.184   4.512   6.837  0.0900 -1.1705 -1.1609
  137MOL    H1349245   5.072   4.380   6.821 -0.1710  0.0888  0.9278
  137MOL    H1449246   5.051   4.642   6.672 -0.8035  0.0002  1.8282
  137MOL    H1549247   5.118   4.496   6.600 -0.2384 -1.9149  0.7354
  137MOL    H1649248   4.892   4.387   6.638 -1.2525  0.0533  1.5633
  137MOL    H1749249   4.842   4.534   6.714 -3.3903 -2.6695 -1.9595
  137MOL    H1849250   4.873   4.543   6.543 -0.6260 -2.5824 -0.6356
  137MOL    H1949251   4.840   4.542   7.140 -3.3085  2.5785  0.5232
  137MOL    C2049252   4.823   4.789   6.992 -0.2954 -0.5611  0.1078
  137MOL    C2149253   4.841   4.934   6.936 -0.6998 -0.1857 -0.2618
  137MOL    C2249254   4.938   4.938   6.819 -0.4076 -0.1290 -0.3012
  137MOL    O2349255   4.937   4.858   6.723 -0.2019 -0.2836 -0.3436
  137MOL    O2449256   5.035   5.023   6.830  0.1177  0.2881 -0.2403
  137MOL    C2549257   5.149   5.022   6.749 -0.0081 -0.4119  0.0203
  137MOL    C2649258   5.242   5.138   6.804  0.1176 -0.0917 -0.2288
  137MOL    C2749259   5.360   5.168   6.715  0.7896  0.5210 -0.3871
  137MOL    H2849260   4.749   4.804   7.071  0.6156  1.6584  0.5729
  137MOL    H2949261   4.785   4.721   6.916 -0.1123 -0.3048 -0.2168
  137MOL    H3049262   4.884   4.999   7.012  1.1348 -1.8348  0.1485
  137MOL    H3149263   5.207   4.930   6.750  0.0358 -0.4119 -1.5690
  137MOL    H3249264   5.126   5.039   6.644 -0.0002 -1.7120 -0.1964
  137MOL    H3349265   5.192   5.235   6.814  3.0008  1.3608  0.8890
  137MOL    H3449266   5.285   5.113   6.901 -1.6453 -2.3341  0.0187
  137MOL    H3549267   5.437   5.093   6.730  0.9854  0.9957  1.0249
  137MOL    H3649268   5.405   5.265   6.733  1.6731  0.1014 -0.3421
  137MOL    H3749269   5.330   5.164   6.610 -0.7243 -0.7282  0.0647
  137MOL    C3849270   4.703   4.987   6.902  0.4481 -0.3979  0.1267
  137MOL    C3949271   4.710   5.140   6.858  0.5530  0.3154  0.6346
  137MOL    C4049272   4.580   5.166   6.780 -0.5166  0.1670 -0.0348
  137MOL    O4149273   4.477   5.125   6.821  0.8793  0.6534 -0.7134
  137MOL    O4249274   4.600   5.214   6.657  0.3427 -0.1686  0.4582
  137MOL    C4349275   4.486   5.243   6.583  0.7868  0.1991 -0.0568
  137MOL    C4449276   4.468   5.394   6.591  0.1426 -0.3276  0.1044
  137MOL    C4549277   4.561   5.475   6.505 -0.0536  0.3334  0.7348
  137MOL    H4649278   4.637   4.979   6.988 -0.3980  0.5719 -0.4118
  137MOL    H4749279   4.648   4.928   6.829  0.4293  0.5931 -0.6740
  137MOL    H4849280   4.793   5.142   6.787 -0.6956 -1.7896 -0.9074
  137MOL    H4949281   4.499   5.204   6.482 -0.5837  1.0947 -0.6042
  137MOL    H5049282   4.396   5.194   6.621  0.7967 -1.3825 -1.9814
  137MOL    H5149283   4.365   5.408   6.558 -0.4477 -2.0623  1.1181
  137MOL    H5249284   4.471   5.423   6.696 -0.1099 -0.8787  0.2685
  137MOL    H5349285   4.656   5.466   6.558  0.5268  0.6078 -0.2395
  137MOL    H5449286   4.542   5.582   6.505 -3.2949 -0.1838  0.3326
  137MOL    H5549287   4.582   5.430   6.408  1.1598  0.8022  0.7749
  137MOL    C5649288   4.733   5.221   6.986 -0.0445 -0.4839  0.6386
  137MOL    C5749289   4.873   5.285   6.998  0.0307  0.8871 -0.0258
  137MOL    C5849290   4.898   5.375   6.876 -0.2225  0.1837 -0.2836
  137MOL    O5949291   4.973   5.339   6.788  0.1286 -0.0105 -0.1229
  137MOL    O6049292   4.811   5.474   6.868  0.5104  0.1004  0.2581
  137MOL    C6149293   4.813   5.569   6.760  0.0020  0.2524  0.2651
  137MOL    C6249294   4.685   5.652   6.772 -0.2473  0.1099 -0.4928
  137MOL    C6349295   4.704   5.784   6.691  0.1341 -0.2900  0.5076
  137MOL    H6449296   4.714   5.166   7.078 -0.0071 -2.5767 -0.5823
  137MOL    H6549297   4.657   5.298   6.971 -0.0191 -0.6650 -0.4669
  137MOL    H6649298   4.944   5.202   6.992 -1.0769 -0.2159  1.7251
  137MOL    H6749299   4.899   5.631   6.788  0.6342 -1.0658  1.2974
  137MOL    H6849300   4.844   5.525   6.665  1.3258 -0.7311  1.1258
  137MOL    H6949301   4.597   5.593   6.745 -0.0369 -1.2651  1.6624
  137MOL    H7049302   4.665   5.669   6.878 -1.2585  1.0726 -0.8344
  137MOL    H7149303   4.739   5.761   6.590  1.4200 -0.6572  1.0153
  137MOL    H7249304   4.781   5.841   6.743 -0.4010 -0.2100  1.2250
  137MOL    H7349305   4.612   5.841   6.696  0.2272  0.1143 -2.1419
  137MOL    C7449306   4.884   5.357   7.133 -0.2430  0.1692 -0.1472
  137MOL    C7549307   5.003   5.319   7.228 -0.2965  0.2528 -0.2425
  137MOL    C7649308   5.000   5.167   7.258 -0.3819 -0.0537 -0.3283
  137MOL    O7749309   5.093   5.095   7.218  0.2118 -0.0859 -0.3709
  137MOL    O7849310   4.906   5.132   7.341  0.3736  0.4831 -0.2731
  137MOL    C7949311   4.878   4.995   7.377  0.0283 -0.9717  0.5635
  137MOL    C8049312   4.783   4.988   7.496 -0.2440 -0.1655 -0.1449
  137MOL    C8149313   4.750   4.855   7.561 -0.4831  0.4501 -0.0174
  137MOL    H8249314   4.792   5.340   7.187  0.1332  2.7866  1.4198
  137MOL    H8349315   4.889   5.462   7.102 -1.0111  0.7541  1.6463
  137MOL    H8449316   5.000   5.373   7.323 -2.1589 -0.6039  0.2298
  137MOL    H8549317   4.829   4.950   7.291  0.7649 -2.6036  0.9858
  137MOL    H8649318   4.967   4.933   7.392  0.5864 -0.5183 -0.8093
  137MOL    H8749319   4.823   5.046   7.579 -0.5679  0.5486 -0.4800
  137MOL    H8849320   4.695   5.042   7.459 -0.2286  0.7533  1.1272
  137MOL    H8949321   4.838   4.805   7.602 -0.5258  1.0907  0.8646
  137MOL    H9049322   4.728   4.782   7.484  0.5724  0.3348 -0.2070
  137MOL    H9149323   4.671   4.868   7.636 -1.6313 -2.1599 -0.7132
  137MOL    C9249324   5.134   5.361   7.154  0.1258  0.4007 -0.2478
  137MOL    C9349325   5.163   5.516   7.154  0.6595 -0.8758  0.1938
  137MOL    C9449326   5.249   5.553   7.282  0.0544 -0.6367 -0.3301
  137MOL    O9549327   5.197   5.619   7.378  0.0701  0.0957 -0.2342
  137MOL    O9649328   5.384   5.514   7.280  0.1875 -0.1749 -0.0419
  137MOL    C9749329   5.455   5.541   7.398  0.6485 -0.1773  0.4127
  137MOL    C9849330   5.531   5.680   7.377 -0.1053  0.9623  0.1054
  137MOL    C9949331   5.613   5.714   7.504  0.0249 -0.0457  0.1683
  137MOL   H10049332   5.127   5.348   7.046 -0.1807  1.8950 -0.4233
  137MOL   H10149333   5.223   5.309   7.189  0.2760 -0.6013 -2.0569
  137MOL   H10249334   5.065   5.564   7.157  1.6136  1.0664  1.3885
  137MOL   H10349335   5.391   5.535   7.486 -1.4788  0.3692 -1.0512
  137MOL   H10449336   5.528   5.460   7.406 -0.4534 -1.2367 -0.1397
  137MOL   H10549337   5.599   5.664   7.293  1.2063  1.0583  1.1317
  137MOL   H10649338   5.471   5.767   7.350  1.1568  1.0063 -2.7052
  137MOL   H10749339   5.639   5.624   7.560 -0.4111  0.9034  1.9177
  137MOL   H10849340   5.567   5.785   7.572  0.3243  0.3861 -0.0809
  137MOL   H10949341   5.707   5.755   7.466  0.9641 -0.6533  1.7826
  137MOL   C11049342   5.226   5.560   7.018 -0.0802 -0.6316 -0.1486
  137MOL   C11149343   5.243   5.716   7.021  0.0514 -0.2537  0.0634
  137MOL   C11249344   5.375   5.767   6.959  0.1110  0.4630 -0.0869
  137MOL   O11349345   5.462   5.814   7.033 -0.1354  0.0224  0.3313
  137MOL   O11449346   5.374   5.765   6.823 -0.5330  0.6621  0.3659
  137MOL   C11549347   5.491   5.827   6.774  0.2424 -0.3105  0.2854
  137MOL   C11649348   5.473   5.835   6.628  0.7400 -0.1500 -0.3138
  137MOL   C11749349   5.487   5.694   6.559 -0.2011 -0.9032 -0.2874
  137MOL   H11849350   5.168   5.547   6.926 -0.2172 -1.3387  0.0349
  137MOL   H11949351   5.324   5.516   7.000 -0.0005 -0.9076  0.9297
  137MOL   H12049352   5.256   5.744   7.126  1.0597 -1.7297  0.3515
  137MOL   H12149353   5.487   5.926   6.820  0.9551  0.7651 -1.9095
  137MOL   H12249354   5.587   5.779   6.794  0.5226  0.7995  1.7510
  137MOL   H12349355   5.375   5.879   6.610  0.7040 -0.7958 -1.7130
  137MOL   H12449356   5.548   5.905   6.592 -0.9484  1.3561 -0.9548
  137MOL   H12549357   5.419   5.618   6.598 -3.2626  1.0552 -1.5958
  137MOL   H12649358   5.587   5.653   6.573  0.9397  1.7791 -0.1857
  137MOL   H12749359   5.476   5.702   6.451  2.2649  1.2050 -0.4136
  137MOL   C12849360   5.121   5.781   6.963  0.5265  0.0601  0.0735
  137MOL   C12949361   5.110   5.928   7.013  0.3224  0.3900  0.8640
  137MOL   C13049362   5.133   6.036   6.902 -0.9057 -0.1617  0.0827
  137MOL   O13149363   5.243   6.092   6.889  0.0499  0.1223 -0.0409
  137MOL   O13249364   5.027   6.048   6.818  0.0820  0.1806 -0.2291
  137MOL   C13349365   5.056   6.133   6.704 -0.5321 -0.1325  0.1896
  137MOL   C13449366   4.944   6.108   6.596  0.1891 -0.2025 -0.1861
  137MOL   C13549367   4.814   6.150   6.668  0.6596  0.4748 -0.1951
  137MOL   H13649368   5.028   5.734   6.994 -0.1285  0.4420 -1.2778
  137MOL   H13749369   5.140   5.757   6.858  0.1376 -0.0847  0.0370
  137MOL   H13849370   5.195   5.942   7.080  1.1665 -2.0620  0.3254
  137MOL   H13949371   5.048   6.230   6.754  0.0453  0.8110 -1.5156
  137MOL   H14049372   5.154   6.127   6.657  0.3048  1.7255  1.6103
  137MOL   H14149373   4.962   6.167   6.506 -0.2827  1.0342  0.5146
  137MOL   H14249374   4.934   6.003   6.570 -0.4742  0.3069 -2.1331
  137MOL   H14349375   4.801   6.096   6.762 -1.6705 -2.0530 -1.9137
  137MOL   H14449376   4.729   6.130   6.603  0.6047 -2.2134  0.6393
  137MOL   H14549377   4.825   6.254   6.697 -1.3602  0.5373  0.4212
  137MOL   C14649378   4.980   5.951   7.093  0.3308  0.9110  0.2259
  137MOL   C14749379   4.991   5.915   7.240 -0.5171 -0.1549  0.4030
  137MOL   C14849380   5.100   6.001   7.309  0.4173  0.1345  0.7239
  137MOL   O14949381   5.137   6.113   7.265  0.0712  0.1322  0.4434
  137MOL   O15049382   5.146   5.949   7.423 -0.1650 -0.2629 -0.2583
  137MOL   C15149383   5.249   6.019   7.505  0.2306 -0.6503 -0.2071
  137MOL   C15249384   5.249   5.958   7.652  0.2424  0.8005 -0.0784
  137MOL   C15349385   5.349   6.021   7.751  0.3125  0.1688 -0.0770
  137MOL   H15449386   4.892   5.898   7.058 -0.5599  1.4261  1.6751
  137MOL   H15549387   4.956   6.056   7.078  1.0719  1.2621  1.4618
  137MOL   H15649388   5.033   5.815   7.250 -0.1692 -0.0329  0.1927
  137MOL   H15749389   5.347   6.009   7.456  0.2873  0.0664 -0.2477
  137MOL   H15849390   5.229   6.126   7.509  2.5730 -0.2168  1.2709
  137MOL   H15949391   5.151   5.982   7.695 -0.2418  1.8542 -1.7279
  137MOL   H16049392   5.261   5.850   7.645 -2.7842  0.4755 -0.8546
  137MOL   H16149393   5.336   5.966   7.844 -0.1797 -1.3307 -1.0128
  137MOL   H16249394   5.325   6.125   7.773 -4.3659 -0.3523 -2.0440
  137MOL   H16349395   5.453   6.018   7.717  0.4889  2.0883  0.2383
  137MOL   C16449396   4.852   5.921   7.312  0.0463 -0.3564 -0.3465
  137MOL   C16549397   4.791   5.784   7.345  0.0874 -0.6933 -0.1101
  137MOL   C16649398   4.869   5.692   7.436 -0.5020  0.2583  0.6701
  137MOL   O16749399   4.897   5.579   7.395 -0.0679  0.0177  0.6000
  137MOL   O16849400   4.903   5.757   7.545  0.5305  0.4603 -0.1061
  137MOL   C16949401   4.968   5.688   7.647 -0.2984  0.7609 -0.3722
  137MOL   C17049402   4.866   5.631   7.745  0.7493 -0.1345  0.1566
  137MOL   C17149403   4.775   5.523   7.697  0.5601  0.1475  0.7214
  137MOL   H17249404   4.785   5.972   7.242  1.7889  2.1349 -0.2664
  137MOL   H17349405   4.850   5.980   7.403  0.5797 -1.1148  0.1725
  137MOL   H17449406   4.776   5.726   7.254  0.9755  0.5087 -1.0308
  137MOL   H17549407   5.024   5.602   7.610  0.0507  0.6008  0.5042
  137MOL   H17649408   5.041   5.749   7.701  1.4304 -3.4459  2.2894
  137MOL   H17749409   4.913   5.593   7.836  2.0048 -0.1431 -0.4887
  137MOL   H17849410   4.800   5.715   7.771  0.8057  0.2434 -0.9141
  137MOL   H17949411   4.824   5.432   7.663  0.0683  0.0378  0.2972
  137MOL   H18049412   4.716   5.556   7.612  2.4513 -0.2162 -0.7642
  137MOL   H18149413   4.707   5.501   7.780  1.2305  2.0444  1.7874
  137MOL   C18249414   4.648   5.812   7.411  0.3005  0.3663  0.4705
  137MOL   C18349415   4.537   5.872   7.316 -1.0217  0.0118 -0.3994
  137MOL   C18449416   4.448   5.757   7.255 -0.1484  0.0321  0.3926
  137MOL   O18549417   4.326   5.766   7.261 -0.2851  0.1274  0.0143
  137MOL   O18649418   4.529   5.657   7.202  0.3112 -0.2337 -0.4870
  137MOL   C18749419   4.474   5.533   7.187 -0.0356  0.2298 -0.5050
  137MOL   C18849420   4.411   5.500   7.053 -0.3561  0.9427 -0.0634
  137MOL   C18949421   4.340   5.357   7.054 -0.4615  0.2642  0.0232
  137MOL   H19049422   4.660   5.869   7.504 -0.6294  1.1947  0.0881
  137MOL   H19149423   4.611   5.714   7.438  1.5787 -0.0258  0.8445
  137MOL   H19249424   4.581   5.909   7.224 -1.5690  0.6947 -0.3872
  137MOL   H19349425   4.557   5.463   7.194  0.2123  0.6580  1.0114
  137MOL   H19449426   4.405   5.510   7.268  1.3940 -3.7826 -0.2938
  137MOL   H19549427   4.338   5.581   7.045 -0.1010  1.1961  0.1424
  137MOL   H19649428   4.478   5.502   6.966  0.3279  0.6297  0.4471
  137MOL   H19749429   4.243   5.380   7.097  0.2782  0.0195  1.8842
  137MOL   H19849430   4.399   5.275   7.095 -1.5822 -0.6180 -0.1091
  137MOL   H19949431   4.331   5.322   6.951 -0.3213 -2.2392  0.8383
  137MOL   C20049432   4.464   5.987   7.378  0.3478  0.9773 -0.4942
  137MOL   C20149433   4.543   6.116   7.382  0.1881  0.3311 -0.7161
  137MOL   C20249434   4.545   6.182   7.240 -0.5116 -0.1227 -0.4854
  137MOL   O20349435   4.453   6.170   7.166 -0.0708 -0.3813 -0.1212
  137MOL   O20449436   4.652   6.255   7.222 -0.2847  0.1055  0.5705
  137MOL   C20549437   4.690   6.300   7.089 -0.7429  0.1448 -0.6758
  137MOL   C20649438   4.833   6.356   7.119 -0.4180 -0.3986 -0.3109
  137MOL   C20749439   4.891   6.415   6.989  0.3978  0.2924  0.8636
  137MOL   H20849440   4.441   5.961   7.481  1.0275  0.4421 -0.4761
  137MOL   H20949441   4.366   5.993   7.330 -0.0971 -1.4085  0.0506
  137MOL   H21049442   4.643   6.090   7.415  0.1848  1.2146 -0.0120
  137MOL   H21149443   4.708   6.220   7.017 -2.8043 -0.2291 -0.8280
  137MOL   H21249444   4.630   6.379   7.044  0.3096 -0.6679 -3.6353
  137MOL   H21349445   4.822   6.444   7.183 -1.4051  0.6065 -1.8274
  137MOL   H21449446   4.914   6.299   7.163  0.5829  0.6539 -0.7429
  137MOL   H21549447   4.953   6.504   7.000  4.6756 -2.6925  2.1492
  137MOL   H21649448   4.811   6.441   6.919  2.3888  1.1582 -1.1687
  137MOL   H21749449   4.955   6.343   6.939  1.2593  1.3275  0.4444
  137MOL   C21849450   4.496   6.225   7.479  0.3246 -0.7371  0.1994
  137MOL   C21949451   4.536   6.191   7.628 -0.0258 -0.4732 -0.0977
  137MOL   C22049452   4.689   6.181   7.646  0.3375  0.5525 -0.3027
  137MOL   O22149453   4.751   6.105   7.722 -0.0597 -0.2538 -0.3123
  137MOL   O22249454   4.750   6.277   7.580  0.2247  0.1120  0.4742
  137MOL   C22349455   4.884   6.313   7.608  0.6418  0.6079 -0.4356
  137MOL   C22449456   4.935   6.404   7.496 -0.2329 -0.3321 -0.2022
  137MOL   C22549457   5.066   6.479   7.528  0.5434  0.0284  0.1138
  137MOL   H22649458   4.391   6.247   7.462  1.2894  3.6783 -0.6582
  137MOL   H22749459   4.546   6.318   7.453  0.9478 -0.6772  1.5586
  137MOL   H22849460   4.504   6.090   7.654 -1.5215  0.1940  0.7529
  137MOL   H22949461   4.888   6.364   7.704  0.0136 -1.8491  0.9321
  137MOL   H23049462   4.958   6.234   7.618  0.0112 -0.0586 -1.0028
  137MOL   H23149463   4.938   6.348   7.402  2.3243 -0.5514 -0.0283
  137MOL   H23249464   4.856   6.477   7.479  0.5659  0.7414  0.6136
  137MOL   H23349465   5.075   6.558   7.454  0.5682 -0.1212 -0.0448
  137MOL   H23449466   5.154   6.417   7.511  0.5602 -0.2060  1.0331
  137MOL   H23549467   5.058   6.524   7.626  1.9186  0.7202 -0.0796
  137MOL   C23649468   4.475   6.294   7.725  0.6140 -0.8075  0.6623
  137MOL   C23749469   4.328   6.322   7.719  0.4294  0.2118  0.2709
  137MOL   C23849470   4.254   6.209   7.794 -0.1595 -0.1617  0.0578
  137MOL   O23949471   4.173   6.230   0.010 -0.1149 -0.4918  0.2854
  137MOL   O24049472   4.276   6.090   7.736  0.2703 -0.4450 -0.0252
  137MOL   C24149473   4.204   5.980   7.800  0.3537 -0.7337 -0.1768
  137MOL   C24249474   4.222   5.840   7.735 -0.4237  0.0619  0.0464
  137MOL   C24349475   4.371   5.790   7.738  0.2926 -0.2496 -0.4390
  137MOL   H24449476   4.528   6.389   7.717  1.8177 -1.5190 -0.1129
  137MOL   H24549477   4.507   6.279   7.828  3.1154  0.2065  0.0648
  137MOL   H24649478   4.294   6.319   7.615  0.0171 -0.5435  0.4241
  137MOL   H24749479   4.214   5.970   0.028 -1.0728 -0.8233 -0.0472
  137MOL   H24849480   4.098   5.994   7.777 -0.0850  1.6686  2.9719
  137MOL   H24949481   4.150   5.774   7.783  0.5748  0.0436  1.5387
  137MOL   H25049482   4.192   5.854   7.631 -2.3453  4.2551  1.0838
  137MOL   H25149483   4.392   5.723   7.655 -1.0722  0.1744 -1.1195
  137MOL   H25249484   4.401   5.733   7.827  1.7505 -0.2973 -0.9412
  137MOL   H25349485   4.442   5.872   7.736  1.0726 -0.8372  1.5484
  137MOL   C25449486   4.298   6.464   7.766 -0.5162  0.4956 -0.5412
  137MOL   C25549487   4.354   6.569   7.664  0.0081 -0.5262 -0.0929
  137MOL   C25649488   4.233   6.590   7.567  0.1425 -0.6136 -0.2655
  137MOL   O25749489   4.237   6.548   7.453  0.2473 -1.0368  0.9352
  137MOL   O25849490   4.129   6.648   7.629 -0.3118  0.4308 -0.4075
  137MOL   C25949491   3.998   6.650   7.564  0.0729  0.5591  0.2116
  137MOL   C26049492   3.902   6.725   7.650 -0.3164  0.6914  0.9653
  137MOL   C26149493   3.938   6.864   7.697  0.3657  0.3332 -0.1675
  137MOL   H26249494   4.345   6.481   7.863  0.0417  1.3751 -0.9598
  137MOL   H26349495   4.193   6.490   7.782 -0.6509  0.2707 -1.0497
  137MOL   H26449496   4.434   6.532   7.600 -0.2691 -0.6788 -0.3502
  137MOL   H26549497   4.012   6.694   7.466  0.8415 -0.3484 -0.0963
  137MOL   H26649498   3.960   6.550   7.542 -0.1702  0.6033  0.4341
  137MOL   H26749499   3.804   6.744   7.605 -0.2699  1.0587  1.0200
  137MOL   H26849500   3.890   6.658   7.735 -2.1077  0.7203  0.7708
  137MOL   H26949501   3.953   6.931   7.612  0.0247 -0.7483 -1.0754
  137MOL   H27049502   4.036   6.868   7.746 -0.6742 -1.5693  2.1606
  137MOL   H27149503   3.874   6.903   7.776  2.9956  1.4930  1.5069
  137MOL   C27249504   4.419   6.690   7.731  0.3821 -0.0225 -0.1174
  137MOL   C27349505   4.495   6.790   7.638  0.3644 -0.1942 -0.3844
  137MOL   C27449506   4.589   6.721   7.530  0.1385  0.0375 -0.3605
  137MOL   O27549507   4.704   6.696   7.560 -0.4645  0.1766  0.0897
  137MOL   O27649508   4.530   6.690   7.419  0.3573 -0.6063  0.0934
  137MOL   C27749509   4.604   6.641   7.309 -0.0548 -0.3536 -0.1569
  137MOL   C27849510   4.621   6.730   7.186  0.1153 -0.0405  0.4838
  137MOL   C27949511   4.481   6.780   7.138 -0.2690  0.4030  0.0048
  137MOL   H28049512   4.488   6.643   7.801 -0.5067 -2.2896 -0.7217
  137MOL   H28149513   4.346   6.745   7.791 -1.4840 -2.5618 -0.0044
  137MOL   H28249514   4.563   6.840   7.707 -0.6727  0.1190  0.4203
  137MOL   H28349515   4.703   6.605   7.337 -0.8498 -2.0659  0.5235
  137MOL   H28449516   4.555   6.550   7.273 -0.5829 -0.2351  0.2575
  137MOL   H28549517   4.681   6.819   7.207  0.5660  0.8021 -3.9639
  137MOL   H28649518   4.676   6.688   7.102  1.4755  0.5916  1.0324
  137MOL   H28749519   4.410   6.701   7.114  2.3224 -1.4857 -1.7137
  137MOL   H28849520   4.496   6.851   7.057  0.3006 -1.4208 -1.5316
  137MOL   H28949521   4.448   6.832   7.228 -1.0029  1.6778 -0.9845
  137MOL   C29049522   4.399   6.884   7.567  0.2046  0.4195  0.8112
  137MOL   C29149523   4.443   7.031   7.551 -0.2778 -0.2569 -0.6928
  137MOL   C29249524   4.593   7.061   7.537 -0.2851  0.4884 -0.7250
  137MOL   O29349525   4.658   7.104   7.633 -0.0893 -0.1535 -0.0676
  137MOL   O29449526   4.639   7.033   7.415 -0.0448  0.7983 -0.3357
  137MOL   C29549527   4.769   7.069   7.379 -0.5849  0.1153 -0.1440
  137MOL   C29649528   4.870   6.953   7.380  0.7255 -0.9393  0.4583
  137MOL   C29749529   5.015   7.000   7.391  0.1944 -0.1048  0.2813
  137MOL   H29849530   4.304   6.892   7.620 -0.6421  1.9219 -0.9087
  137MOL   H29949531   4.376   6.849   7.466  2.6359 -2.2984  1.1248
  137MOL   H30049532   4.414   7.080   7.644  0.3294 -0.5695 -0.3328
  137MOL   H30149533   4.767   7.111   7.278  0.6718 -0.1685 -0.2986
  137MOL   H30249534   4.799   7.139   7.456 -0.9359 -2.5560  2.5358
  137MOL   H30349535   4.866   6.892   7.470 -1.7276  1.3394  1.9677
  137MOL   H30449536   4.854   6.899   7.287 -0.7957  2.8526 -1.5976
  137MOL   H30549537   5.015   7.066   7.477 -1.7517  1.8407 -1.1443
  137MOL   H30649538   5.053   7.035   7.295 -1.2567  0.6407 -0.0304
  137MOL   H30749539   5.083   6.926   7.433 -0.8563 -1.0797  0.2916
  137MOL   C30849540   4.362   7.112   7.450 -0.5490  0.1263  0.0934
  137MOL   C30949541   4.211   7.125   7.477 -0.4889  0.7199  0.3400
  137MOL   C31049542   4.181   7.195   7.612  0.2403 -0.5803 -0.1081
  137MOL   O31149543   4.152   7.127   7.707 -0.4815  0.0070 -0.3566
  137MOL   O31249544   4.198   7.324   7.602  0.2743  0.1482  0.7704
  137MOL   C31349545   4.163   7.404   7.719 -0.1949 -0.2206 -0.5449
  137MOL   C31449546   4.275   7.410   7.827  0.5261  0.1898 -0.3999
  137MOL   C31549547   4.406   7.463   7.783 -0.1737 -0.0860  0.2465
  137MOL   H31649548   4.368   7.052   7.359  0.3349  0.7316 -0.2598
  137MOL   H31749549   4.422   7.201   7.429 -0.4226  0.2182  0.8437
  137MOL   H31849550   4.170   7.024   7.482  2.2430 -0.3576  2.4269
  137MOL   H31949551   4.144   7.507   7.688  1.9210  1.2252  2.6879
  137MOL   H32049552   4.066   7.370   7.755  0.0241 -1.1438 -0.8016
  137MOL   H32149553   4.232   7.472   0.026  2.2744  0.3590  0.4358
  137MOL   H32249554   4.289   7.314   7.876 -0.5678  0.5435  0.6439
  137MOL   H32349555   4.391   7.567   7.753  0.2748  0.9135  3.3244
  137MOL   H32449556   4.466   7.478   7.872 -0.0216  0.9638 -0.0268
  137MOL   H32549557   4.461   7.409   7.706  1.0879  0.1406  0.9816
  137MOL   C32649558   4.133   7.200   7.362  0.2645 -0.0279  0.2137
  137MOL   C32749559   3.976   7.187   7.353 -0.3560 -0.6605  0.3420
  137MOL   C32849560   3.916   7.305   7.263 -0.0406 -0.2772 -0.0002
  137MOL   O32949561   3.990   7.386   7.210  0.2741  1.0344  0.0810
  137MOL   O33049562   3.785   7.309   7.265 -0.3651 -0.0287 -0.2125
  137MOL   C33149563   3.714   7.412   7.191  0.1565 -0.2740  0.8468
  137MOL   C33249564   3.562   7.397   7.218  0.1636  0.1705  0.0667
  137MOL   C33349565   3.496   7.262   7.182  0.1050 -0.4585 -0.0496
  137MOL   H33449566   4.176   7.193   7.262 -2.4860 -1.8873 -0.8954
  137MOL   H33549567   4.155   7.306   7.364 -0.1623  0.0437  2.7605
  137MOL   H33649568   3.938   7.208   7.453 -0.9406 -0.7473  0.1421
  137MOL   H33749569   3.749   7.510   7.225 -0.2031  0.4200 -0.7281
  137MOL   H33849570   3.738   7.408   7.085  0.9169  0.5548  0.9700
  137MOL   H33949571   3.534   7.417   7.321 -0.7208 -0.1754 -0.0942
  137MOL   H34049572   3.517   7.484   7.171  2.0034  1.1783  0.1490
  137MOL   H34149573   3.530   7.220   7.087  1.6299  0.3100  0.1320
  137MOL   H34249574   3.512   7.182   7.255 -2.1343  0.8015  1.8749
  137MOL   H34349575   3.387   7.266   7.183  0.1154  0.7442 -2.0967
  137MOL   C34449576   3.931   7.047   7.306  0.1033  0.7386 -0.0090
  137MOL   C34549577   3.794   6.998   7.350  0.3219 -0.6949  0.1347
  137MOL   C34649578   3.774   6.855   7.298  0.4912 -1.1380 -1.0988
  137MOL   O34749579   3.827   6.761   7.352 -0.4374 -0.1176  0.3878
  137MOL   O34849580   3.702   6.850   7.182  0.1600  0.7087 -0.3384
  137MOL   C34949581   3.675   6.727   7.114  0.9489  0.0055  0.5755
  137MOL   C35049582   3.689   6.744   6.963 -0.2809 -0.0063  0.0592
  137MOL   C35149583   3.587   6.844   6.894 -0.4552  0.6196 -0.1472
  137MOL   H35249584   3.994   6.974   7.356 -1.6608 -0.5427  0.3858
  137MOL   H35349585   3.936   7.037   7.198 -1.4570  1.4377 -0.1665
  137MOL   H35449586   3.710   7.058   7.315  1.5251  1.9751  1.7259
  137MOL   H35549587   3.754   6.660   7.147  1.2780  0.3340  0.4559
  137MOL   H35649588   3.577   6.693   7.147 -0.1352  0.9396 -1.5415
  137MOL   H35749589   3.790   6.780   6.947 -0.4375  0.4006 -0.0076
  137MOL   H35849590   3.677   6.650   6.909  0.4492 -0.4118  0.5997
  137MOL   H35949591   3.595   6.950   6.915  2.6184 -0.0302  2.3254
  137MOL   H36049592   3.623   6.834   6.792  1.0336 -2.7609  0.6284
  137MOL   H36149593   3.486   6.804   6.895 -0.4995  0.7131 -0.7384
  137MOL   H36249594   3.788   7.001   7.459 -0.5117  0.6243  0.0627
  138MOL     C149595   6.670   3.609   2.069  1.0280  0.1062 -0.1079
  138MOL     C249596   6.687   3.630   2.210 -0.3305 -0.0210  0.3796
  138MOL     C349597   6.834   3.611   2.257  0.0011  0.3107  0.1273
  138MOL     O449598   6.858   3.558   2.365  0.1361  0.0585 -0.3214
  138MOL     O549599   6.924   3.662   2.177  0.4043 -0.0990  0.0572
  138MOL     C649600   7.061   3.659   2.201 -0.0956  0.1608 -0.8893
  138MOL     C749601   7.100   3.800   2.246  1.1213 -0.2603  0.0395
  138MOL     C849602   7.256   3.816   2.255  0.5052  0.2114 -0.2604
  138MOL     H949603   6.681   3.508   2.029 -0.9444 -0.4183  0.6177
  138MOL    H1049604   6.580   3.656   2.029  0.6568 -1.4123 -1.0843
  138MOL    H1149605   6.628   3.554   2.261  1.5498 -1.2885  0.7027
  138MOL    H1249606   7.086   3.585   2.277  0.7525  0.9787 -0.3663
  138MOL    H1349607   7.106   3.643   2.103  0.3375  0.2182 -0.7016
  138MOL    H1449608   7.071   3.879   2.178 -2.2560  0.4226  2.1155
  138MOL    H1549609   7.056   3.819   2.344  1.1380 -0.5914  0.1112
  138MOL    H1649610   7.302   3.719   2.270  0.6667  0.3605  0.2095
  138MOL    H1749611   7.294   3.861   2.163 -0.5513  0.8984 -0.3694
  138MOL    H1849612   7.283   3.870   2.346  0.5746  0.9250 -0.6931
  138MOL    H1949613   6.749   3.653   2.008  0.2343  2.1282  0.2807
  138MOL    C2049614   6.634   3.773   2.256  0.2481  0.2673 -0.2322
  138MOL    C2149615   6.655   3.823   2.400  0.4115  0.3078 -0.6885
  138MOL    C2249616   6.676   3.975   2.408  0.6416  0.0103 -0.1391
  138MOL    O2349617   6.638   4.047   2.314  0.5514 -0.6601 -0.3126
  138MOL    O2449618   6.717   4.009   2.522 -0.0068 -0.2590 -0.3147
  138MOL    C2549619   6.747   4.148   2.562 -0.0960 -0.5849  0.6193
  138MOL    C2649620   6.635   4.190   2.657 -0.0525  0.0591  0.2874
  138MOL    C2749621   6.508   4.231   2.589  0.5336 -0.4515  0.4854
  138MOL    H2849622   6.527   3.787   2.238  0.0940  0.7203  1.0380
  138MOL    H2949623   6.675   3.852   2.193  0.6202  0.1519 -0.1400
  138MOL    H3049624   6.743   3.781   2.449  0.7078  2.3573  0.5967
  138MOL    H3149625   6.832   4.122   2.625 -0.1657 -0.9345  0.5679
  138MOL    H3249626   6.771   4.223   2.486 -3.0376 -0.5532 -0.3311
  138MOL    H3349627   6.611   4.122   2.739  1.1599 -0.0834  0.5270
  138MOL    H3449628   6.667   4.284   2.702  0.9556 -0.8520  1.5047
  138MOL    H3549629   6.424   4.269   2.648  0.2620  0.3527 -0.4168
  138MOL    H3649630   6.465   4.138   2.552  0.4307 -0.2059 -0.0053
  138MOL    H3749631   6.534   4.292   2.503  1.9281 -0.7376  0.6925
  138MOL    C3849632   6.537   3.785   2.498 -0.0741  0.5031  0.2019
  138MOL    C3949633   6.537   3.633   2.550  0.0409 -0.8207 -0.6319
  138MOL    C4049634   6.637   3.611   2.664 -0.1886 -0.4449  0.4222
  138MOL    O4149635   6.726   3.527   2.658  0.3864 -0.7139  0.8085
  138MOL    O4249636   6.615   3.698   2.769 -0.2816 -0.7974  0.2750
  138MOL    C4349637   6.696   3.700   2.881  0.1746  0.0047 -0.5308
  138MOL    C4449638   6.666   3.814   2.976  0.6930  0.5310  0.5649
  138MOL    C4549639   6.724   3.951   2.940  0.0272  0.0002  0.1012
  138MOL    H4649640   6.445   3.791   2.439  1.2881 -0.8550 -2.1312
  138MOL    H4749641   6.523   3.855   2.580  0.2925  2.1376 -1.0970
  138MOL    H4849642   6.566   3.562   2.472 -1.5151 -1.3903 -0.7182
  138MOL    H4949643   6.682   3.611   2.941 -0.4542  0.8877  0.6661
  138MOL    H5049644   6.803   3.710   2.865  0.4598 -0.6639  0.8546
  138MOL    H5149645   6.561   3.842   2.976  0.2221 -1.1794  0.8264
  138MOL    H5249646   6.686   3.783   3.078 -1.1824 -1.9157  0.2462
  138MOL    H5349647   6.646   4.019   2.906 -1.2124 -1.2838  0.3710
  138MOL    H5449648   6.793   3.939   2.857 -1.1626 -2.6442 -0.5413
  138MOL    H5549649   6.775   3.998   3.024 -2.5435  1.6675  0.7975
  138MOL    C5649650   6.392   3.596   2.601 -0.3319 -0.4538 -0.4826
  138MOL    C5749651   6.269   3.623   2.504  0.4560  0.0662 -0.2769
  138MOL    C5849652   6.283   3.548   2.376  0.4419 -0.1807  0.0396
  138MOL    O5949653   6.314   3.431   2.369  0.1323  0.2519  0.0176
  138MOL    O6049654   6.259   3.627   2.270 -0.2320 -0.5648  0.4215
  138MOL    C6149655   6.288   3.592   2.136  0.0578  0.0376  0.4277
  138MOL    C6249656   6.274   3.702   2.029 -0.3939  0.2580 -0.9243
  138MOL    C6349657   6.137   3.765   2.013  0.7418 -0.2222  0.1695
  138MOL    H6449658   6.372   3.647   2.695  1.6745  0.1920 -0.3954
  138MOL    H6549659   6.393   3.489   2.623 -1.2277 -0.7053 -1.6147
  138MOL    H6649660   6.265   3.727   2.473 -2.5221 -0.1009 -0.5840
  138MOL    H6749661   6.394   3.569   2.147  0.0137 -0.1612  0.4432
  138MOL    H6849662   6.243   3.502   2.093 -0.2547  0.2936  0.2151
  138MOL    H6949663   6.334   3.791   2.046 -0.3041 -0.1123  0.8823
  138MOL    H7049664   6.315   3.676   1.932  0.4340  0.8515 -0.7455
  138MOL    H7149665   6.126   3.833   1.929  0.9183  1.0499  1.1615
  138MOL    H7249666   6.099   3.794   2.111 -0.4946 -0.8682 -0.1024
  138MOL    H7349667   6.065   3.685   1.995  0.7415 -0.3533  0.7497
  138MOL    C7449668   6.128   3.601   2.569 -0.2199  0.7507  0.1915
  138MOL    C7549669   6.080   3.688   2.692  0.2836 -0.5959  0.5175
  138MOL    C7649670   6.104   3.838   2.670  0.8026 -0.6762  0.9232
  138MOL    O7749671   6.053   3.893   2.572 -0.6264 -0.5771 -0.2228
  138MOL    O7849672   6.178   3.898   2.762  0.4598 -0.4708  0.5016
  138MOL    C7949673   6.207   4.038   2.754 -0.7355 -0.4154 -0.2615
  138MOL    C8049674   6.090   4.133   2.781 -0.1435  0.2892 -0.7571
  138MOL    C8149675   5.997   4.116   2.904 -0.9890 -0.3734 -0.6556
  138MOL    H8249676   6.111   3.494   2.585 -0.2075  0.5432 -1.1621
  138MOL    H8349677   6.063   3.620   2.484 -1.2278 -1.7695  0.3500
  138MOL    H8449678   6.149   3.669   2.774 -0.9204 -0.3194  1.6159
  138MOL    H8549679   6.275   4.047   2.840 -0.1320  1.1035 -0.8726
  138MOL    H8649680   6.246   4.063   2.655 -1.1012  0.3431 -0.2184
  138MOL    H8749681   6.117   4.238   2.794 -0.3469 -0.0760  3.0276
  138MOL    H8849682   6.027   4.124   2.692 -3.1413 -1.5368  1.4767
  138MOL    H8949683   5.960   4.014   2.911  1.2999 -1.1606  0.1670
  138MOL    H9049684   5.912   4.181   2.880 -0.1225  1.4093  0.9311
  138MOL    H9149685   6.049   4.133   2.998 -3.5081  1.2397  0.5203
  138MOL    C9249686   5.935   3.659   2.730  0.1841  0.3787  0.2182
  138MOL    C9349687   5.927   3.563   2.850 -0.3032 -0.2454  0.0340
  138MOL    C9449688   5.983   3.621   2.973  0.3496 -0.7717  0.3651
  138MOL    O9549689   6.075   3.574   3.038 -0.0967 -0.5471  0.1237
  138MOL    O9649690   5.920   3.735   3.012  0.0768  0.3704 -0.0248
  138MOL    C9749691   5.942   3.775   3.148  1.1401  0.6071 -0.4456
  138MOL    C9849692   5.795   3.794   3.199  0.3933 -0.3270  0.4523
  138MOL    C9949693   5.703   3.878   3.106  0.1929  0.2860  0.1591
  138MOL   H10049694   5.877   3.627   2.643  1.8442  0.2573 -0.8685
  138MOL   H10149695   5.888   3.754   2.755  0.2093  0.2839  0.6301
  138MOL   H10249696   5.983   3.473   2.823 -1.3857 -1.4552  1.7068
  138MOL   H10349697   6.005   3.705   3.203 -0.8257 -1.5184 -0.7855
  138MOL   H10449698   5.996   3.869   3.159 -0.9114  1.5049  2.4784
  138MOL   H10549699   5.748   3.700   3.228  1.7333 -1.5776 -1.3071
  138MOL   H10649700   5.788   3.858   3.286  0.8383 -1.9386  1.7011
  138MOL   H10749701   5.736   3.981   3.095 -0.3672  0.6189  1.4541
  138MOL   H10849702   5.600   3.850   3.130  0.3506 -1.2631 -0.8431
  138MOL   H10949703   5.713   3.831   3.008 -1.2588 -0.5083  0.3762
  138MOL   C11049704   5.787   3.518   2.874 -0.1813  1.0201  0.0812
  138MOL   C11149705   5.769   3.418   2.990  0.2656  0.1843  0.4861
  138MOL   C11249706   5.620   3.386   3.009  0.1583  0.1166 -0.4929
  138MOL   O11349707   5.562   3.290   2.964  0.0843 -0.4466 -0.1674
  138MOL   O11449708   5.559   3.488   3.057 -0.1434 -0.8593  0.4893
  138MOL   C11549709   5.422   3.487   3.076  0.9381 -0.1890  0.0186
  138MOL   C11649710   5.357   3.544   2.950  0.6972  0.0498  0.1090
  138MOL   C11749711   5.342   3.449   2.832 -0.0216 -0.2632 -0.9917
  138MOL   H11849712   5.751   3.482   2.778 -0.0956 -1.5326  0.9759
  138MOL   H11949713   5.724   3.606   2.893 -1.3416  0.4177 -0.9370
  138MOL   H12049714   5.815   3.453   3.083  2.2186  2.3790 -1.2678
  138MOL   H12149715   5.381   3.389   3.104  1.4862 -0.0385  1.3810
  138MOL   H12249716   5.397   3.547   3.164  0.3577 -0.0958 -0.2059
  138MOL   H12349717   5.257   3.570   2.984 -1.6424 -0.8696 -5.4259
  138MOL   H12449718   5.405   3.640   2.931  0.3600 -0.0214 -1.2066
  138MOL   H12549719   5.280   3.500   2.758  0.4462  1.0048 -0.5369
  138MOL   H12649720   5.295   3.353   2.851  1.9731 -1.1423 -0.4315
  138MOL   H12749721   5.443   3.434   2.794 -0.0556 -2.4675 -0.2607
  138MOL   C12849722   5.842   3.278   2.968  0.5810  0.1204 -0.0034
  138MOL   C12949723   5.812   3.154   3.064  0.1583  0.6687 -0.2733
  138MOL   C13049724   5.899   3.034   3.016  0.1863 -0.1075  0.2003
  138MOL   O13149725   6.015   3.049   2.990  0.1183  0.1738  0.0805
  138MOL   O13249726   5.828   2.929   2.988 -0.1116 -0.3816 -0.6953
  138MOL   C13349727   5.878   2.805   2.940  0.1259  0.3475 -0.0472
  138MOL   C13449728   5.908   2.702   3.054  0.1301 -1.3877 -0.0890
  138MOL   C13549729   6.010   2.754   3.156  0.1484 -0.0125  0.3552
  138MOL   H13649730   5.949   3.297   2.966  0.6135  0.0760  1.0322
  138MOL   H13749731   5.812   3.253   2.866 -0.0993  0.9882 -0.0217
  138MOL   H13849732   5.708   3.122   3.052  0.9970 -2.3466  0.0525
  138MOL   H13949733   5.795   2.771   2.877  1.5451  1.9087 -2.8362
  138MOL   H14049734   5.966   2.820   2.878  0.0845 -2.4097 -0.8592
  138MOL   H14149735   5.820   2.671   3.110  1.2095 -1.8461  1.3858
  138MOL   H14249736   5.947   2.611   3.007 -0.6861 -1.9282  0.2809
  138MOL   H14349737   5.977   2.841   3.213  0.6057  0.2007  0.2990
  138MOL   H14449738   6.095   2.796   3.103 -0.8033  0.5480 -0.7447
  138MOL   H14549739   6.057   2.681   3.223  0.3772 -0.3744 -0.1965
  138MOL   C14649740   5.824   3.187   3.219 -0.9700 -0.3376 -0.6705
  138MOL   C14749741   5.720   3.121   3.312 -0.7900  0.5113 -0.2762
  138MOL   C14849742   5.757   2.970   3.327  0.1612 -0.0131 -0.1084
  138MOL   O14949743   5.696   2.891   3.256  0.5628  0.0603  0.0665
  138MOL   O15049744   5.853   2.939   3.412  0.3711 -0.1531 -0.5113
  138MOL   C15149745   5.870   2.797   3.447 -0.3724 -0.0243 -0.7610
  138MOL   C15249746   5.791   2.774   3.573  0.6532  0.6936  0.1877
  138MOL   C15349747   5.828   2.883   3.680 -0.4777 -0.6337  0.6685
  138MOL   H15449748   5.806   3.292   3.240 -4.7297 -0.5536 -2.4336
  138MOL   H15549749   5.920   3.161   3.263 -0.6392  2.9765  0.7081
  138MOL   H15649750   5.628   3.128   3.254 -1.5223  0.2768  0.8410
  138MOL   H15749751   5.842   2.729   3.367  1.1938 -0.9691 -0.5130
  138MOL   H15849752   5.975   2.771   3.458 -0.5748 -0.1623  1.0805
  138MOL   H15949753   5.686   2.761   3.547  0.5626  1.8785 -0.0784
  138MOL   H16049754   5.825   2.676   3.604 -1.4887 -0.5481 -1.2258
  138MOL   H16149755   5.787   2.981   3.654  1.6798  0.3333  0.8226
  138MOL   H16249756   5.934   2.898   3.700 -0.2800 -1.2892  0.1103
  138MOL   H16349757   5.801   2.878   3.785  0.6078  0.0171  0.9795
  138MOL   C16449758   5.695   3.189   3.449  0.1309 -0.4728  0.2858
  138MOL   C16549759   5.547   3.170   3.500 -0.3935  0.2903 -0.7363
  138MOL   C16649760   5.549   3.154   3.653 -0.3227  0.3901  0.1057
  138MOL   O16749761   5.528   3.045   3.705  0.0161  0.5386  0.4300
  138MOL   O16849762   5.570   3.262   3.723 -0.2432  0.0193  0.1010
  138MOL   C16949763   5.556   3.254   3.867  0.6428 -0.0242 -0.6076
  138MOL   C17049764   5.415   3.301   3.907  0.6095 -0.0492  0.0889
  138MOL   C17149765   5.402   3.451   3.910  0.4324  0.0639 -0.7409
  138MOL   H17249766   5.717   3.296   3.442 -0.5159 -0.3598 -0.0835
  138MOL   H17349767   5.779   3.177   3.518  0.7119  3.5056  0.3881
  138MOL   H17449768   5.522   3.079   3.446  2.2605 -0.5446 -0.5816
  138MOL   H17549769   5.565   3.151   3.900  0.3211 -0.2499 -1.2176
  138MOL   H17649770   5.641   3.309   3.908  0.3997 -0.0886 -0.0226
  138MOL   H17749771   5.335   3.251   3.853 -0.3333 -0.0375  1.4333
  138MOL   H17849772   5.403   3.272   4.012  0.5113  0.6355  0.2712
  138MOL   H17949773   5.472   3.494   3.982 -0.4575  0.7604 -0.2802
  138MOL   H18049774   5.297   3.472   3.932  0.1509  0.1277 -2.1453
  138MOL   H18149775   5.418   3.498   3.813 -1.0066  1.0018 -0.5243
  138MOL   C18249776   5.447   3.284   3.452  0.0357  0.1390  0.1045
  138MOL   C18349777   5.310   3.282   3.520  0.2080 -1.0138  0.2261
  138MOL   C18449778   5.223   3.405   3.476 -0.0094 -0.5023 -0.3249
  138MOL   O18549779   5.216   3.494   3.561 -0.2604 -0.0656  0.2796
  138MOL   O18649780   5.181   3.412   3.345  0.7249  0.2931 -0.2322
  138MOL   C18749781   5.141   3.522   3.284  0.0757  0.1502 -0.6078
  138MOL   C18849782   5.000   3.557   3.328  0.5577 -0.1100  0.3512
  138MOL   C18949783   4.925   3.667   3.245 -0.7023 -0.2425 -0.3020
  138MOL   H19049784   5.421   3.277   3.346 -2.0611  0.4097  0.5768
  138MOL   H19149785   5.495   3.382   3.462  0.3103  0.0329 -0.1877
  138MOL   H19249786   5.326   3.292   3.627 -2.0605  4.5444  0.2697
  138MOL   H19349787   5.210   3.606   3.295  0.0896 -0.1189  1.5953
  138MOL   H19449788   5.146   3.481   3.183  0.3422 -1.4501  0.0444
  138MOL   H19549789   4.940   3.467   3.321  0.1342  0.2195 -0.2343
  138MOL   H19649790   4.978   3.572   3.434  1.7960 -0.5924  0.6899
  138MOL   H19749791   4.817   3.657   3.247 -0.8773  1.0570 -2.1992
  138MOL   H19849792   4.954   3.677   3.140  0.3963 -0.8675 -0.0665
  138MOL   H19949793   4.943   3.763   3.293 -1.7648 -0.1802 -0.0195
  138MOL   C20049794   5.222   3.157   3.501  0.0582 -0.7717 -0.1109
  138MOL   C20149795   5.174   3.087   3.625  0.2373 -0.4550 -0.7109
  138MOL   C20249796   5.075   3.162   3.712 -0.0887 -0.0612  0.0273
  138MOL   O20349797   5.001   3.243   3.657  0.5086 -0.1906 -0.5022
  138MOL   O20449798   5.085   3.147   3.847 -0.2554  1.0675 -0.1016
  138MOL   C20549799   4.989   3.194   3.933 -0.0187  0.2662 -0.0380
  138MOL   C20649800   5.036   3.322   3.995  0.0466  0.6228  0.5672
  138MOL   C20749801   4.942   3.392   4.093  0.5037 -0.0973  0.3081
  138MOL   H20849802   5.284   3.083   3.449  0.0094 -1.6344  1.0361
  138MOL   H20949803   5.136   3.183   3.440  0.2024 -2.1981 -0.9545
  138MOL   H21049804   5.259   3.065   3.689  0.7783 -0.1459 -1.3203
  138MOL   H21149805   4.891   3.214   3.889  0.2658 -0.5692 -1.0664
  138MOL   H21249806   4.972   3.120   4.011 -1.6125  2.1619  1.4641
  138MOL   H21349807   5.126   3.310   4.056 -0.5986 -0.2921  1.3394
  138MOL   H21449808   5.078   3.378   3.911  0.8871  0.8456  1.1246
  138MOL   H21549809   4.921   3.342   4.187 -1.7965  2.2460  1.1204
  138MOL   H21649810   4.853   3.417   4.035  1.3900 -0.1454 -1.0990
  138MOL   H21749811   4.974   3.490   4.128  0.9800 -1.0742  2.6787
  138MOL   C21849812   5.100   2.956   3.606 -0.1311 -0.0258  0.4322
  138MOL   C21949813   5.171   2.859   3.505  0.4493  1.0787 -0.5707
  138MOL   C22049814   5.299   2.790   3.558 -0.1329  0.1801 -0.0083
  138MOL   O22149815   5.410   2.837   3.523  0.1511 -0.6433  0.2951
  138MOL   O22249816   5.274   2.703   3.651 -0.9219 -0.1385  0.2965
  138MOL   C22349817   5.382   2.625   3.699  0.3154  0.2176 -0.0485
  138MOL   C22449818   5.337   2.556   3.826 -0.0605 -0.2280  0.5219
  138MOL   C22549819   5.338   2.642   3.951  0.0703  0.2551  0.2687
  138MOL   H22649820   5.001   2.979   3.567  0.9710 -0.1690 -2.5454
  138MOL   H22749821   5.090   2.911   3.705  1.4861  0.3903  0.8163
  138MOL   H22849822   5.196   2.923   3.420  2.5563  2.2401  0.8859
  138MOL   H22949823   5.420   2.559   3.620 -2.1818 -2.3030  0.7704
  138MOL   H23049824   5.460   2.697   3.724  0.7682 -0.2010 -0.2263
  138MOL   H23149825   5.243   2.501   3.819 -0.1057 -0.0017 -1.0311
  138MOL   H23249826   5.410   2.480   3.851  0.3530 -0.3696 -1.0364
  138MOL   H23349827   5.338   2.585   4.044 -4.1418 -1.2693 -0.5613
  138MOL   H23449828   5.261   2.717   3.968 -0.9428 -0.2331 -1.9954
  138MOL   H23549829   5.429   2.702   3.944 -0.2875  0.8738  0.8558
  138MOL   C23649830   5.074   2.753   3.443  0.7489  0.4016  0.2184
  138MOL   C23749831   5.035   2.777   3.297  0.2033 -0.8443  0.9618
  138MOL   C23849832   5.144   2.754   3.193 -0.0960 -0.4963  0.6529
  138MOL   O23949833   5.202   2.647   3.201  0.5996  0.2675 -0.2146
  138MOL   O24049834   5.161   2.853   3.101  0.0090 -0.6489 -0.0042
  138MOL   C24149835   5.274   2.848   3.012 -0.5025  1.3934 -0.1443
  138MOL   C24249836   5.398   2.920   3.074  0.2215  0.0398  0.7848
  138MOL   C24349837   5.380   3.070   3.087 -0.6256  0.2091 -0.3532
  138MOL   H24449838   4.985   2.736   3.504  1.6158  0.0488  1.3918
  138MOL   H24549839   5.111   2.651   3.448  0.5597  0.3178 -0.0418
  138MOL   H24649840   5.010   2.883   3.298  1.1382 -0.6198  2.1767
  138MOL   H24749841   5.297   2.743   2.992 -0.4779  0.9407  2.1557
  138MOL   H24849842   5.249   2.884   2.912  2.7137 -0.4421 -1.6928
  138MOL   H24949843   5.420   2.872   3.169  3.8598 -2.1811 -1.0790
  138MOL   H25049844   5.491   2.908   3.017  0.4730 -1.2606  1.4610
  138MOL   H25149845   5.478   3.114   3.106 -0.1384 -0.8747 -0.2825
  138MOL   H25249846   5.303   3.102   3.157  0.1639 -0.1551  0.6973
  138MOL   H25349847   5.346   3.113   2.993  1.9132  2.1007 -0.4603
  138MOL   C25449848   4.905   2.704   3.246  0.5881 -0.0014 -0.1328
  138MOL   C25549849   4.827   2.770   3.126 -0.5771  0.0690 -0.1718
  138MOL   C25649850   4.855   2.710   2.987 -0.0844  0.0569 -0.5276
  138MOL   O25749851   4.942   2.757   2.912 -0.3371  0.2741  0.9845
  138MOL   O25849852   4.781   2.600   2.972 -0.2265  0.3443  0.2573
  138MOL   C25949853   4.802   2.522   2.859  0.1827 -0.0545 -0.1687
  138MOL   C26049854   4.735   2.387   2.869 -0.2918 -0.1489 -0.0349
  138MOL   C26149855   4.584   2.399   2.917  0.0554 -0.6117 -0.0470
  138MOL   H26249856   4.837   2.686   3.329  1.5377  0.7227  0.8253
  138MOL   H26349857   4.937   2.601   3.228  0.3825  0.3686 -2.7886
  138MOL   H26449858   4.862   2.873   3.131 -1.4728  0.2946  2.0861
  138MOL   H26549859   4.776   2.586   2.774 -1.2342  0.1039  0.3740
  138MOL   H26649860   4.906   2.499   2.836  0.2803 -0.3192  0.5318
  138MOL   H26749861   4.745   2.334   2.774 -1.0765  0.3629 -0.4075
  138MOL   H26849862   4.787   2.326   2.943  1.5336 -0.4823 -1.5480
  138MOL   H26949863   4.560   2.478   2.988 -0.9443  0.5501 -1.6544
  138MOL   H27049864   4.553   2.300   2.952 -0.1517 -0.7146 -0.5256
  138MOL   H27149865   4.532   2.416   2.823  0.3488 -1.8700 -0.4510
  138MOL   C27249866   4.681   2.788   3.171 -0.1718 -0.4733 -0.2689
  138MOL   C27349867   4.590   2.886   3.089 -0.0555 -0.3062  0.2663
  138MOL   C27449868   4.523   2.818   2.967 -0.1169 -0.5501  0.2830
  138MOL   O27549869   4.556   2.848   2.849  0.4162  0.1491 -0.5181
  138MOL   O27649870   4.421   2.731   2.996 -0.5061 -0.2966  0.0156
  138MOL   C27749871   4.355   2.660   2.892  0.2489  0.0361 -0.1097
  138MOL   C27849872   4.217   2.720   2.860 -0.4250 -0.0347  0.2759
  138MOL   C27949873   4.235   2.853   2.807  0.3748  0.0029  0.2240
  138MOL   H28049874   4.680   2.819   3.275 -0.5760  0.6465 -0.6048
  138MOL   H28149875   4.637   2.688   3.170 -2.5820  0.5452  0.8723
  138MOL   H28249876   4.653   2.961   3.042  0.7087 -1.4457 -0.5650
  138MOL   H28349877   4.417   2.647   2.803 -0.8770  0.2449 -0.9405
  138MOL   H28449878   4.334   2.566   2.942 -0.8866  0.7409  0.7739
  138MOL   H28549879   4.180   2.653   2.782  3.1253 -2.7883  0.8146
  138MOL   H28649880   4.155   2.724   2.949 -0.9291  0.8061 -0.1113
  138MOL   H28749881   4.141   2.889   2.763  1.3414  1.6291 -0.5527
  138MOL   H28849882   4.318   2.870   2.738  0.4307 -0.6106  0.1369
  138MOL   H28949883   4.252   2.921   2.890 -0.9555 -0.9095  1.2686
  138MOL   C29049884   4.488   2.959   3.175 -0.5592  0.0317  0.5888
  138MOL   C29149885   4.547   3.091   3.217  0.1735  0.3208  0.4385
  138MOL   C29249886   4.654   3.083   3.328 -0.7234 -1.0228  0.1179
  138MOL   O29349887   4.768   3.127   3.310  0.2528 -0.0026  0.3538
  138MOL   O29449888   4.603   3.028   3.438 -0.3822 -0.7854  0.4147
  138MOL   C29549889   4.690   2.987   3.554  0.3800 -1.0911 -0.4352
  138MOL   C29649890   4.690   2.831   3.578  0.2310  0.5292  0.1976
  138MOL   C29749891   4.575   2.776   3.660 -0.5045 -0.0912  0.6462
  138MOL   H29849892   4.451   2.899   3.258 -2.2894  0.3493  0.0750
  138MOL   H29949893   4.403   2.978   3.109 -0.7718 -0.0672  0.8315
  138MOL   H30049894   4.466   3.146   3.263 -0.4034 -0.4010  0.2915
  138MOL   H30149895   4.793   3.013   3.529  0.9796 -2.3473  0.6338
  138MOL   H30249896   4.662   3.047   3.640 -1.1894 -0.5350 -1.3060
  138MOL   H30349897   4.688   2.768   3.489 -1.1430  1.0986 -0.1869
  138MOL   H30449898   4.775   2.808   3.642  0.5590  0.1770 -0.3593
  138MOL   H30549899   4.487   2.776   3.596  0.0348 -0.8670 -0.1071
  138MOL   H30649900   4.558   2.841   3.745 -0.5575  1.4911 -0.5586
  138MOL   H30749901   4.599   2.679   3.703  2.0571 -1.1591 -2.9166
  138MOL   C30849902   4.584   3.193   3.104  0.3402  0.0868 -0.1668
  138MOL   C30949903   4.478   3.207   2.997  0.1006 -0.4611 -0.5111
  138MOL   C31049904   4.335   3.254   3.042 -0.2754 -0.4090 -0.4012
  138MOL   O31149905   4.245   3.174   3.027 -0.2238 -0.2034  0.1418
  138MOL   O31249906   4.324   3.371   3.109  0.0072 -0.4275 -0.9612
  138MOL   C31349907   4.197   3.413   3.140  0.7044  0.6744 -0.0721
  138MOL   C31449908   4.190   3.561   3.200  0.8310  0.9033 -0.0943
  138MOL   C31549909   4.261   3.572   3.338 -0.6079 -0.3696  0.1621
  138MOL   H31649910   4.681   3.167   3.060  0.8843  3.3183 -1.0052
  138MOL   H31749911   4.588   3.289   3.157 -1.8820 -0.7083  1.5209
  138MOL   H31849912   4.457   3.109   2.954 -2.6466 -0.9220  1.7170
  138MOL   H31949913   4.149   3.421   3.042 -0.8178  1.3906  0.7045
  138MOL   H32049914   4.151   3.339   3.205 -2.6345  0.5223 -2.4706
  138MOL   H32149915   4.224   3.631   3.124 -2.5694  2.5078 -0.1903
  138MOL   H32249916   4.085   3.582   3.214  1.0636  3.7530 -2.2550
  138MOL   H32349917   4.254   3.674   3.378  0.6934 -1.3367  2.9449
  138MOL   H32449918   4.203   3.507   3.403  0.5636 -0.3333  1.2527
  138MOL   H32549919   4.362   3.532   3.335  0.1729  1.3883  1.7934
  138MOL   C32649920   4.525   3.281   2.870 -0.0269  0.0548 -0.7010
  138MOL   C32749921   4.575   3.426   2.896  0.0759  0.0188  1.0292
  138MOL   C32849922   4.712   3.438   2.959  0.1381 -0.0500  0.3101
  138MOL   O32949923   4.733   3.532   3.038  0.4869  0.5306  0.4479
  138MOL   O33049924   4.799   3.345   2.917  0.4132  0.4749  0.5180
  138MOL   C33149925   4.934   3.360   2.961 -0.3119  1.2415  0.2409
  138MOL   C33249926   5.011   3.239   2.912  0.3702 -0.8929  0.6942
  138MOL   C33349927   4.966   3.127   3.001  1.0532  0.5101 -0.1953
  138MOL   H33449928   4.438   3.279   2.804 -2.2606 -1.5902  2.1879
  138MOL   H33549929   4.594   3.216   2.816 -1.1596 -0.8962 -1.0411
  138MOL   H33649930   4.513   3.470   2.975  0.5572 -0.5679  1.7345
  138MOL   H33749931   4.980   3.451   2.922 -0.1422  0.5666 -1.1477
  138MOL   H33849932   4.943   3.351   3.069 -1.3648 -4.4581  0.0377
  138MOL   H33949933   4.991   3.209   2.809 -1.5003  0.9280  0.4909
  138MOL   H34049934   5.119   3.239   2.919  0.3866  2.2515  1.4122
  138MOL   H34149935   4.946   3.142   3.107  0.1891  1.4955 -0.4833
  138MOL   H34249936   4.871   3.094   2.959  1.7874 -1.4657 -0.3560
  138MOL   H34349937   5.030   3.039   2.992 -1.0081 -1.3202  2.0855
  138MOL   C34449938   4.577   3.518   2.774 -0.1106 -0.4271 -0.1453
  138MOL   C34549939   4.440   3.572   2.724  0.2615 -0.3172 -0.7123
  138MOL   C34649940   4.366   3.650   2.826  0.3473 -0.0633 -0.2353
  138MOL   O34749941   4.252   3.616   2.858 -0.0204 -0.0653 -0.3532
  138MOL   O34849942   4.430   3.751   2.873 -0.0508 -0.2007 -0.5622
  138MOL   C34949943   4.362   3.849   2.955  0.7316  0.3041 -0.0961
  138MOL   C35049944   4.330   3.970   2.866 -0.2205  0.0956 -0.0293
  138MOL   C35149945   4.446   4.053   2.810  0.7773 -0.1171  0.5381
  138MOL   H35249946   4.623   3.474   2.685 -0.4015 -1.1364  0.0509
  138MOL   H35349947   4.642   3.604   2.790  1.7213 -1.7555 -0.2826
  138MOL   H35449948   4.370   3.491   2.704  0.3315 -0.6051  0.1529
  138MOL   H35549949   4.268   3.814   2.996  0.0235  2.8310  0.5059
  138MOL   H35649950   4.422   3.877   3.042 -1.1228  0.4143  1.1615
  138MOL   H35749951   4.255   3.944   2.792 -0.6365 -1.7948  1.0276
  138MOL   H35849952   4.280   4.047   2.926 -0.7997 -0.8149  0.6714
  138MOL   H35949953   4.503   3.994   2.738 -0.2723 -1.7442  1.0055
  138MOL   H36049954   4.395   4.136   2.760  2.8267 -0.7826 -2.8064
  138MOL   H36149955   4.516   4.086   2.887  0.8549 -4.4554  2.4697
  138MOL   H36249956   4.462   3.629   2.634  1.2786 -1.9186 -1.4975
   7.88035   7.88035   7.88035
