;
; Gromacs include topology (itp) file.
; For Molecular Group XYZ
; Force field scheme: opls2005
; Produced from DL_FIELD v4.11
;


[ moleculetype ]
; name    nrexcl
XYZ    3

[ atoms ]
; nr   type   resnr   residu    atom    cgnr    charge    mass
    1        CT    1  MOL      C1     1  -0.1800000   12.0115
    2        CT    1  MOL      C2     2  -0.0600000   12.0115
    3       CO4    1  MOL      C3     3   0.5100000   12.0115
    4         O    1  MOL      O4     4  -0.4300000   15.9994
    5       OES    1  MOL      O5     5  -0.3300000   15.9994
    6        CT    1  MOL      C6     6   0.1900000   12.0115
    7        CT    1  MOL      C7     7  -0.1200000   12.0115
    8        CT    1  MOL      C8     8  -0.1800000   12.0115
    9        HC    1  MOL      H9     9   0.0600000    1.0080
   10        HC    1  MOL     H10    10   0.0600000    1.0080
   11       HAE    1  MOL     H11    11   0.0600000    1.0080
   12       HAE    1  MOL     H12    12   0.0300000    1.0080
   13       HAE    1  MOL     H13    13   0.0300000    1.0080
   14        HC    1  MOL     H14    14   0.0600000    1.0080
   15        HC    1  MOL     H15    15   0.0600000    1.0080
   16        HC    1  MOL     H16    16   0.0600000    1.0080
   17        HC    1  MOL     H17    17   0.0600000    1.0080
   18        HC    1  MOL     H18    18   0.0600000    1.0080
   19        HC    1  MOL     H19    19   0.0600000    1.0080
   20        CT    1  MOL     C20    20  -0.1200000   12.0115
   21        CT    1  MOL     C21    21  -0.0600000   12.0115
   22       CO4    1  MOL     C22    22   0.5100000   12.0115
   23         O    1  MOL     O23    23  -0.4300000   15.9994
   24       OES    1  MOL     O24    24  -0.3300000   15.9994
   25        CT    1  MOL     C25    25   0.1900000   12.0115
   26        CT    1  MOL     C26    26  -0.1200000   12.0115
   27        CT    1  MOL     C27    27  -0.1800000   12.0115
   28        HC    1  MOL     H28    28   0.0600000    1.0080
   29        HC    1  MOL     H29    29   0.0600000    1.0080
   30       HAE    1  MOL     H30    30   0.0600000    1.0080
   31       HAE    1  MOL     H31    31   0.0300000    1.0080
   32       HAE    1  MOL     H32    32   0.0300000    1.0080
   33        HC    1  MOL     H33    33   0.0600000    1.0080
   34        HC    1  MOL     H34    34   0.0600000    1.0080
   35        HC    1  MOL     H35    35   0.0600000    1.0080
   36        HC    1  MOL     H36    36   0.0600000    1.0080
   37        HC    1  MOL     H37    37   0.0600000    1.0080
   38        CT    1  MOL     C38    38  -0.1200000   12.0115
   39        CT    1  MOL     C39    39  -0.0600000   12.0115
   40       CO4    1  MOL     C40    40   0.5100000   12.0115
   41         O    1  MOL     O41    41  -0.4300000   15.9994
   42       OES    1  MOL     O42    42  -0.3300000   15.9994
   43        CT    1  MOL     C43    43   0.1900000   12.0115
   44        CT    1  MOL     C44    44  -0.1200000   12.0115
   45        CT    1  MOL     C45    45  -0.1800000   12.0115
   46        HC    1  MOL     H46    46   0.0600000    1.0080
   47        HC    1  MOL     H47    47   0.0600000    1.0080
   48       HAE    1  MOL     H48    48   0.0600000    1.0080
   49       HAE    1  MOL     H49    49   0.0300000    1.0080
   50       HAE    1  MOL     H50    50   0.0300000    1.0080
   51        HC    1  MOL     H51    51   0.0600000    1.0080
   52        HC    1  MOL     H52    52   0.0600000    1.0080
   53        HC    1  MOL     H53    53   0.0600000    1.0080
   54        HC    1  MOL     H54    54   0.0600000    1.0080
   55        HC    1  MOL     H55    55   0.0600000    1.0080
   56        CT    1  MOL     C56    56  -0.1200000   12.0115
   57        CT    1  MOL     C57    57  -0.0600000   12.0115
   58       CO4    1  MOL     C58    58   0.5100000   12.0115
   59         O    1  MOL     O59    59  -0.4300000   15.9994
   60       OES    1  MOL     O60    60  -0.3300000   15.9994
   61        CT    1  MOL     C61    61   0.1900000   12.0115
   62        CT    1  MOL     C62    62  -0.1200000   12.0115
   63        CT    1  MOL     C63    63  -0.1800000   12.0115
   64        HC    1  MOL     H64    64   0.0600000    1.0080
   65        HC    1  MOL     H65    65   0.0600000    1.0080
   66       HAE    1  MOL     H66    66   0.0600000    1.0080
   67       HAE    1  MOL     H67    67   0.0300000    1.0080
   68       HAE    1  MOL     H68    68   0.0300000    1.0080
   69        HC    1  MOL     H69    69   0.0600000    1.0080
   70        HC    1  MOL     H70    70   0.0600000    1.0080
   71        HC    1  MOL     H71    71   0.0600000    1.0080
   72        HC    1  MOL     H72    72   0.0600000    1.0080
   73        HC    1  MOL     H73    73   0.0600000    1.0080
   74        CT    1  MOL     C74    74  -0.1200000   12.0115
   75        CT    1  MOL     C75    75  -0.0600000   12.0115
   76       CO4    1  MOL     C76    76   0.5100000   12.0115
   77         O    1  MOL     O77    77  -0.4300000   15.9994
   78       OES    1  MOL     O78    78  -0.3300000   15.9994
   79        CT    1  MOL     C79    79   0.1900000   12.0115
   80        CT    1  MOL     C80    80  -0.1200000   12.0115
   81        CT    1  MOL     C81    81  -0.1800000   12.0115
   82        HC    1  MOL     H82    82   0.0600000    1.0080
   83        HC    1  MOL     H83    83   0.0600000    1.0080
   84       HAE    1  MOL     H84    84   0.0600000    1.0080
   85       HAE    1  MOL     H85    85   0.0300000    1.0080
   86       HAE    1  MOL     H86    86   0.0300000    1.0080
   87        HC    1  MOL     H87    87   0.0600000    1.0080
   88        HC    1  MOL     H88    88   0.0600000    1.0080
   89        HC    1  MOL     H89    89   0.0600000    1.0080
   90        HC    1  MOL     H90    90   0.0600000    1.0080
   91        HC    1  MOL     H91    91   0.0600000    1.0080
   92        CT    1  MOL     C92    92  -0.1200000   12.0115
   93        CT    1  MOL     C93    93  -0.0600000   12.0115
   94       CO4    1  MOL     C94    94   0.5100000   12.0115
   95         O    1  MOL     O95    95  -0.4300000   15.9994
   96       OES    1  MOL     O96    96  -0.3300000   15.9994
   97        CT    1  MOL     C97    97   0.1900000   12.0115
   98        CT    1  MOL     C98    98  -0.1200000   12.0115
   99        CT    1  MOL     C99    99  -0.1800000   12.0115
  100        HC    1  MOL    H100   100   0.0600000    1.0080
  101        HC    1  MOL    H101   101   0.0600000    1.0080
  102       HAE    1  MOL    H102   102   0.0600000    1.0080
  103       HAE    1  MOL    H103   103   0.0300000    1.0080
  104       HAE    1  MOL    H104   104   0.0300000    1.0080
  105        HC    1  MOL    H105   105   0.0600000    1.0080
  106        HC    1  MOL    H106   106   0.0600000    1.0080
  107        HC    1  MOL    H107   107   0.0600000    1.0080
  108        HC    1  MOL    H108   108   0.0600000    1.0080
  109        HC    1  MOL    H109   109   0.0600000    1.0080
  110        CT    1  MOL    C110   110  -0.1200000   12.0115
  111        CT    1  MOL    C111   111  -0.0600000   12.0115
  112       CO4    1  MOL    C112   112   0.5100000   12.0115
  113         O    1  MOL    O113   113  -0.4300000   15.9994
  114       OES    1  MOL    O114   114  -0.3300000   15.9994
  115        CT    1  MOL    C115   115   0.1900000   12.0115
  116        CT    1  MOL    C116   116  -0.1200000   12.0115
  117        CT    1  MOL    C117   117  -0.1800000   12.0115
  118        HC    1  MOL    H118   118   0.0600000    1.0080
  119        HC    1  MOL    H119   119   0.0600000    1.0080
  120       HAE    1  MOL    H120   120   0.0600000    1.0080
  121       HAE    1  MOL    H121   121   0.0300000    1.0080
  122       HAE    1  MOL    H122   122   0.0300000    1.0080
  123        HC    1  MOL    H123   123   0.0600000    1.0080
  124        HC    1  MOL    H124   124   0.0600000    1.0080
  125        HC    1  MOL    H125   125   0.0600000    1.0080
  126        HC    1  MOL    H126   126   0.0600000    1.0080
  127        HC    1  MOL    H127   127   0.0600000    1.0080
  128        CT    1  MOL    C128   128  -0.1200000   12.0115
  129        CT    1  MOL    C129   129  -0.0600000   12.0115
  130       CO4    1  MOL    C130   130   0.5100000   12.0115
  131         O    1  MOL    O131   131  -0.4300000   15.9994
  132       OES    1  MOL    O132   132  -0.3300000   15.9994
  133        CT    1  MOL    C133   133   0.1900000   12.0115
  134        CT    1  MOL    C134   134  -0.1200000   12.0115
  135        CT    1  MOL    C135   135  -0.1800000   12.0115
  136        HC    1  MOL    H136   136   0.0600000    1.0080
  137        HC    1  MOL    H137   137   0.0600000    1.0080
  138       HAE    1  MOL    H138   138   0.0600000    1.0080
  139       HAE    1  MOL    H139   139   0.0300000    1.0080
  140       HAE    1  MOL    H140   140   0.0300000    1.0080
  141        HC    1  MOL    H141   141   0.0600000    1.0080
  142        HC    1  MOL    H142   142   0.0600000    1.0080
  143        HC    1  MOL    H143   143   0.0600000    1.0080
  144        HC    1  MOL    H144   144   0.0600000    1.0080
  145        HC    1  MOL    H145   145   0.0600000    1.0080
  146        CT    1  MOL    C146   146  -0.1200000   12.0115
  147        CT    1  MOL    C147   147  -0.0600000   12.0115
  148       CO4    1  MOL    C148   148   0.5100000   12.0115
  149         O    1  MOL    O149   149  -0.4300000   15.9994
  150       OES    1  MOL    O150   150  -0.3300000   15.9994
  151        CT    1  MOL    C151   151   0.1900000   12.0115
  152        CT    1  MOL    C152   152  -0.1200000   12.0115
  153        CT    1  MOL    C153   153  -0.1800000   12.0115
  154        HC    1  MOL    H154   154   0.0600000    1.0080
  155        HC    1  MOL    H155   155   0.0600000    1.0080
  156       HAE    1  MOL    H156   156   0.0600000    1.0080
  157       HAE    1  MOL    H157   157   0.0300000    1.0080
  158       HAE    1  MOL    H158   158   0.0300000    1.0080
  159        HC    1  MOL    H159   159   0.0600000    1.0080
  160        HC    1  MOL    H160   160   0.0600000    1.0080
  161        HC    1  MOL    H161   161   0.0600000    1.0080
  162        HC    1  MOL    H162   162   0.0600000    1.0080
  163        HC    1  MOL    H163   163   0.0600000    1.0080
  164        CT    1  MOL    C164   164  -0.1200000   12.0115
  165        CT    1  MOL    C165   165  -0.0600000   12.0115
  166       CO4    1  MOL    C166   166   0.5100000   12.0115
  167         O    1  MOL    O167   167  -0.4300000   15.9994
  168       OES    1  MOL    O168   168  -0.3300000   15.9994
  169        CT    1  MOL    C169   169   0.1900000   12.0115
  170        CT    1  MOL    C170   170  -0.1200000   12.0115
  171        CT    1  MOL    C171   171  -0.1800000   12.0115
  172        HC    1  MOL    H172   172   0.0600000    1.0080
  173        HC    1  MOL    H173   173   0.0600000    1.0080
  174       HAE    1  MOL    H174   174   0.0600000    1.0080
  175       HAE    1  MOL    H175   175   0.0300000    1.0080
  176       HAE    1  MOL    H176   176   0.0300000    1.0080
  177        HC    1  MOL    H177   177   0.0600000    1.0080
  178        HC    1  MOL    H178   178   0.0600000    1.0080
  179        HC    1  MOL    H179   179   0.0600000    1.0080
  180        HC    1  MOL    H180   180   0.0600000    1.0080
  181        HC    1  MOL    H181   181   0.0600000    1.0080
  182        CT    1  MOL    C182   182  -0.1200000   12.0115
  183        CT    1  MOL    C183   183  -0.0600000   12.0115
  184       CO4    1  MOL    C184   184   0.5100000   12.0115
  185         O    1  MOL    O185   185  -0.4300000   15.9994
  186       OES    1  MOL    O186   186  -0.3300000   15.9994
  187        CT    1  MOL    C187   187   0.1900000   12.0115
  188        CT    1  MOL    C188   188  -0.1200000   12.0115
  189        CT    1  MOL    C189   189  -0.1800000   12.0115
  190        HC    1  MOL    H190   190   0.0600000    1.0080
  191        HC    1  MOL    H191   191   0.0600000    1.0080
  192       HAE    1  MOL    H192   192   0.0600000    1.0080
  193       HAE    1  MOL    H193   193   0.0300000    1.0080
  194       HAE    1  MOL    H194   194   0.0300000    1.0080
  195        HC    1  MOL    H195   195   0.0600000    1.0080
  196        HC    1  MOL    H196   196   0.0600000    1.0080
  197        HC    1  MOL    H197   197   0.0600000    1.0080
  198        HC    1  MOL    H198   198   0.0600000    1.0080
  199        HC    1  MOL    H199   199   0.0600000    1.0080
  200        CT    1  MOL    C200   200  -0.1200000   12.0115
  201        CT    1  MOL    C201   201  -0.0600000   12.0115
  202       CO4    1  MOL    C202   202   0.5100000   12.0115
  203         O    1  MOL    O203   203  -0.4300000   15.9994
  204       OES    1  MOL    O204   204  -0.3300000   15.9994
  205        CT    1  MOL    C205   205   0.1900000   12.0115
  206        CT    1  MOL    C206   206  -0.1200000   12.0115
  207        CT    1  MOL    C207   207  -0.1800000   12.0115
  208        HC    1  MOL    H208   208   0.0600000    1.0080
  209        HC    1  MOL    H209   209   0.0600000    1.0080
  210       HAE    1  MOL    H210   210   0.0600000    1.0080
  211       HAE    1  MOL    H211   211   0.0300000    1.0080
  212       HAE    1  MOL    H212   212   0.0300000    1.0080
  213        HC    1  MOL    H213   213   0.0600000    1.0080
  214        HC    1  MOL    H214   214   0.0600000    1.0080
  215        HC    1  MOL    H215   215   0.0600000    1.0080
  216        HC    1  MOL    H216   216   0.0600000    1.0080
  217        HC    1  MOL    H217   217   0.0600000    1.0080
  218        CT    1  MOL    C218   218  -0.1200000   12.0115
  219        CT    1  MOL    C219   219  -0.0600000   12.0115
  220       CO4    1  MOL    C220   220   0.5100000   12.0115
  221         O    1  MOL    O221   221  -0.4300000   15.9994
  222       OES    1  MOL    O222   222  -0.3300000   15.9994
  223        CT    1  MOL    C223   223   0.1900000   12.0115
  224        CT    1  MOL    C224   224  -0.1200000   12.0115
  225        CT    1  MOL    C225   225  -0.1800000   12.0115
  226        HC    1  MOL    H226   226   0.0600000    1.0080
  227        HC    1  MOL    H227   227   0.0600000    1.0080
  228       HAE    1  MOL    H228   228   0.0600000    1.0080
  229       HAE    1  MOL    H229   229   0.0300000    1.0080
  230       HAE    1  MOL    H230   230   0.0300000    1.0080
  231        HC    1  MOL    H231   231   0.0600000    1.0080
  232        HC    1  MOL    H232   232   0.0600000    1.0080
  233        HC    1  MOL    H233   233   0.0600000    1.0080
  234        HC    1  MOL    H234   234   0.0600000    1.0080
  235        HC    1  MOL    H235   235   0.0600000    1.0080
  236        CT    1  MOL    C236   236  -0.1200000   12.0115
  237        CT    1  MOL    C237   237  -0.0600000   12.0115
  238       CO4    1  MOL    C238   238   0.5100000   12.0115
  239         O    1  MOL    O239   239  -0.4300000   15.9994
  240       OES    1  MOL    O240   240  -0.3300000   15.9994
  241        CT    1  MOL    C241   241   0.1900000   12.0115
  242        CT    1  MOL    C242   242  -0.1200000   12.0115
  243        CT    1  MOL    C243   243  -0.1800000   12.0115
  244        HC    1  MOL    H244   244   0.0600000    1.0080
  245        HC    1  MOL    H245   245   0.0600000    1.0080
  246       HAE    1  MOL    H246   246   0.0600000    1.0080
  247       HAE    1  MOL    H247   247   0.0300000    1.0080
  248       HAE    1  MOL    H248   248   0.0300000    1.0080
  249        HC    1  MOL    H249   249   0.0600000    1.0080
  250        HC    1  MOL    H250   250   0.0600000    1.0080
  251        HC    1  MOL    H251   251   0.0600000    1.0080
  252        HC    1  MOL    H252   252   0.0600000    1.0080
  253        HC    1  MOL    H253   253   0.0600000    1.0080
  254        CT    1  MOL    C254   254  -0.1200000   12.0115
  255        CT    1  MOL    C255   255  -0.0600000   12.0115
  256       CO4    1  MOL    C256   256   0.5100000   12.0115
  257         O    1  MOL    O257   257  -0.4300000   15.9994
  258       OES    1  MOL    O258   258  -0.3300000   15.9994
  259        CT    1  MOL    C259   259   0.1900000   12.0115
  260        CT    1  MOL    C260   260  -0.1200000   12.0115
  261        CT    1  MOL    C261   261  -0.1800000   12.0115
  262        HC    1  MOL    H262   262   0.0600000    1.0080
  263        HC    1  MOL    H263   263   0.0600000    1.0080
  264       HAE    1  MOL    H264   264   0.0600000    1.0080
  265       HAE    1  MOL    H265   265   0.0300000    1.0080
  266       HAE    1  MOL    H266   266   0.0300000    1.0080
  267        HC    1  MOL    H267   267   0.0600000    1.0080
  268        HC    1  MOL    H268   268   0.0600000    1.0080
  269        HC    1  MOL    H269   269   0.0600000    1.0080
  270        HC    1  MOL    H270   270   0.0600000    1.0080
  271        HC    1  MOL    H271   271   0.0600000    1.0080
  272        CT    1  MOL    C272   272  -0.1200000   12.0115
  273        CT    1  MOL    C273   273  -0.0600000   12.0115
  274       CO4    1  MOL    C274   274   0.5100000   12.0115
  275         O    1  MOL    O275   275  -0.4300000   15.9994
  276       OES    1  MOL    O276   276  -0.3300000   15.9994
  277        CT    1  MOL    C277   277   0.1900000   12.0115
  278        CT    1  MOL    C278   278  -0.1200000   12.0115
  279        CT    1  MOL    C279   279  -0.1800000   12.0115
  280        HC    1  MOL    H280   280   0.0600000    1.0080
  281        HC    1  MOL    H281   281   0.0600000    1.0080
  282       HAE    1  MOL    H282   282   0.0600000    1.0080
  283       HAE    1  MOL    H283   283   0.0300000    1.0080
  284       HAE    1  MOL    H284   284   0.0300000    1.0080
  285        HC    1  MOL    H285   285   0.0600000    1.0080
  286        HC    1  MOL    H286   286   0.0600000    1.0080
  287        HC    1  MOL    H287   287   0.0600000    1.0080
  288        HC    1  MOL    H288   288   0.0600000    1.0080
  289        HC    1  MOL    H289   289   0.0600000    1.0080
  290        CT    1  MOL    C290   290  -0.1200000   12.0115
  291        CT    1  MOL    C291   291  -0.0600000   12.0115
  292       CO4    1  MOL    C292   292   0.5100000   12.0115
  293         O    1  MOL    O293   293  -0.4300000   15.9994
  294       OES    1  MOL    O294   294  -0.3300000   15.9994
  295        CT    1  MOL    C295   295   0.1900000   12.0115
  296        CT    1  MOL    C296   296  -0.1200000   12.0115
  297        CT    1  MOL    C297   297  -0.1800000   12.0115
  298        HC    1  MOL    H298   298   0.0600000    1.0080
  299        HC    1  MOL    H299   299   0.0600000    1.0080
  300       HAE    1  MOL    H300   300   0.0600000    1.0080
  301       HAE    1  MOL    H301   301   0.0300000    1.0080
  302       HAE    1  MOL    H302   302   0.0300000    1.0080
  303        HC    1  MOL    H303   303   0.0600000    1.0080
  304        HC    1  MOL    H304   304   0.0600000    1.0080
  305        HC    1  MOL    H305   305   0.0600000    1.0080
  306        HC    1  MOL    H306   306   0.0600000    1.0080
  307        HC    1  MOL    H307   307   0.0600000    1.0080
  308        CT    1  MOL    C308   308  -0.1200000   12.0115
  309        CT    1  MOL    C309   309  -0.0600000   12.0115
  310       CO4    1  MOL    C310   310   0.5100000   12.0115
  311         O    1  MOL    O311   311  -0.4300000   15.9994
  312       OES    1  MOL    O312   312  -0.3300000   15.9994
  313        CT    1  MOL    C313   313   0.1900000   12.0115
  314        CT    1  MOL    C314   314  -0.1200000   12.0115
  315        CT    1  MOL    C315   315  -0.1800000   12.0115
  316        HC    1  MOL    H316   316   0.0600000    1.0080
  317        HC    1  MOL    H317   317   0.0600000    1.0080
  318       HAE    1  MOL    H318   318   0.0600000    1.0080
  319       HAE    1  MOL    H319   319   0.0300000    1.0080
  320       HAE    1  MOL    H320   320   0.0300000    1.0080
  321        HC    1  MOL    H321   321   0.0600000    1.0080
  322        HC    1  MOL    H322   322   0.0600000    1.0080
  323        HC    1  MOL    H323   323   0.0600000    1.0080
  324        HC    1  MOL    H324   324   0.0600000    1.0080
  325        HC    1  MOL    H325   325   0.0600000    1.0080
  326        CT    1  MOL    C326   326  -0.1200000   12.0115
  327        CT    1  MOL    C327   327  -0.0600000   12.0115
  328       CO4    1  MOL    C328   328   0.5100000   12.0115
  329         O    1  MOL    O329   329  -0.4300000   15.9994
  330       OES    1  MOL    O330   330  -0.3300000   15.9994
  331        CT    1  MOL    C331   331   0.1900000   12.0115
  332        CT    1  MOL    C332   332  -0.1200000   12.0115
  333        CT    1  MOL    C333   333  -0.1800000   12.0115
  334        HC    1  MOL    H334   334   0.0600000    1.0080
  335        HC    1  MOL    H335   335   0.0600000    1.0080
  336       HAE    1  MOL    H336   336   0.0600000    1.0080
  337       HAE    1  MOL    H337   337   0.0300000    1.0080
  338       HAE    1  MOL    H338   338   0.0300000    1.0080
  339        HC    1  MOL    H339   339   0.0600000    1.0080
  340        HC    1  MOL    H340   340   0.0600000    1.0080
  341        HC    1  MOL    H341   341   0.0600000    1.0080
  342        HC    1  MOL    H342   342   0.0600000    1.0080
  343        HC    1  MOL    H343   343   0.0600000    1.0080
  344        CT    1  MOL    C344   344  -0.1200000   12.0115
  345        CT    1  MOL    C345   345  -0.1200000   12.0115
  346       CO4    1  MOL    C346   346   0.5100000   12.0115
  347         O    1  MOL    O347   347  -0.4300000   15.9994
  348       OES    1  MOL    O348   348  -0.3300000   15.9994
  349        CT    1  MOL    C349   349   0.1900000   12.0115
  350        CT    1  MOL    C350   350  -0.1200000   12.0115
  351        CT    1  MOL    C351   351  -0.1800000   12.0115
  352        HC    1  MOL    H352   352   0.0600000    1.0080
  353        HC    1  MOL    H353   353   0.0600000    1.0080
  354       HAE    1  MOL    H354   354   0.0600000    1.0080
  355       HAE    1  MOL    H355   355   0.0300000    1.0080
  356       HAE    1  MOL    H356   356   0.0300000    1.0080
  357        HC    1  MOL    H357   357   0.0600000    1.0080
  358        HC    1  MOL    H358   358   0.0600000    1.0080
  359        HC    1  MOL    H359   359   0.0600000    1.0080
  360        HC    1  MOL    H360   360   0.0600000    1.0080
  361        HC    1  MOL    H361   361   0.0600000    1.0080
  362       HAE    1  MOL    H362   362   0.0600000    1.0080

[ bonds ]
      1      2   1      0.1529 224262.4000
      1      9   1      0.1090 284512.0000
      1     10   1      0.1090 284512.0000
      1     19   1      0.1090 284512.0000
      2      3   1      0.1522 265265.6000
      2     11   1      0.1090 284512.0000
      2     20   1      0.1529 224262.4000
      3      4   1      0.1229 476976.0000
      3      5   1      0.1327 179075.2000
      5      6   1      0.1410 267776.0000
      6      7   1      0.1529 224262.4000
      6     12   1      0.1090 284512.0000
      6     13   1      0.1090 284512.0000
      7      8   1      0.1529 224262.4000
      7     14   1      0.1090 284512.0000
      7     15   1      0.1090 284512.0000
      8     16   1      0.1090 284512.0000
      8     17   1      0.1090 284512.0000
      8     18   1      0.1090 284512.0000
     20     21   1      0.1529 224262.4000
     20     28   1      0.1090 284512.0000
     20     29   1      0.1090 284512.0000
     21     22   1      0.1522 265265.6000
     21     30   1      0.1090 284512.0000
     21     38   1      0.1529 224262.4000
     22     23   1      0.1229 476976.0000
     22     24   1      0.1327 179075.2000
     24     25   1      0.1410 267776.0000
     25     26   1      0.1529 224262.4000
     25     31   1      0.1090 284512.0000
     25     32   1      0.1090 284512.0000
     26     27   1      0.1529 224262.4000
     26     33   1      0.1090 284512.0000
     26     34   1      0.1090 284512.0000
     27     35   1      0.1090 284512.0000
     27     36   1      0.1090 284512.0000
     27     37   1      0.1090 284512.0000
     38     39   1      0.1529 224262.4000
     38     46   1      0.1090 284512.0000
     38     47   1      0.1090 284512.0000
     39     40   1      0.1522 265265.6000
     39     48   1      0.1090 284512.0000
     39     56   1      0.1529 224262.4000
     40     41   1      0.1229 476976.0000
     40     42   1      0.1327 179075.2000
     42     43   1      0.1410 267776.0000
     43     44   1      0.1529 224262.4000
     43     49   1      0.1090 284512.0000
     43     50   1      0.1090 284512.0000
     44     45   1      0.1529 224262.4000
     44     51   1      0.1090 284512.0000
     44     52   1      0.1090 284512.0000
     45     53   1      0.1090 284512.0000
     45     54   1      0.1090 284512.0000
     45     55   1      0.1090 284512.0000
     56     57   1      0.1529 224262.4000
     56     64   1      0.1090 284512.0000
     56     65   1      0.1090 284512.0000
     57     58   1      0.1522 265265.6000
     57     66   1      0.1090 284512.0000
     57     74   1      0.1529 224262.4000
     58     59   1      0.1229 476976.0000
     58     60   1      0.1327 179075.2000
     60     61   1      0.1410 267776.0000
     61     62   1      0.1529 224262.4000
     61     67   1      0.1090 284512.0000
     61     68   1      0.1090 284512.0000
     62     63   1      0.1529 224262.4000
     62     69   1      0.1090 284512.0000
     62     70   1      0.1090 284512.0000
     63     71   1      0.1090 284512.0000
     63     72   1      0.1090 284512.0000
     63     73   1      0.1090 284512.0000
     74     75   1      0.1529 224262.4000
     74     82   1      0.1090 284512.0000
     74     83   1      0.1090 284512.0000
     75     76   1      0.1522 265265.6000
     75     84   1      0.1090 284512.0000
     75     92   1      0.1529 224262.4000
     76     77   1      0.1229 476976.0000
     76     78   1      0.1327 179075.2000
     78     79   1      0.1410 267776.0000
     79     80   1      0.1529 224262.4000
     79     85   1      0.1090 284512.0000
     79     86   1      0.1090 284512.0000
     80     81   1      0.1529 224262.4000
     80     87   1      0.1090 284512.0000
     80     88   1      0.1090 284512.0000
     81     89   1      0.1090 284512.0000
     81     90   1      0.1090 284512.0000
     81     91   1      0.1090 284512.0000
     92     93   1      0.1529 224262.4000
     92    100   1      0.1090 284512.0000
     92    101   1      0.1090 284512.0000
     93     94   1      0.1522 265265.6000
     93    102   1      0.1090 284512.0000
     93    110   1      0.1529 224262.4000
     94     95   1      0.1229 476976.0000
     94     96   1      0.1327 179075.2000
     96     97   1      0.1410 267776.0000
     97     98   1      0.1529 224262.4000
     97    103   1      0.1090 284512.0000
     97    104   1      0.1090 284512.0000
     98     99   1      0.1529 224262.4000
     98    105   1      0.1090 284512.0000
     98    106   1      0.1090 284512.0000
     99    107   1      0.1090 284512.0000
     99    108   1      0.1090 284512.0000
     99    109   1      0.1090 284512.0000
    110    111   1      0.1529 224262.4000
    110    118   1      0.1090 284512.0000
    110    119   1      0.1090 284512.0000
    111    112   1      0.1522 265265.6000
    111    120   1      0.1090 284512.0000
    111    128   1      0.1529 224262.4000
    112    113   1      0.1229 476976.0000
    112    114   1      0.1327 179075.2000
    114    115   1      0.1410 267776.0000
    115    116   1      0.1529 224262.4000
    115    121   1      0.1090 284512.0000
    115    122   1      0.1090 284512.0000
    116    117   1      0.1529 224262.4000
    116    123   1      0.1090 284512.0000
    116    124   1      0.1090 284512.0000
    117    125   1      0.1090 284512.0000
    117    126   1      0.1090 284512.0000
    117    127   1      0.1090 284512.0000
    128    129   1      0.1529 224262.4000
    128    136   1      0.1090 284512.0000
    128    137   1      0.1090 284512.0000
    129    130   1      0.1522 265265.6000
    129    138   1      0.1090 284512.0000
    129    146   1      0.1529 224262.4000
    130    131   1      0.1229 476976.0000
    130    132   1      0.1327 179075.2000
    132    133   1      0.1410 267776.0000
    133    134   1      0.1529 224262.4000
    133    139   1      0.1090 284512.0000
    133    140   1      0.1090 284512.0000
    134    135   1      0.1529 224262.4000
    134    141   1      0.1090 284512.0000
    134    142   1      0.1090 284512.0000
    135    143   1      0.1090 284512.0000
    135    144   1      0.1090 284512.0000
    135    145   1      0.1090 284512.0000
    146    147   1      0.1529 224262.4000
    146    154   1      0.1090 284512.0000
    146    155   1      0.1090 284512.0000
    147    148   1      0.1522 265265.6000
    147    156   1      0.1090 284512.0000
    147    164   1      0.1529 224262.4000
    148    149   1      0.1229 476976.0000
    148    150   1      0.1327 179075.2000
    150    151   1      0.1410 267776.0000
    151    152   1      0.1529 224262.4000
    151    157   1      0.1090 284512.0000
    151    158   1      0.1090 284512.0000
    152    153   1      0.1529 224262.4000
    152    159   1      0.1090 284512.0000
    152    160   1      0.1090 284512.0000
    153    161   1      0.1090 284512.0000
    153    162   1      0.1090 284512.0000
    153    163   1      0.1090 284512.0000
    164    165   1      0.1529 224262.4000
    164    172   1      0.1090 284512.0000
    164    173   1      0.1090 284512.0000
    165    166   1      0.1522 265265.6000
    165    174   1      0.1090 284512.0000
    165    182   1      0.1529 224262.4000
    166    167   1      0.1229 476976.0000
    166    168   1      0.1327 179075.2000
    168    169   1      0.1410 267776.0000
    169    170   1      0.1529 224262.4000
    169    175   1      0.1090 284512.0000
    169    176   1      0.1090 284512.0000
    170    171   1      0.1529 224262.4000
    170    177   1      0.1090 284512.0000
    170    178   1      0.1090 284512.0000
    171    179   1      0.1090 284512.0000
    171    180   1      0.1090 284512.0000
    171    181   1      0.1090 284512.0000
    182    183   1      0.1529 224262.4000
    182    190   1      0.1090 284512.0000
    182    191   1      0.1090 284512.0000
    183    184   1      0.1522 265265.6000
    183    192   1      0.1090 284512.0000
    183    200   1      0.1529 224262.4000
    184    185   1      0.1229 476976.0000
    184    186   1      0.1327 179075.2000
    186    187   1      0.1410 267776.0000
    187    188   1      0.1529 224262.4000
    187    193   1      0.1090 284512.0000
    187    194   1      0.1090 284512.0000
    188    189   1      0.1529 224262.4000
    188    195   1      0.1090 284512.0000
    188    196   1      0.1090 284512.0000
    189    197   1      0.1090 284512.0000
    189    198   1      0.1090 284512.0000
    189    199   1      0.1090 284512.0000
    200    201   1      0.1529 224262.4000
    200    208   1      0.1090 284512.0000
    200    209   1      0.1090 284512.0000
    201    202   1      0.1522 265265.6000
    201    210   1      0.1090 284512.0000
    201    218   1      0.1529 224262.4000
    202    203   1      0.1229 476976.0000
    202    204   1      0.1327 179075.2000
    204    205   1      0.1410 267776.0000
    205    206   1      0.1529 224262.4000
    205    211   1      0.1090 284512.0000
    205    212   1      0.1090 284512.0000
    206    207   1      0.1529 224262.4000
    206    213   1      0.1090 284512.0000
    206    214   1      0.1090 284512.0000
    207    215   1      0.1090 284512.0000
    207    216   1      0.1090 284512.0000
    207    217   1      0.1090 284512.0000
    218    219   1      0.1529 224262.4000
    218    226   1      0.1090 284512.0000
    218    227   1      0.1090 284512.0000
    219    220   1      0.1522 265265.6000
    219    228   1      0.1090 284512.0000
    219    236   1      0.1529 224262.4000
    220    221   1      0.1229 476976.0000
    220    222   1      0.1327 179075.2000
    222    223   1      0.1410 267776.0000
    223    224   1      0.1529 224262.4000
    223    229   1      0.1090 284512.0000
    223    230   1      0.1090 284512.0000
    224    225   1      0.1529 224262.4000
    224    231   1      0.1090 284512.0000
    224    232   1      0.1090 284512.0000
    225    233   1      0.1090 284512.0000
    225    234   1      0.1090 284512.0000
    225    235   1      0.1090 284512.0000
    236    237   1      0.1529 224262.4000
    236    244   1      0.1090 284512.0000
    236    245   1      0.1090 284512.0000
    237    238   1      0.1522 265265.6000
    237    246   1      0.1090 284512.0000
    237    254   1      0.1529 224262.4000
    238    239   1      0.1229 476976.0000
    238    240   1      0.1327 179075.2000
    240    241   1      0.1410 267776.0000
    241    242   1      0.1529 224262.4000
    241    247   1      0.1090 284512.0000
    241    248   1      0.1090 284512.0000
    242    243   1      0.1529 224262.4000
    242    249   1      0.1090 284512.0000
    242    250   1      0.1090 284512.0000
    243    251   1      0.1090 284512.0000
    243    252   1      0.1090 284512.0000
    243    253   1      0.1090 284512.0000
    254    255   1      0.1529 224262.4000
    254    262   1      0.1090 284512.0000
    254    263   1      0.1090 284512.0000
    255    256   1      0.1522 265265.6000
    255    264   1      0.1090 284512.0000
    255    272   1      0.1529 224262.4000
    256    257   1      0.1229 476976.0000
    256    258   1      0.1327 179075.2000
    258    259   1      0.1410 267776.0000
    259    260   1      0.1529 224262.4000
    259    265   1      0.1090 284512.0000
    259    266   1      0.1090 284512.0000
    260    261   1      0.1529 224262.4000
    260    267   1      0.1090 284512.0000
    260    268   1      0.1090 284512.0000
    261    269   1      0.1090 284512.0000
    261    270   1      0.1090 284512.0000
    261    271   1      0.1090 284512.0000
    272    273   1      0.1529 224262.4000
    272    280   1      0.1090 284512.0000
    272    281   1      0.1090 284512.0000
    273    274   1      0.1522 265265.6000
    273    282   1      0.1090 284512.0000
    273    290   1      0.1529 224262.4000
    274    275   1      0.1229 476976.0000
    274    276   1      0.1327 179075.2000
    276    277   1      0.1410 267776.0000
    277    278   1      0.1529 224262.4000
    277    283   1      0.1090 284512.0000
    277    284   1      0.1090 284512.0000
    278    279   1      0.1529 224262.4000
    278    285   1      0.1090 284512.0000
    278    286   1      0.1090 284512.0000
    279    287   1      0.1090 284512.0000
    279    288   1      0.1090 284512.0000
    279    289   1      0.1090 284512.0000
    290    291   1      0.1529 224262.4000
    290    298   1      0.1090 284512.0000
    290    299   1      0.1090 284512.0000
    291    292   1      0.1522 265265.6000
    291    300   1      0.1090 284512.0000
    291    308   1      0.1529 224262.4000
    292    293   1      0.1229 476976.0000
    292    294   1      0.1327 179075.2000
    294    295   1      0.1410 267776.0000
    295    296   1      0.1529 224262.4000
    295    301   1      0.1090 284512.0000
    295    302   1      0.1090 284512.0000
    296    297   1      0.1529 224262.4000
    296    303   1      0.1090 284512.0000
    296    304   1      0.1090 284512.0000
    297    305   1      0.1090 284512.0000
    297    306   1      0.1090 284512.0000
    297    307   1      0.1090 284512.0000
    308    309   1      0.1529 224262.4000
    308    316   1      0.1090 284512.0000
    308    317   1      0.1090 284512.0000
    309    310   1      0.1522 265265.6000
    309    318   1      0.1090 284512.0000
    309    326   1      0.1529 224262.4000
    310    311   1      0.1229 476976.0000
    310    312   1      0.1327 179075.2000
    312    313   1      0.1410 267776.0000
    313    314   1      0.1529 224262.4000
    313    319   1      0.1090 284512.0000
    313    320   1      0.1090 284512.0000
    314    315   1      0.1529 224262.4000
    314    321   1      0.1090 284512.0000
    314    322   1      0.1090 284512.0000
    315    323   1      0.1090 284512.0000
    315    324   1      0.1090 284512.0000
    315    325   1      0.1090 284512.0000
    326    327   1      0.1529 224262.4000
    326    334   1      0.1090 284512.0000
    326    335   1      0.1090 284512.0000
    327    328   1      0.1522 265265.6000
    327    336   1      0.1090 284512.0000
    327    344   1      0.1529 224262.4000
    328    329   1      0.1229 476976.0000
    328    330   1      0.1327 179075.2000
    330    331   1      0.1410 267776.0000
    331    332   1      0.1529 224262.4000
    331    337   1      0.1090 284512.0000
    331    338   1      0.1090 284512.0000
    332    333   1      0.1529 224262.4000
    332    339   1      0.1090 284512.0000
    332    340   1      0.1090 284512.0000
    333    341   1      0.1090 284512.0000
    333    342   1      0.1090 284512.0000
    333    343   1      0.1090 284512.0000
    344    345   1      0.1529 224262.4000
    344    352   1      0.1090 284512.0000
    344    353   1      0.1090 284512.0000
    345    346   1      0.1522 265265.6000
    345    354   1      0.1090 284512.0000
    345    362   1      0.1090 284512.0000
    346    347   1      0.1229 476976.0000
    346    348   1      0.1327 179075.2000
    348    349   1      0.1410 267776.0000
    349    350   1      0.1529 224262.4000
    349    355   1      0.1090 284512.0000
    349    356   1      0.1090 284512.0000
    350    351   1      0.1529 224262.4000
    350    357   1      0.1090 284512.0000
    350    358   1      0.1090 284512.0000
    351    359   1      0.1090 284512.0000
    351    360   1      0.1090 284512.0000
    351    361   1      0.1090 284512.0000

[ pairs ]
; ai   aj   funct   fudge_QQ  charge_i   charge_j   c6    c12
      9      3   2   0.50000     0.0600000    0.5100000   3.869820e-04  3.188634e-07
      9     11   2   0.50000     0.0600000    0.0600000   3.930919e-05  8.704828e-09
      9     20   2   0.50000     0.0600000   -0.1200000   2.494471e-04  1.671101e-07
     10      3   2   0.50000     0.0600000    0.5100000   3.869820e-04  3.188634e-07
     10     11   2   0.50000     0.0600000    0.0600000   3.930919e-05  8.704828e-09
     10     20   2   0.50000     0.0600000   -0.1200000   2.494471e-04  1.671101e-07
     19      3   2   0.50000     0.0600000    0.5100000   3.869820e-04  3.188634e-07
     19     11   2   0.50000     0.0600000    0.0600000   3.930919e-05  8.704828e-09
     19     20   2   0.50000     0.0600000   -0.1200000   2.494471e-04  1.671101e-07
      1      4   2   0.50000    -0.1800000   -0.4300000   1.095425e-03  1.218041e-06
      1      5   2   0.50000    -0.1800000   -0.3300000   1.026091e-03  1.187829e-06
     11      4   2   0.50000     0.0600000   -0.4300000   1.726228e-04  6.344822e-08
     11      5   2   0.50000     0.0600000   -0.3300000   1.616969e-04  6.187447e-08
     20      4   2   0.50000    -0.1200000   -0.4300000   1.095425e-03  1.218041e-06
     20      5   2   0.50000    -0.1200000   -0.3300000   1.026091e-03  1.187829e-06
      1     21   2   0.50000    -0.1800000   -0.0600000   1.015252e-03  1.866303e-06
      1     28   2   0.50000    -0.1800000    0.0600000   2.494471e-04  1.671101e-07
      1     29   2   0.50000    -0.1800000    0.0600000   2.494471e-04  1.671101e-07
      3     21   2   0.50000     0.5100000   -0.0600000   1.575021e-03  3.561100e-06
      3     28   2   0.50000     0.5100000    0.0600000   3.869820e-04  3.188634e-07
      3     29   2   0.50000     0.5100000    0.0600000   3.869820e-04  3.188634e-07
     11     21   2   0.50000     0.0600000   -0.0600000   1.599888e-04  9.721644e-08
     11     28   2   0.50000     0.0600000    0.0600000   3.930919e-05  8.704828e-09
     11     29   2   0.50000     0.0600000    0.0600000   3.930919e-05  8.704828e-09
      2      6   2   0.50000    -0.0600000    0.1900000   1.015252e-03  1.866303e-06
      4      6   2   0.50000    -0.4300000    0.1900000   1.095425e-03  1.218041e-06
      3      7   2   0.50000     0.5100000   -0.1200000   1.575021e-03  3.561100e-06
      3     12   2   0.50000     0.5100000    0.0300000   2.482000e-04  1.854991e-07
      3     13   2   0.50000     0.5100000    0.0300000   2.482000e-04  1.854991e-07
      5      8   2   0.50000    -0.3300000   -0.1800000   1.026091e-03  1.187829e-06
      5     14   2   0.50000    -0.3300000    0.0600000   2.521103e-04  1.063590e-07
      5     15   2   0.50000    -0.3300000    0.0600000   2.521103e-04  1.063590e-07
     12      8   2   0.50000     0.0300000   -0.1800000   1.599888e-04  9.721644e-08
     12     14   2   0.50000     0.0300000    0.0600000   3.930919e-05  8.704828e-09
     12     15   2   0.50000     0.0300000    0.0600000   3.930919e-05  8.704828e-09
     13      8   2   0.50000     0.0300000   -0.1800000   1.599888e-04  9.721644e-08
     13     14   2   0.50000     0.0300000    0.0600000   3.930919e-05  8.704828e-09
     13     15   2   0.50000     0.0300000    0.0600000   3.930919e-05  8.704828e-09
      6     16   2   0.50000     0.1900000    0.0600000   2.494471e-04  1.671101e-07
      6     17   2   0.50000     0.1900000    0.0600000   2.494471e-04  1.671101e-07
      6     18   2   0.50000     0.1900000    0.0600000   2.494471e-04  1.671101e-07
     14     16   2   0.50000     0.0600000    0.0600000   6.128906e-05  1.496315e-08
     14     17   2   0.50000     0.0600000    0.0600000   6.128906e-05  1.496315e-08
     14     18   2   0.50000     0.0600000    0.0600000   6.128906e-05  1.496315e-08
     15     16   2   0.50000     0.0600000    0.0600000   6.128906e-05  1.496315e-08
     15     17   2   0.50000     0.0600000    0.0600000   6.128906e-05  1.496315e-08
     15     18   2   0.50000     0.0600000    0.0600000   6.128906e-05  1.496315e-08
      2     22   2   0.50000    -0.0600000    0.5100000   1.575021e-03  3.561100e-06
      2     30   2   0.50000    -0.0600000    0.0600000   1.599888e-04  9.721644e-08
      2     38   2   0.50000    -0.0600000   -0.1200000   1.015252e-03  1.866303e-06
     28     22   2   0.50000     0.0600000    0.5100000   3.869820e-04  3.188634e-07
     28     30   2   0.50000     0.0600000    0.0600000   3.930919e-05  8.704828e-09
     28     38   2   0.50000     0.0600000   -0.1200000   2.494471e-04  1.671101e-07
     29     22   2   0.50000     0.0600000    0.5100000   3.869820e-04  3.188634e-07
     29     30   2   0.50000     0.0600000    0.0600000   3.930919e-05  8.704828e-09
     29     38   2   0.50000     0.0600000   -0.1200000   2.494471e-04  1.671101e-07
     20     23   2   0.50000    -0.1200000   -0.4300000   1.095425e-03  1.218041e-06
     20     24   2   0.50000    -0.1200000   -0.3300000   1.026091e-03  1.187829e-06
     30     23   2   0.50000     0.0600000   -0.4300000   1.726228e-04  6.344822e-08
     30     24   2   0.50000     0.0600000   -0.3300000   1.616969e-04  6.187447e-08
     38     23   2   0.50000    -0.1200000   -0.4300000   1.095425e-03  1.218041e-06
     38     24   2   0.50000    -0.1200000   -0.3300000   1.026091e-03  1.187829e-06
     20     39   2   0.50000    -0.1200000   -0.0600000   1.015252e-03  1.866303e-06
     20     46   2   0.50000    -0.1200000    0.0600000   2.494471e-04  1.671101e-07
     20     47   2   0.50000    -0.1200000    0.0600000   2.494471e-04  1.671101e-07
     22     39   2   0.50000     0.5100000   -0.0600000   1.575021e-03  3.561100e-06
     22     46   2   0.50000     0.5100000    0.0600000   3.869820e-04  3.188634e-07
     22     47   2   0.50000     0.5100000    0.0600000   3.869820e-04  3.188634e-07
     30     39   2   0.50000     0.0600000   -0.0600000   1.599888e-04  9.721644e-08
     30     46   2   0.50000     0.0600000    0.0600000   3.930919e-05  8.704828e-09
     30     47   2   0.50000     0.0600000    0.0600000   3.930919e-05  8.704828e-09
     21     25   2   0.50000    -0.0600000    0.1900000   1.015252e-03  1.866303e-06
     23     25   2   0.50000    -0.4300000    0.1900000   1.095425e-03  1.218041e-06
     22     26   2   0.50000     0.5100000   -0.1200000   1.575021e-03  3.561100e-06
     22     31   2   0.50000     0.5100000    0.0300000   2.482000e-04  1.854991e-07
     22     32   2   0.50000     0.5100000    0.0300000   2.482000e-04  1.854991e-07
     24     27   2   0.50000    -0.3300000   -0.1800000   1.026091e-03  1.187829e-06
     24     33   2   0.50000    -0.3300000    0.0600000   2.521103e-04  1.063590e-07
     24     34   2   0.50000    -0.3300000    0.0600000   2.521103e-04  1.063590e-07
     31     27   2   0.50000     0.0300000   -0.1800000   1.599888e-04  9.721644e-08
     31     33   2   0.50000     0.0300000    0.0600000   3.930919e-05  8.704828e-09
     31     34   2   0.50000     0.0300000    0.0600000   3.930919e-05  8.704828e-09
     32     27   2   0.50000     0.0300000   -0.1800000   1.599888e-04  9.721644e-08
     32     33   2   0.50000     0.0300000    0.0600000   3.930919e-05  8.704828e-09
     32     34   2   0.50000     0.0300000    0.0600000   3.930919e-05  8.704828e-09
     25     35   2   0.50000     0.1900000    0.0600000   2.494471e-04  1.671101e-07
     25     36   2   0.50000     0.1900000    0.0600000   2.494471e-04  1.671101e-07
     25     37   2   0.50000     0.1900000    0.0600000   2.494471e-04  1.671101e-07
     33     35   2   0.50000     0.0600000    0.0600000   6.128906e-05  1.496315e-08
     33     36   2   0.50000     0.0600000    0.0600000   6.128906e-05  1.496315e-08
     33     37   2   0.50000     0.0600000    0.0600000   6.128906e-05  1.496315e-08
     34     35   2   0.50000     0.0600000    0.0600000   6.128906e-05  1.496315e-08
     34     36   2   0.50000     0.0600000    0.0600000   6.128906e-05  1.496315e-08
     34     37   2   0.50000     0.0600000    0.0600000   6.128906e-05  1.496315e-08
     21     40   2   0.50000    -0.0600000    0.5100000   1.575021e-03  3.561100e-06
     21     48   2   0.50000    -0.0600000    0.0600000   1.599888e-04  9.721644e-08
     21     56   2   0.50000    -0.0600000   -0.1200000   1.015252e-03  1.866303e-06
     46     40   2   0.50000     0.0600000    0.5100000   3.869820e-04  3.188634e-07
     46     48   2   0.50000     0.0600000    0.0600000   3.930919e-05  8.704828e-09
     46     56   2   0.50000     0.0600000   -0.1200000   2.494471e-04  1.671101e-07
     47     40   2   0.50000     0.0600000    0.5100000   3.869820e-04  3.188634e-07
     47     48   2   0.50000     0.0600000    0.0600000   3.930919e-05  8.704828e-09
     47     56   2   0.50000     0.0600000   -0.1200000   2.494471e-04  1.671101e-07
     38     41   2   0.50000    -0.1200000   -0.4300000   1.095425e-03  1.218041e-06
     38     42   2   0.50000    -0.1200000   -0.3300000   1.026091e-03  1.187829e-06
     48     41   2   0.50000     0.0600000   -0.4300000   1.726228e-04  6.344822e-08
     48     42   2   0.50000     0.0600000   -0.3300000   1.616969e-04  6.187447e-08
     56     41   2   0.50000    -0.1200000   -0.4300000   1.095425e-03  1.218041e-06
     56     42   2   0.50000    -0.1200000   -0.3300000   1.026091e-03  1.187829e-06
     38     57   2   0.50000    -0.1200000   -0.0600000   1.015252e-03  1.866303e-06
     38     64   2   0.50000    -0.1200000    0.0600000   2.494471e-04  1.671101e-07
     38     65   2   0.50000    -0.1200000    0.0600000   2.494471e-04  1.671101e-07
     40     57   2   0.50000     0.5100000   -0.0600000   1.575021e-03  3.561100e-06
     40     64   2   0.50000     0.5100000    0.0600000   3.869820e-04  3.188634e-07
     40     65   2   0.50000     0.5100000    0.0600000   3.869820e-04  3.188634e-07
     48     57   2   0.50000     0.0600000   -0.0600000   1.599888e-04  9.721644e-08
     48     64   2   0.50000     0.0600000    0.0600000   3.930919e-05  8.704828e-09
     48     65   2   0.50000     0.0600000    0.0600000   3.930919e-05  8.704828e-09
     39     43   2   0.50000    -0.0600000    0.1900000   1.015252e-03  1.866303e-06
     41     43   2   0.50000    -0.4300000    0.1900000   1.095425e-03  1.218041e-06
     40     44   2   0.50000     0.5100000   -0.1200000   1.575021e-03  3.561100e-06
     40     49   2   0.50000     0.5100000    0.0300000   2.482000e-04  1.854991e-07
     40     50   2   0.50000     0.5100000    0.0300000   2.482000e-04  1.854991e-07
     42     45   2   0.50000    -0.3300000   -0.1800000   1.026091e-03  1.187829e-06
     42     51   2   0.50000    -0.3300000    0.0600000   2.521103e-04  1.063590e-07
     42     52   2   0.50000    -0.3300000    0.0600000   2.521103e-04  1.063590e-07
     49     45   2   0.50000     0.0300000   -0.1800000   1.599888e-04  9.721644e-08
     49     51   2   0.50000     0.0300000    0.0600000   3.930919e-05  8.704828e-09
     49     52   2   0.50000     0.0300000    0.0600000   3.930919e-05  8.704828e-09
     50     45   2   0.50000     0.0300000   -0.1800000   1.599888e-04  9.721644e-08
     50     51   2   0.50000     0.0300000    0.0600000   3.930919e-05  8.704828e-09
     50     52   2   0.50000     0.0300000    0.0600000   3.930919e-05  8.704828e-09
     43     53   2   0.50000     0.1900000    0.0600000   2.494471e-04  1.671101e-07
     43     54   2   0.50000     0.1900000    0.0600000   2.494471e-04  1.671101e-07
     43     55   2   0.50000     0.1900000    0.0600000   2.494471e-04  1.671101e-07
     51     53   2   0.50000     0.0600000    0.0600000   6.128906e-05  1.496315e-08
     51     54   2   0.50000     0.0600000    0.0600000   6.128906e-05  1.496315e-08
     51     55   2   0.50000     0.0600000    0.0600000   6.128906e-05  1.496315e-08
     52     53   2   0.50000     0.0600000    0.0600000   6.128906e-05  1.496315e-08
     52     54   2   0.50000     0.0600000    0.0600000   6.128906e-05  1.496315e-08
     52     55   2   0.50000     0.0600000    0.0600000   6.128906e-05  1.496315e-08
     39     58   2   0.50000    -0.0600000    0.5100000   1.575021e-03  3.561100e-06
     39     66   2   0.50000    -0.0600000    0.0600000   1.599888e-04  9.721644e-08
     39     74   2   0.50000    -0.0600000   -0.1200000   1.015252e-03  1.866303e-06
     64     58   2   0.50000     0.0600000    0.5100000   3.869820e-04  3.188634e-07
     64     66   2   0.50000     0.0600000    0.0600000   3.930919e-05  8.704828e-09
     64     74   2   0.50000     0.0600000   -0.1200000   2.494471e-04  1.671101e-07
     65     58   2   0.50000     0.0600000    0.5100000   3.869820e-04  3.188634e-07
     65     66   2   0.50000     0.0600000    0.0600000   3.930919e-05  8.704828e-09
     65     74   2   0.50000     0.0600000   -0.1200000   2.494471e-04  1.671101e-07
     56     59   2   0.50000    -0.1200000   -0.4300000   1.095425e-03  1.218041e-06
     56     60   2   0.50000    -0.1200000   -0.3300000   1.026091e-03  1.187829e-06
     66     59   2   0.50000     0.0600000   -0.4300000   1.726228e-04  6.344822e-08
     66     60   2   0.50000     0.0600000   -0.3300000   1.616969e-04  6.187447e-08
     74     59   2   0.50000    -0.1200000   -0.4300000   1.095425e-03  1.218041e-06
     74     60   2   0.50000    -0.1200000   -0.3300000   1.026091e-03  1.187829e-06
     56     75   2   0.50000    -0.1200000   -0.0600000   1.015252e-03  1.866303e-06
     56     82   2   0.50000    -0.1200000    0.0600000   2.494471e-04  1.671101e-07
     56     83   2   0.50000    -0.1200000    0.0600000   2.494471e-04  1.671101e-07
     58     75   2   0.50000     0.5100000   -0.0600000   1.575021e-03  3.561100e-06
     58     82   2   0.50000     0.5100000    0.0600000   3.869820e-04  3.188634e-07
     58     83   2   0.50000     0.5100000    0.0600000   3.869820e-04  3.188634e-07
     66     75   2   0.50000     0.0600000   -0.0600000   1.599888e-04  9.721644e-08
     66     82   2   0.50000     0.0600000    0.0600000   3.930919e-05  8.704828e-09
     66     83   2   0.50000     0.0600000    0.0600000   3.930919e-05  8.704828e-09
     57     61   2   0.50000    -0.0600000    0.1900000   1.015252e-03  1.866303e-06
     59     61   2   0.50000    -0.4300000    0.1900000   1.095425e-03  1.218041e-06
     58     62   2   0.50000     0.5100000   -0.1200000   1.575021e-03  3.561100e-06
     58     67   2   0.50000     0.5100000    0.0300000   2.482000e-04  1.854991e-07
     58     68   2   0.50000     0.5100000    0.0300000   2.482000e-04  1.854991e-07
     60     63   2   0.50000    -0.3300000   -0.1800000   1.026091e-03  1.187829e-06
     60     69   2   0.50000    -0.3300000    0.0600000   2.521103e-04  1.063590e-07
     60     70   2   0.50000    -0.3300000    0.0600000   2.521103e-04  1.063590e-07
     67     63   2   0.50000     0.0300000   -0.1800000   1.599888e-04  9.721644e-08
     67     69   2   0.50000     0.0300000    0.0600000   3.930919e-05  8.704828e-09
     67     70   2   0.50000     0.0300000    0.0600000   3.930919e-05  8.704828e-09
     68     63   2   0.50000     0.0300000   -0.1800000   1.599888e-04  9.721644e-08
     68     69   2   0.50000     0.0300000    0.0600000   3.930919e-05  8.704828e-09
     68     70   2   0.50000     0.0300000    0.0600000   3.930919e-05  8.704828e-09
     61     71   2   0.50000     0.1900000    0.0600000   2.494471e-04  1.671101e-07
     61     72   2   0.50000     0.1900000    0.0600000   2.494471e-04  1.671101e-07
     61     73   2   0.50000     0.1900000    0.0600000   2.494471e-04  1.671101e-07
     69     71   2   0.50000     0.0600000    0.0600000   6.128906e-05  1.496315e-08
     69     72   2   0.50000     0.0600000    0.0600000   6.128906e-05  1.496315e-08
     69     73   2   0.50000     0.0600000    0.0600000   6.128906e-05  1.496315e-08
     70     71   2   0.50000     0.0600000    0.0600000   6.128906e-05  1.496315e-08
     70     72   2   0.50000     0.0600000    0.0600000   6.128906e-05  1.496315e-08
     70     73   2   0.50000     0.0600000    0.0600000   6.128906e-05  1.496315e-08
     57     76   2   0.50000    -0.0600000    0.5100000   1.575021e-03  3.561100e-06
     57     84   2   0.50000    -0.0600000    0.0600000   1.599888e-04  9.721644e-08
     57     92   2   0.50000    -0.0600000   -0.1200000   1.015252e-03  1.866303e-06
     82     76   2   0.50000     0.0600000    0.5100000   3.869820e-04  3.188634e-07
     82     84   2   0.50000     0.0600000    0.0600000   3.930919e-05  8.704828e-09
     82     92   2   0.50000     0.0600000   -0.1200000   2.494471e-04  1.671101e-07
     83     76   2   0.50000     0.0600000    0.5100000   3.869820e-04  3.188634e-07
     83     84   2   0.50000     0.0600000    0.0600000   3.930919e-05  8.704828e-09
     83     92   2   0.50000     0.0600000   -0.1200000   2.494471e-04  1.671101e-07
     74     77   2   0.50000    -0.1200000   -0.4300000   1.095425e-03  1.218041e-06
     74     78   2   0.50000    -0.1200000   -0.3300000   1.026091e-03  1.187829e-06
     84     77   2   0.50000     0.0600000   -0.4300000   1.726228e-04  6.344822e-08
     84     78   2   0.50000     0.0600000   -0.3300000   1.616969e-04  6.187447e-08
     92     77   2   0.50000    -0.1200000   -0.4300000   1.095425e-03  1.218041e-06
     92     78   2   0.50000    -0.1200000   -0.3300000   1.026091e-03  1.187829e-06
     74     93   2   0.50000    -0.1200000   -0.0600000   1.015252e-03  1.866303e-06
     74    100   2   0.50000    -0.1200000    0.0600000   2.494471e-04  1.671101e-07
     74    101   2   0.50000    -0.1200000    0.0600000   2.494471e-04  1.671101e-07
     76     93   2   0.50000     0.5100000   -0.0600000   1.575021e-03  3.561100e-06
     76    100   2   0.50000     0.5100000    0.0600000   3.869820e-04  3.188634e-07
     76    101   2   0.50000     0.5100000    0.0600000   3.869820e-04  3.188634e-07
     84     93   2   0.50000     0.0600000   -0.0600000   1.599888e-04  9.721644e-08
     84    100   2   0.50000     0.0600000    0.0600000   3.930919e-05  8.704828e-09
     84    101   2   0.50000     0.0600000    0.0600000   3.930919e-05  8.704828e-09
     75     79   2   0.50000    -0.0600000    0.1900000   1.015252e-03  1.866303e-06
     77     79   2   0.50000    -0.4300000    0.1900000   1.095425e-03  1.218041e-06
     76     80   2   0.50000     0.5100000   -0.1200000   1.575021e-03  3.561100e-06
     76     85   2   0.50000     0.5100000    0.0300000   2.482000e-04  1.854991e-07
     76     86   2   0.50000     0.5100000    0.0300000   2.482000e-04  1.854991e-07
     78     81   2   0.50000    -0.3300000   -0.1800000   1.026091e-03  1.187829e-06
     78     87   2   0.50000    -0.3300000    0.0600000   2.521103e-04  1.063590e-07
     78     88   2   0.50000    -0.3300000    0.0600000   2.521103e-04  1.063590e-07
     85     81   2   0.50000     0.0300000   -0.1800000   1.599888e-04  9.721644e-08
     85     87   2   0.50000     0.0300000    0.0600000   3.930919e-05  8.704828e-09
     85     88   2   0.50000     0.0300000    0.0600000   3.930919e-05  8.704828e-09
     86     81   2   0.50000     0.0300000   -0.1800000   1.599888e-04  9.721644e-08
     86     87   2   0.50000     0.0300000    0.0600000   3.930919e-05  8.704828e-09
     86     88   2   0.50000     0.0300000    0.0600000   3.930919e-05  8.704828e-09
     79     89   2   0.50000     0.1900000    0.0600000   2.494471e-04  1.671101e-07
     79     90   2   0.50000     0.1900000    0.0600000   2.494471e-04  1.671101e-07
     79     91   2   0.50000     0.1900000    0.0600000   2.494471e-04  1.671101e-07
     87     89   2   0.50000     0.0600000    0.0600000   6.128906e-05  1.496315e-08
     87     90   2   0.50000     0.0600000    0.0600000   6.128906e-05  1.496315e-08
     87     91   2   0.50000     0.0600000    0.0600000   6.128906e-05  1.496315e-08
     88     89   2   0.50000     0.0600000    0.0600000   6.128906e-05  1.496315e-08
     88     90   2   0.50000     0.0600000    0.0600000   6.128906e-05  1.496315e-08
     88     91   2   0.50000     0.0600000    0.0600000   6.128906e-05  1.496315e-08
     75     94   2   0.50000    -0.0600000    0.5100000   1.575021e-03  3.561100e-06
     75    102   2   0.50000    -0.0600000    0.0600000   1.599888e-04  9.721644e-08
     75    110   2   0.50000    -0.0600000   -0.1200000   1.015252e-03  1.866303e-06
    100     94   2   0.50000     0.0600000    0.5100000   3.869820e-04  3.188634e-07
    100    102   2   0.50000     0.0600000    0.0600000   3.930919e-05  8.704828e-09
    100    110   2   0.50000     0.0600000   -0.1200000   2.494471e-04  1.671101e-07
    101     94   2   0.50000     0.0600000    0.5100000   3.869820e-04  3.188634e-07
    101    102   2   0.50000     0.0600000    0.0600000   3.930919e-05  8.704828e-09
    101    110   2   0.50000     0.0600000   -0.1200000   2.494471e-04  1.671101e-07
     92     95   2   0.50000    -0.1200000   -0.4300000   1.095425e-03  1.218041e-06
     92     96   2   0.50000    -0.1200000   -0.3300000   1.026091e-03  1.187829e-06
    102     95   2   0.50000     0.0600000   -0.4300000   1.726228e-04  6.344822e-08
    102     96   2   0.50000     0.0600000   -0.3300000   1.616969e-04  6.187447e-08
    110     95   2   0.50000    -0.1200000   -0.4300000   1.095425e-03  1.218041e-06
    110     96   2   0.50000    -0.1200000   -0.3300000   1.026091e-03  1.187829e-06
     92    111   2   0.50000    -0.1200000   -0.0600000   1.015252e-03  1.866303e-06
     92    118   2   0.50000    -0.1200000    0.0600000   2.494471e-04  1.671101e-07
     92    119   2   0.50000    -0.1200000    0.0600000   2.494471e-04  1.671101e-07
     94    111   2   0.50000     0.5100000   -0.0600000   1.575021e-03  3.561100e-06
     94    118   2   0.50000     0.5100000    0.0600000   3.869820e-04  3.188634e-07
     94    119   2   0.50000     0.5100000    0.0600000   3.869820e-04  3.188634e-07
    102    111   2   0.50000     0.0600000   -0.0600000   1.599888e-04  9.721644e-08
    102    118   2   0.50000     0.0600000    0.0600000   3.930919e-05  8.704828e-09
    102    119   2   0.50000     0.0600000    0.0600000   3.930919e-05  8.704828e-09
     93     97   2   0.50000    -0.0600000    0.1900000   1.015252e-03  1.866303e-06
     95     97   2   0.50000    -0.4300000    0.1900000   1.095425e-03  1.218041e-06
     94     98   2   0.50000     0.5100000   -0.1200000   1.575021e-03  3.561100e-06
     94    103   2   0.50000     0.5100000    0.0300000   2.482000e-04  1.854991e-07
     94    104   2   0.50000     0.5100000    0.0300000   2.482000e-04  1.854991e-07
     96     99   2   0.50000    -0.3300000   -0.1800000   1.026091e-03  1.187829e-06
     96    105   2   0.50000    -0.3300000    0.0600000   2.521103e-04  1.063590e-07
     96    106   2   0.50000    -0.3300000    0.0600000   2.521103e-04  1.063590e-07
    103     99   2   0.50000     0.0300000   -0.1800000   1.599888e-04  9.721644e-08
    103    105   2   0.50000     0.0300000    0.0600000   3.930919e-05  8.704828e-09
    103    106   2   0.50000     0.0300000    0.0600000   3.930919e-05  8.704828e-09
    104     99   2   0.50000     0.0300000   -0.1800000   1.599888e-04  9.721644e-08
    104    105   2   0.50000     0.0300000    0.0600000   3.930919e-05  8.704828e-09
    104    106   2   0.50000     0.0300000    0.0600000   3.930919e-05  8.704828e-09
     97    107   2   0.50000     0.1900000    0.0600000   2.494471e-04  1.671101e-07
     97    108   2   0.50000     0.1900000    0.0600000   2.494471e-04  1.671101e-07
     97    109   2   0.50000     0.1900000    0.0600000   2.494471e-04  1.671101e-07
    105    107   2   0.50000     0.0600000    0.0600000   6.128906e-05  1.496315e-08
    105    108   2   0.50000     0.0600000    0.0600000   6.128906e-05  1.496315e-08
    105    109   2   0.50000     0.0600000    0.0600000   6.128906e-05  1.496315e-08
    106    107   2   0.50000     0.0600000    0.0600000   6.128906e-05  1.496315e-08
    106    108   2   0.50000     0.0600000    0.0600000   6.128906e-05  1.496315e-08
    106    109   2   0.50000     0.0600000    0.0600000   6.128906e-05  1.496315e-08
     93    112   2   0.50000    -0.0600000    0.5100000   1.575021e-03  3.561100e-06
     93    120   2   0.50000    -0.0600000    0.0600000   1.599888e-04  9.721644e-08
     93    128   2   0.50000    -0.0600000   -0.1200000   1.015252e-03  1.866303e-06
    118    112   2   0.50000     0.0600000    0.5100000   3.869820e-04  3.188634e-07
    118    120   2   0.50000     0.0600000    0.0600000   3.930919e-05  8.704828e-09
    118    128   2   0.50000     0.0600000   -0.1200000   2.494471e-04  1.671101e-07
    119    112   2   0.50000     0.0600000    0.5100000   3.869820e-04  3.188634e-07
    119    120   2   0.50000     0.0600000    0.0600000   3.930919e-05  8.704828e-09
    119    128   2   0.50000     0.0600000   -0.1200000   2.494471e-04  1.671101e-07
    110    113   2   0.50000    -0.1200000   -0.4300000   1.095425e-03  1.218041e-06
    110    114   2   0.50000    -0.1200000   -0.3300000   1.026091e-03  1.187829e-06
    120    113   2   0.50000     0.0600000   -0.4300000   1.726228e-04  6.344822e-08
    120    114   2   0.50000     0.0600000   -0.3300000   1.616969e-04  6.187447e-08
    128    113   2   0.50000    -0.1200000   -0.4300000   1.095425e-03  1.218041e-06
    128    114   2   0.50000    -0.1200000   -0.3300000   1.026091e-03  1.187829e-06
    110    129   2   0.50000    -0.1200000   -0.0600000   1.015252e-03  1.866303e-06
    110    136   2   0.50000    -0.1200000    0.0600000   2.494471e-04  1.671101e-07
    110    137   2   0.50000    -0.1200000    0.0600000   2.494471e-04  1.671101e-07
    112    129   2   0.50000     0.5100000   -0.0600000   1.575021e-03  3.561100e-06
    112    136   2   0.50000     0.5100000    0.0600000   3.869820e-04  3.188634e-07
    112    137   2   0.50000     0.5100000    0.0600000   3.869820e-04  3.188634e-07
    120    129   2   0.50000     0.0600000   -0.0600000   1.599888e-04  9.721644e-08
    120    136   2   0.50000     0.0600000    0.0600000   3.930919e-05  8.704828e-09
    120    137   2   0.50000     0.0600000    0.0600000   3.930919e-05  8.704828e-09
    111    115   2   0.50000    -0.0600000    0.1900000   1.015252e-03  1.866303e-06
    113    115   2   0.50000    -0.4300000    0.1900000   1.095425e-03  1.218041e-06
    112    116   2   0.50000     0.5100000   -0.1200000   1.575021e-03  3.561100e-06
    112    121   2   0.50000     0.5100000    0.0300000   2.482000e-04  1.854991e-07
    112    122   2   0.50000     0.5100000    0.0300000   2.482000e-04  1.854991e-07
    114    117   2   0.50000    -0.3300000   -0.1800000   1.026091e-03  1.187829e-06
    114    123   2   0.50000    -0.3300000    0.0600000   2.521103e-04  1.063590e-07
    114    124   2   0.50000    -0.3300000    0.0600000   2.521103e-04  1.063590e-07
    121    117   2   0.50000     0.0300000   -0.1800000   1.599888e-04  9.721644e-08
    121    123   2   0.50000     0.0300000    0.0600000   3.930919e-05  8.704828e-09
    121    124   2   0.50000     0.0300000    0.0600000   3.930919e-05  8.704828e-09
    122    117   2   0.50000     0.0300000   -0.1800000   1.599888e-04  9.721644e-08
    122    123   2   0.50000     0.0300000    0.0600000   3.930919e-05  8.704828e-09
    122    124   2   0.50000     0.0300000    0.0600000   3.930919e-05  8.704828e-09
    115    125   2   0.50000     0.1900000    0.0600000   2.494471e-04  1.671101e-07
    115    126   2   0.50000     0.1900000    0.0600000   2.494471e-04  1.671101e-07
    115    127   2   0.50000     0.1900000    0.0600000   2.494471e-04  1.671101e-07
    123    125   2   0.50000     0.0600000    0.0600000   6.128906e-05  1.496315e-08
    123    126   2   0.50000     0.0600000    0.0600000   6.128906e-05  1.496315e-08
    123    127   2   0.50000     0.0600000    0.0600000   6.128906e-05  1.496315e-08
    124    125   2   0.50000     0.0600000    0.0600000   6.128906e-05  1.496315e-08
    124    126   2   0.50000     0.0600000    0.0600000   6.128906e-05  1.496315e-08
    124    127   2   0.50000     0.0600000    0.0600000   6.128906e-05  1.496315e-08
    111    130   2   0.50000    -0.0600000    0.5100000   1.575021e-03  3.561100e-06
    111    138   2   0.50000    -0.0600000    0.0600000   1.599888e-04  9.721644e-08
    111    146   2   0.50000    -0.0600000   -0.1200000   1.015252e-03  1.866303e-06
    136    130   2   0.50000     0.0600000    0.5100000   3.869820e-04  3.188634e-07
    136    138   2   0.50000     0.0600000    0.0600000   3.930919e-05  8.704828e-09
    136    146   2   0.50000     0.0600000   -0.1200000   2.494471e-04  1.671101e-07
    137    130   2   0.50000     0.0600000    0.5100000   3.869820e-04  3.188634e-07
    137    138   2   0.50000     0.0600000    0.0600000   3.930919e-05  8.704828e-09
    137    146   2   0.50000     0.0600000   -0.1200000   2.494471e-04  1.671101e-07
    128    131   2   0.50000    -0.1200000   -0.4300000   1.095425e-03  1.218041e-06
    128    132   2   0.50000    -0.1200000   -0.3300000   1.026091e-03  1.187829e-06
    138    131   2   0.50000     0.0600000   -0.4300000   1.726228e-04  6.344822e-08
    138    132   2   0.50000     0.0600000   -0.3300000   1.616969e-04  6.187447e-08
    146    131   2   0.50000    -0.1200000   -0.4300000   1.095425e-03  1.218041e-06
    146    132   2   0.50000    -0.1200000   -0.3300000   1.026091e-03  1.187829e-06
    128    147   2   0.50000    -0.1200000   -0.0600000   1.015252e-03  1.866303e-06
    128    154   2   0.50000    -0.1200000    0.0600000   2.494471e-04  1.671101e-07
    128    155   2   0.50000    -0.1200000    0.0600000   2.494471e-04  1.671101e-07
    130    147   2   0.50000     0.5100000   -0.0600000   1.575021e-03  3.561100e-06
    130    154   2   0.50000     0.5100000    0.0600000   3.869820e-04  3.188634e-07
    130    155   2   0.50000     0.5100000    0.0600000   3.869820e-04  3.188634e-07
    138    147   2   0.50000     0.0600000   -0.0600000   1.599888e-04  9.721644e-08
    138    154   2   0.50000     0.0600000    0.0600000   3.930919e-05  8.704828e-09
    138    155   2   0.50000     0.0600000    0.0600000   3.930919e-05  8.704828e-09
    129    133   2   0.50000    -0.0600000    0.1900000   1.015252e-03  1.866303e-06
    131    133   2   0.50000    -0.4300000    0.1900000   1.095425e-03  1.218041e-06
    130    134   2   0.50000     0.5100000   -0.1200000   1.575021e-03  3.561100e-06
    130    139   2   0.50000     0.5100000    0.0300000   2.482000e-04  1.854991e-07
    130    140   2   0.50000     0.5100000    0.0300000   2.482000e-04  1.854991e-07
    132    135   2   0.50000    -0.3300000   -0.1800000   1.026091e-03  1.187829e-06
    132    141   2   0.50000    -0.3300000    0.0600000   2.521103e-04  1.063590e-07
    132    142   2   0.50000    -0.3300000    0.0600000   2.521103e-04  1.063590e-07
    139    135   2   0.50000     0.0300000   -0.1800000   1.599888e-04  9.721644e-08
    139    141   2   0.50000     0.0300000    0.0600000   3.930919e-05  8.704828e-09
    139    142   2   0.50000     0.0300000    0.0600000   3.930919e-05  8.704828e-09
    140    135   2   0.50000     0.0300000   -0.1800000   1.599888e-04  9.721644e-08
    140    141   2   0.50000     0.0300000    0.0600000   3.930919e-05  8.704828e-09
    140    142   2   0.50000     0.0300000    0.0600000   3.930919e-05  8.704828e-09
    133    143   2   0.50000     0.1900000    0.0600000   2.494471e-04  1.671101e-07
    133    144   2   0.50000     0.1900000    0.0600000   2.494471e-04  1.671101e-07
    133    145   2   0.50000     0.1900000    0.0600000   2.494471e-04  1.671101e-07
    141    143   2   0.50000     0.0600000    0.0600000   6.128906e-05  1.496315e-08
    141    144   2   0.50000     0.0600000    0.0600000   6.128906e-05  1.496315e-08
    141    145   2   0.50000     0.0600000    0.0600000   6.128906e-05  1.496315e-08
    142    143   2   0.50000     0.0600000    0.0600000   6.128906e-05  1.496315e-08
    142    144   2   0.50000     0.0600000    0.0600000   6.128906e-05  1.496315e-08
    142    145   2   0.50000     0.0600000    0.0600000   6.128906e-05  1.496315e-08
    129    148   2   0.50000    -0.0600000    0.5100000   1.575021e-03  3.561100e-06
    129    156   2   0.50000    -0.0600000    0.0600000   1.599888e-04  9.721644e-08
    129    164   2   0.50000    -0.0600000   -0.1200000   1.015252e-03  1.866303e-06
    154    148   2   0.50000     0.0600000    0.5100000   3.869820e-04  3.188634e-07
    154    156   2   0.50000     0.0600000    0.0600000   3.930919e-05  8.704828e-09
    154    164   2   0.50000     0.0600000   -0.1200000   2.494471e-04  1.671101e-07
    155    148   2   0.50000     0.0600000    0.5100000   3.869820e-04  3.188634e-07
    155    156   2   0.50000     0.0600000    0.0600000   3.930919e-05  8.704828e-09
    155    164   2   0.50000     0.0600000   -0.1200000   2.494471e-04  1.671101e-07
    146    149   2   0.50000    -0.1200000   -0.4300000   1.095425e-03  1.218041e-06
    146    150   2   0.50000    -0.1200000   -0.3300000   1.026091e-03  1.187829e-06
    156    149   2   0.50000     0.0600000   -0.4300000   1.726228e-04  6.344822e-08
    156    150   2   0.50000     0.0600000   -0.3300000   1.616969e-04  6.187447e-08
    164    149   2   0.50000    -0.1200000   -0.4300000   1.095425e-03  1.218041e-06
    164    150   2   0.50000    -0.1200000   -0.3300000   1.026091e-03  1.187829e-06
    146    165   2   0.50000    -0.1200000   -0.0600000   1.015252e-03  1.866303e-06
    146    172   2   0.50000    -0.1200000    0.0600000   2.494471e-04  1.671101e-07
    146    173   2   0.50000    -0.1200000    0.0600000   2.494471e-04  1.671101e-07
    148    165   2   0.50000     0.5100000   -0.0600000   1.575021e-03  3.561100e-06
    148    172   2   0.50000     0.5100000    0.0600000   3.869820e-04  3.188634e-07
    148    173   2   0.50000     0.5100000    0.0600000   3.869820e-04  3.188634e-07
    156    165   2   0.50000     0.0600000   -0.0600000   1.599888e-04  9.721644e-08
    156    172   2   0.50000     0.0600000    0.0600000   3.930919e-05  8.704828e-09
    156    173   2   0.50000     0.0600000    0.0600000   3.930919e-05  8.704828e-09
    147    151   2   0.50000    -0.0600000    0.1900000   1.015252e-03  1.866303e-06
    149    151   2   0.50000    -0.4300000    0.1900000   1.095425e-03  1.218041e-06
    148    152   2   0.50000     0.5100000   -0.1200000   1.575021e-03  3.561100e-06
    148    157   2   0.50000     0.5100000    0.0300000   2.482000e-04  1.854991e-07
    148    158   2   0.50000     0.5100000    0.0300000   2.482000e-04  1.854991e-07
    150    153   2   0.50000    -0.3300000   -0.1800000   1.026091e-03  1.187829e-06
    150    159   2   0.50000    -0.3300000    0.0600000   2.521103e-04  1.063590e-07
    150    160   2   0.50000    -0.3300000    0.0600000   2.521103e-04  1.063590e-07
    157    153   2   0.50000     0.0300000   -0.1800000   1.599888e-04  9.721644e-08
    157    159   2   0.50000     0.0300000    0.0600000   3.930919e-05  8.704828e-09
    157    160   2   0.50000     0.0300000    0.0600000   3.930919e-05  8.704828e-09
    158    153   2   0.50000     0.0300000   -0.1800000   1.599888e-04  9.721644e-08
    158    159   2   0.50000     0.0300000    0.0600000   3.930919e-05  8.704828e-09
    158    160   2   0.50000     0.0300000    0.0600000   3.930919e-05  8.704828e-09
    151    161   2   0.50000     0.1900000    0.0600000   2.494471e-04  1.671101e-07
    151    162   2   0.50000     0.1900000    0.0600000   2.494471e-04  1.671101e-07
    151    163   2   0.50000     0.1900000    0.0600000   2.494471e-04  1.671101e-07
    159    161   2   0.50000     0.0600000    0.0600000   6.128906e-05  1.496315e-08
    159    162   2   0.50000     0.0600000    0.0600000   6.128906e-05  1.496315e-08
    159    163   2   0.50000     0.0600000    0.0600000   6.128906e-05  1.496315e-08
    160    161   2   0.50000     0.0600000    0.0600000   6.128906e-05  1.496315e-08
    160    162   2   0.50000     0.0600000    0.0600000   6.128906e-05  1.496315e-08
    160    163   2   0.50000     0.0600000    0.0600000   6.128906e-05  1.496315e-08
    147    166   2   0.50000    -0.0600000    0.5100000   1.575021e-03  3.561100e-06
    147    174   2   0.50000    -0.0600000    0.0600000   1.599888e-04  9.721644e-08
    147    182   2   0.50000    -0.0600000   -0.1200000   1.015252e-03  1.866303e-06
    172    166   2   0.50000     0.0600000    0.5100000   3.869820e-04  3.188634e-07
    172    174   2   0.50000     0.0600000    0.0600000   3.930919e-05  8.704828e-09
    172    182   2   0.50000     0.0600000   -0.1200000   2.494471e-04  1.671101e-07
    173    166   2   0.50000     0.0600000    0.5100000   3.869820e-04  3.188634e-07
    173    174   2   0.50000     0.0600000    0.0600000   3.930919e-05  8.704828e-09
    173    182   2   0.50000     0.0600000   -0.1200000   2.494471e-04  1.671101e-07
    164    167   2   0.50000    -0.1200000   -0.4300000   1.095425e-03  1.218041e-06
    164    168   2   0.50000    -0.1200000   -0.3300000   1.026091e-03  1.187829e-06
    174    167   2   0.50000     0.0600000   -0.4300000   1.726228e-04  6.344822e-08
    174    168   2   0.50000     0.0600000   -0.3300000   1.616969e-04  6.187447e-08
    182    167   2   0.50000    -0.1200000   -0.4300000   1.095425e-03  1.218041e-06
    182    168   2   0.50000    -0.1200000   -0.3300000   1.026091e-03  1.187829e-06
    164    183   2   0.50000    -0.1200000   -0.0600000   1.015252e-03  1.866303e-06
    164    190   2   0.50000    -0.1200000    0.0600000   2.494471e-04  1.671101e-07
    164    191   2   0.50000    -0.1200000    0.0600000   2.494471e-04  1.671101e-07
    166    183   2   0.50000     0.5100000   -0.0600000   1.575021e-03  3.561100e-06
    166    190   2   0.50000     0.5100000    0.0600000   3.869820e-04  3.188634e-07
    166    191   2   0.50000     0.5100000    0.0600000   3.869820e-04  3.188634e-07
    174    183   2   0.50000     0.0600000   -0.0600000   1.599888e-04  9.721644e-08
    174    190   2   0.50000     0.0600000    0.0600000   3.930919e-05  8.704828e-09
    174    191   2   0.50000     0.0600000    0.0600000   3.930919e-05  8.704828e-09
    165    169   2   0.50000    -0.0600000    0.1900000   1.015252e-03  1.866303e-06
    167    169   2   0.50000    -0.4300000    0.1900000   1.095425e-03  1.218041e-06
    166    170   2   0.50000     0.5100000   -0.1200000   1.575021e-03  3.561100e-06
    166    175   2   0.50000     0.5100000    0.0300000   2.482000e-04  1.854991e-07
    166    176   2   0.50000     0.5100000    0.0300000   2.482000e-04  1.854991e-07
    168    171   2   0.50000    -0.3300000   -0.1800000   1.026091e-03  1.187829e-06
    168    177   2   0.50000    -0.3300000    0.0600000   2.521103e-04  1.063590e-07
    168    178   2   0.50000    -0.3300000    0.0600000   2.521103e-04  1.063590e-07
    175    171   2   0.50000     0.0300000   -0.1800000   1.599888e-04  9.721644e-08
    175    177   2   0.50000     0.0300000    0.0600000   3.930919e-05  8.704828e-09
    175    178   2   0.50000     0.0300000    0.0600000   3.930919e-05  8.704828e-09
    176    171   2   0.50000     0.0300000   -0.1800000   1.599888e-04  9.721644e-08
    176    177   2   0.50000     0.0300000    0.0600000   3.930919e-05  8.704828e-09
    176    178   2   0.50000     0.0300000    0.0600000   3.930919e-05  8.704828e-09
    169    179   2   0.50000     0.1900000    0.0600000   2.494471e-04  1.671101e-07
    169    180   2   0.50000     0.1900000    0.0600000   2.494471e-04  1.671101e-07
    169    181   2   0.50000     0.1900000    0.0600000   2.494471e-04  1.671101e-07
    177    179   2   0.50000     0.0600000    0.0600000   6.128906e-05  1.496315e-08
    177    180   2   0.50000     0.0600000    0.0600000   6.128906e-05  1.496315e-08
    177    181   2   0.50000     0.0600000    0.0600000   6.128906e-05  1.496315e-08
    178    179   2   0.50000     0.0600000    0.0600000   6.128906e-05  1.496315e-08
    178    180   2   0.50000     0.0600000    0.0600000   6.128906e-05  1.496315e-08
    178    181   2   0.50000     0.0600000    0.0600000   6.128906e-05  1.496315e-08
    165    184   2   0.50000    -0.0600000    0.5100000   1.575021e-03  3.561100e-06
    165    192   2   0.50000    -0.0600000    0.0600000   1.599888e-04  9.721644e-08
    165    200   2   0.50000    -0.0600000   -0.1200000   1.015252e-03  1.866303e-06
    190    184   2   0.50000     0.0600000    0.5100000   3.869820e-04  3.188634e-07
    190    192   2   0.50000     0.0600000    0.0600000   3.930919e-05  8.704828e-09
    190    200   2   0.50000     0.0600000   -0.1200000   2.494471e-04  1.671101e-07
    191    184   2   0.50000     0.0600000    0.5100000   3.869820e-04  3.188634e-07
    191    192   2   0.50000     0.0600000    0.0600000   3.930919e-05  8.704828e-09
    191    200   2   0.50000     0.0600000   -0.1200000   2.494471e-04  1.671101e-07
    182    185   2   0.50000    -0.1200000   -0.4300000   1.095425e-03  1.218041e-06
    182    186   2   0.50000    -0.1200000   -0.3300000   1.026091e-03  1.187829e-06
    192    185   2   0.50000     0.0600000   -0.4300000   1.726228e-04  6.344822e-08
    192    186   2   0.50000     0.0600000   -0.3300000   1.616969e-04  6.187447e-08
    200    185   2   0.50000    -0.1200000   -0.4300000   1.095425e-03  1.218041e-06
    200    186   2   0.50000    -0.1200000   -0.3300000   1.026091e-03  1.187829e-06
    182    201   2   0.50000    -0.1200000   -0.0600000   1.015252e-03  1.866303e-06
    182    208   2   0.50000    -0.1200000    0.0600000   2.494471e-04  1.671101e-07
    182    209   2   0.50000    -0.1200000    0.0600000   2.494471e-04  1.671101e-07
    184    201   2   0.50000     0.5100000   -0.0600000   1.575021e-03  3.561100e-06
    184    208   2   0.50000     0.5100000    0.0600000   3.869820e-04  3.188634e-07
    184    209   2   0.50000     0.5100000    0.0600000   3.869820e-04  3.188634e-07
    192    201   2   0.50000     0.0600000   -0.0600000   1.599888e-04  9.721644e-08
    192    208   2   0.50000     0.0600000    0.0600000   3.930919e-05  8.704828e-09
    192    209   2   0.50000     0.0600000    0.0600000   3.930919e-05  8.704828e-09
    183    187   2   0.50000    -0.0600000    0.1900000   1.015252e-03  1.866303e-06
    185    187   2   0.50000    -0.4300000    0.1900000   1.095425e-03  1.218041e-06
    184    188   2   0.50000     0.5100000   -0.1200000   1.575021e-03  3.561100e-06
    184    193   2   0.50000     0.5100000    0.0300000   2.482000e-04  1.854991e-07
    184    194   2   0.50000     0.5100000    0.0300000   2.482000e-04  1.854991e-07
    186    189   2   0.50000    -0.3300000   -0.1800000   1.026091e-03  1.187829e-06
    186    195   2   0.50000    -0.3300000    0.0600000   2.521103e-04  1.063590e-07
    186    196   2   0.50000    -0.3300000    0.0600000   2.521103e-04  1.063590e-07
    193    189   2   0.50000     0.0300000   -0.1800000   1.599888e-04  9.721644e-08
    193    195   2   0.50000     0.0300000    0.0600000   3.930919e-05  8.704828e-09
    193    196   2   0.50000     0.0300000    0.0600000   3.930919e-05  8.704828e-09
    194    189   2   0.50000     0.0300000   -0.1800000   1.599888e-04  9.721644e-08
    194    195   2   0.50000     0.0300000    0.0600000   3.930919e-05  8.704828e-09
    194    196   2   0.50000     0.0300000    0.0600000   3.930919e-05  8.704828e-09
    187    197   2   0.50000     0.1900000    0.0600000   2.494471e-04  1.671101e-07
    187    198   2   0.50000     0.1900000    0.0600000   2.494471e-04  1.671101e-07
    187    199   2   0.50000     0.1900000    0.0600000   2.494471e-04  1.671101e-07
    195    197   2   0.50000     0.0600000    0.0600000   6.128906e-05  1.496315e-08
    195    198   2   0.50000     0.0600000    0.0600000   6.128906e-05  1.496315e-08
    195    199   2   0.50000     0.0600000    0.0600000   6.128906e-05  1.496315e-08
    196    197   2   0.50000     0.0600000    0.0600000   6.128906e-05  1.496315e-08
    196    198   2   0.50000     0.0600000    0.0600000   6.128906e-05  1.496315e-08
    196    199   2   0.50000     0.0600000    0.0600000   6.128906e-05  1.496315e-08
    183    202   2   0.50000    -0.0600000    0.5100000   1.575021e-03  3.561100e-06
    183    210   2   0.50000    -0.0600000    0.0600000   1.599888e-04  9.721644e-08
    183    218   2   0.50000    -0.0600000   -0.1200000   1.015252e-03  1.866303e-06
    208    202   2   0.50000     0.0600000    0.5100000   3.869820e-04  3.188634e-07
    208    210   2   0.50000     0.0600000    0.0600000   3.930919e-05  8.704828e-09
    208    218   2   0.50000     0.0600000   -0.1200000   2.494471e-04  1.671101e-07
    209    202   2   0.50000     0.0600000    0.5100000   3.869820e-04  3.188634e-07
    209    210   2   0.50000     0.0600000    0.0600000   3.930919e-05  8.704828e-09
    209    218   2   0.50000     0.0600000   -0.1200000   2.494471e-04  1.671101e-07
    200    203   2   0.50000    -0.1200000   -0.4300000   1.095425e-03  1.218041e-06
    200    204   2   0.50000    -0.1200000   -0.3300000   1.026091e-03  1.187829e-06
    210    203   2   0.50000     0.0600000   -0.4300000   1.726228e-04  6.344822e-08
    210    204   2   0.50000     0.0600000   -0.3300000   1.616969e-04  6.187447e-08
    218    203   2   0.50000    -0.1200000   -0.4300000   1.095425e-03  1.218041e-06
    218    204   2   0.50000    -0.1200000   -0.3300000   1.026091e-03  1.187829e-06
    200    219   2   0.50000    -0.1200000   -0.0600000   1.015252e-03  1.866303e-06
    200    226   2   0.50000    -0.1200000    0.0600000   2.494471e-04  1.671101e-07
    200    227   2   0.50000    -0.1200000    0.0600000   2.494471e-04  1.671101e-07
    202    219   2   0.50000     0.5100000   -0.0600000   1.575021e-03  3.561100e-06
    202    226   2   0.50000     0.5100000    0.0600000   3.869820e-04  3.188634e-07
    202    227   2   0.50000     0.5100000    0.0600000   3.869820e-04  3.188634e-07
    210    219   2   0.50000     0.0600000   -0.0600000   1.599888e-04  9.721644e-08
    210    226   2   0.50000     0.0600000    0.0600000   3.930919e-05  8.704828e-09
    210    227   2   0.50000     0.0600000    0.0600000   3.930919e-05  8.704828e-09
    201    205   2   0.50000    -0.0600000    0.1900000   1.015252e-03  1.866303e-06
    203    205   2   0.50000    -0.4300000    0.1900000   1.095425e-03  1.218041e-06
    202    206   2   0.50000     0.5100000   -0.1200000   1.575021e-03  3.561100e-06
    202    211   2   0.50000     0.5100000    0.0300000   2.482000e-04  1.854991e-07
    202    212   2   0.50000     0.5100000    0.0300000   2.482000e-04  1.854991e-07
    204    207   2   0.50000    -0.3300000   -0.1800000   1.026091e-03  1.187829e-06
    204    213   2   0.50000    -0.3300000    0.0600000   2.521103e-04  1.063590e-07
    204    214   2   0.50000    -0.3300000    0.0600000   2.521103e-04  1.063590e-07
    211    207   2   0.50000     0.0300000   -0.1800000   1.599888e-04  9.721644e-08
    211    213   2   0.50000     0.0300000    0.0600000   3.930919e-05  8.704828e-09
    211    214   2   0.50000     0.0300000    0.0600000   3.930919e-05  8.704828e-09
    212    207   2   0.50000     0.0300000   -0.1800000   1.599888e-04  9.721644e-08
    212    213   2   0.50000     0.0300000    0.0600000   3.930919e-05  8.704828e-09
    212    214   2   0.50000     0.0300000    0.0600000   3.930919e-05  8.704828e-09
    205    215   2   0.50000     0.1900000    0.0600000   2.494471e-04  1.671101e-07
    205    216   2   0.50000     0.1900000    0.0600000   2.494471e-04  1.671101e-07
    205    217   2   0.50000     0.1900000    0.0600000   2.494471e-04  1.671101e-07
    213    215   2   0.50000     0.0600000    0.0600000   6.128906e-05  1.496315e-08
    213    216   2   0.50000     0.0600000    0.0600000   6.128906e-05  1.496315e-08
    213    217   2   0.50000     0.0600000    0.0600000   6.128906e-05  1.496315e-08
    214    215   2   0.50000     0.0600000    0.0600000   6.128906e-05  1.496315e-08
    214    216   2   0.50000     0.0600000    0.0600000   6.128906e-05  1.496315e-08
    214    217   2   0.50000     0.0600000    0.0600000   6.128906e-05  1.496315e-08
    201    220   2   0.50000    -0.0600000    0.5100000   1.575021e-03  3.561100e-06
    201    228   2   0.50000    -0.0600000    0.0600000   1.599888e-04  9.721644e-08
    201    236   2   0.50000    -0.0600000   -0.1200000   1.015252e-03  1.866303e-06
    226    220   2   0.50000     0.0600000    0.5100000   3.869820e-04  3.188634e-07
    226    228   2   0.50000     0.0600000    0.0600000   3.930919e-05  8.704828e-09
    226    236   2   0.50000     0.0600000   -0.1200000   2.494471e-04  1.671101e-07
    227    220   2   0.50000     0.0600000    0.5100000   3.869820e-04  3.188634e-07
    227    228   2   0.50000     0.0600000    0.0600000   3.930919e-05  8.704828e-09
    227    236   2   0.50000     0.0600000   -0.1200000   2.494471e-04  1.671101e-07
    218    221   2   0.50000    -0.1200000   -0.4300000   1.095425e-03  1.218041e-06
    218    222   2   0.50000    -0.1200000   -0.3300000   1.026091e-03  1.187829e-06
    228    221   2   0.50000     0.0600000   -0.4300000   1.726228e-04  6.344822e-08
    228    222   2   0.50000     0.0600000   -0.3300000   1.616969e-04  6.187447e-08
    236    221   2   0.50000    -0.1200000   -0.4300000   1.095425e-03  1.218041e-06
    236    222   2   0.50000    -0.1200000   -0.3300000   1.026091e-03  1.187829e-06
    218    237   2   0.50000    -0.1200000   -0.0600000   1.015252e-03  1.866303e-06
    218    244   2   0.50000    -0.1200000    0.0600000   2.494471e-04  1.671101e-07
    218    245   2   0.50000    -0.1200000    0.0600000   2.494471e-04  1.671101e-07
    220    237   2   0.50000     0.5100000   -0.0600000   1.575021e-03  3.561100e-06
    220    244   2   0.50000     0.5100000    0.0600000   3.869820e-04  3.188634e-07
    220    245   2   0.50000     0.5100000    0.0600000   3.869820e-04  3.188634e-07
    228    237   2   0.50000     0.0600000   -0.0600000   1.599888e-04  9.721644e-08
    228    244   2   0.50000     0.0600000    0.0600000   3.930919e-05  8.704828e-09
    228    245   2   0.50000     0.0600000    0.0600000   3.930919e-05  8.704828e-09
    219    223   2   0.50000    -0.0600000    0.1900000   1.015252e-03  1.866303e-06
    221    223   2   0.50000    -0.4300000    0.1900000   1.095425e-03  1.218041e-06
    220    224   2   0.50000     0.5100000   -0.1200000   1.575021e-03  3.561100e-06
    220    229   2   0.50000     0.5100000    0.0300000   2.482000e-04  1.854991e-07
    220    230   2   0.50000     0.5100000    0.0300000   2.482000e-04  1.854991e-07
    222    225   2   0.50000    -0.3300000   -0.1800000   1.026091e-03  1.187829e-06
    222    231   2   0.50000    -0.3300000    0.0600000   2.521103e-04  1.063590e-07
    222    232   2   0.50000    -0.3300000    0.0600000   2.521103e-04  1.063590e-07
    229    225   2   0.50000     0.0300000   -0.1800000   1.599888e-04  9.721644e-08
    229    231   2   0.50000     0.0300000    0.0600000   3.930919e-05  8.704828e-09
    229    232   2   0.50000     0.0300000    0.0600000   3.930919e-05  8.704828e-09
    230    225   2   0.50000     0.0300000   -0.1800000   1.599888e-04  9.721644e-08
    230    231   2   0.50000     0.0300000    0.0600000   3.930919e-05  8.704828e-09
    230    232   2   0.50000     0.0300000    0.0600000   3.930919e-05  8.704828e-09
    223    233   2   0.50000     0.1900000    0.0600000   2.494471e-04  1.671101e-07
    223    234   2   0.50000     0.1900000    0.0600000   2.494471e-04  1.671101e-07
    223    235   2   0.50000     0.1900000    0.0600000   2.494471e-04  1.671101e-07
    231    233   2   0.50000     0.0600000    0.0600000   6.128906e-05  1.496315e-08
    231    234   2   0.50000     0.0600000    0.0600000   6.128906e-05  1.496315e-08
    231    235   2   0.50000     0.0600000    0.0600000   6.128906e-05  1.496315e-08
    232    233   2   0.50000     0.0600000    0.0600000   6.128906e-05  1.496315e-08
    232    234   2   0.50000     0.0600000    0.0600000   6.128906e-05  1.496315e-08
    232    235   2   0.50000     0.0600000    0.0600000   6.128906e-05  1.496315e-08
    219    238   2   0.50000    -0.0600000    0.5100000   1.575021e-03  3.561100e-06
    219    246   2   0.50000    -0.0600000    0.0600000   1.599888e-04  9.721644e-08
    219    254   2   0.50000    -0.0600000   -0.1200000   1.015252e-03  1.866303e-06
    244    238   2   0.50000     0.0600000    0.5100000   3.869820e-04  3.188634e-07
    244    246   2   0.50000     0.0600000    0.0600000   3.930919e-05  8.704828e-09
    244    254   2   0.50000     0.0600000   -0.1200000   2.494471e-04  1.671101e-07
    245    238   2   0.50000     0.0600000    0.5100000   3.869820e-04  3.188634e-07
    245    246   2   0.50000     0.0600000    0.0600000   3.930919e-05  8.704828e-09
    245    254   2   0.50000     0.0600000   -0.1200000   2.494471e-04  1.671101e-07
    236    239   2   0.50000    -0.1200000   -0.4300000   1.095425e-03  1.218041e-06
    236    240   2   0.50000    -0.1200000   -0.3300000   1.026091e-03  1.187829e-06
    246    239   2   0.50000     0.0600000   -0.4300000   1.726228e-04  6.344822e-08
    246    240   2   0.50000     0.0600000   -0.3300000   1.616969e-04  6.187447e-08
    254    239   2   0.50000    -0.1200000   -0.4300000   1.095425e-03  1.218041e-06
    254    240   2   0.50000    -0.1200000   -0.3300000   1.026091e-03  1.187829e-06
    236    255   2   0.50000    -0.1200000   -0.0600000   1.015252e-03  1.866303e-06
    236    262   2   0.50000    -0.1200000    0.0600000   2.494471e-04  1.671101e-07
    236    263   2   0.50000    -0.1200000    0.0600000   2.494471e-04  1.671101e-07
    238    255   2   0.50000     0.5100000   -0.0600000   1.575021e-03  3.561100e-06
    238    262   2   0.50000     0.5100000    0.0600000   3.869820e-04  3.188634e-07
    238    263   2   0.50000     0.5100000    0.0600000   3.869820e-04  3.188634e-07
    246    255   2   0.50000     0.0600000   -0.0600000   1.599888e-04  9.721644e-08
    246    262   2   0.50000     0.0600000    0.0600000   3.930919e-05  8.704828e-09
    246    263   2   0.50000     0.0600000    0.0600000   3.930919e-05  8.704828e-09
    237    241   2   0.50000    -0.0600000    0.1900000   1.015252e-03  1.866303e-06
    239    241   2   0.50000    -0.4300000    0.1900000   1.095425e-03  1.218041e-06
    238    242   2   0.50000     0.5100000   -0.1200000   1.575021e-03  3.561100e-06
    238    247   2   0.50000     0.5100000    0.0300000   2.482000e-04  1.854991e-07
    238    248   2   0.50000     0.5100000    0.0300000   2.482000e-04  1.854991e-07
    240    243   2   0.50000    -0.3300000   -0.1800000   1.026091e-03  1.187829e-06
    240    249   2   0.50000    -0.3300000    0.0600000   2.521103e-04  1.063590e-07
    240    250   2   0.50000    -0.3300000    0.0600000   2.521103e-04  1.063590e-07
    247    243   2   0.50000     0.0300000   -0.1800000   1.599888e-04  9.721644e-08
    247    249   2   0.50000     0.0300000    0.0600000   3.930919e-05  8.704828e-09
    247    250   2   0.50000     0.0300000    0.0600000   3.930919e-05  8.704828e-09
    248    243   2   0.50000     0.0300000   -0.1800000   1.599888e-04  9.721644e-08
    248    249   2   0.50000     0.0300000    0.0600000   3.930919e-05  8.704828e-09
    248    250   2   0.50000     0.0300000    0.0600000   3.930919e-05  8.704828e-09
    241    251   2   0.50000     0.1900000    0.0600000   2.494471e-04  1.671101e-07
    241    252   2   0.50000     0.1900000    0.0600000   2.494471e-04  1.671101e-07
    241    253   2   0.50000     0.1900000    0.0600000   2.494471e-04  1.671101e-07
    249    251   2   0.50000     0.0600000    0.0600000   6.128906e-05  1.496315e-08
    249    252   2   0.50000     0.0600000    0.0600000   6.128906e-05  1.496315e-08
    249    253   2   0.50000     0.0600000    0.0600000   6.128906e-05  1.496315e-08
    250    251   2   0.50000     0.0600000    0.0600000   6.128906e-05  1.496315e-08
    250    252   2   0.50000     0.0600000    0.0600000   6.128906e-05  1.496315e-08
    250    253   2   0.50000     0.0600000    0.0600000   6.128906e-05  1.496315e-08
    237    256   2   0.50000    -0.0600000    0.5100000   1.575021e-03  3.561100e-06
    237    264   2   0.50000    -0.0600000    0.0600000   1.599888e-04  9.721644e-08
    237    272   2   0.50000    -0.0600000   -0.1200000   1.015252e-03  1.866303e-06
    262    256   2   0.50000     0.0600000    0.5100000   3.869820e-04  3.188634e-07
    262    264   2   0.50000     0.0600000    0.0600000   3.930919e-05  8.704828e-09
    262    272   2   0.50000     0.0600000   -0.1200000   2.494471e-04  1.671101e-07
    263    256   2   0.50000     0.0600000    0.5100000   3.869820e-04  3.188634e-07
    263    264   2   0.50000     0.0600000    0.0600000   3.930919e-05  8.704828e-09
    263    272   2   0.50000     0.0600000   -0.1200000   2.494471e-04  1.671101e-07
    254    257   2   0.50000    -0.1200000   -0.4300000   1.095425e-03  1.218041e-06
    254    258   2   0.50000    -0.1200000   -0.3300000   1.026091e-03  1.187829e-06
    264    257   2   0.50000     0.0600000   -0.4300000   1.726228e-04  6.344822e-08
    264    258   2   0.50000     0.0600000   -0.3300000   1.616969e-04  6.187447e-08
    272    257   2   0.50000    -0.1200000   -0.4300000   1.095425e-03  1.218041e-06
    272    258   2   0.50000    -0.1200000   -0.3300000   1.026091e-03  1.187829e-06
    254    273   2   0.50000    -0.1200000   -0.0600000   1.015252e-03  1.866303e-06
    254    280   2   0.50000    -0.1200000    0.0600000   2.494471e-04  1.671101e-07
    254    281   2   0.50000    -0.1200000    0.0600000   2.494471e-04  1.671101e-07
    256    273   2   0.50000     0.5100000   -0.0600000   1.575021e-03  3.561100e-06
    256    280   2   0.50000     0.5100000    0.0600000   3.869820e-04  3.188634e-07
    256    281   2   0.50000     0.5100000    0.0600000   3.869820e-04  3.188634e-07
    264    273   2   0.50000     0.0600000   -0.0600000   1.599888e-04  9.721644e-08
    264    280   2   0.50000     0.0600000    0.0600000   3.930919e-05  8.704828e-09
    264    281   2   0.50000     0.0600000    0.0600000   3.930919e-05  8.704828e-09
    255    259   2   0.50000    -0.0600000    0.1900000   1.015252e-03  1.866303e-06
    257    259   2   0.50000    -0.4300000    0.1900000   1.095425e-03  1.218041e-06
    256    260   2   0.50000     0.5100000   -0.1200000   1.575021e-03  3.561100e-06
    256    265   2   0.50000     0.5100000    0.0300000   2.482000e-04  1.854991e-07
    256    266   2   0.50000     0.5100000    0.0300000   2.482000e-04  1.854991e-07
    258    261   2   0.50000    -0.3300000   -0.1800000   1.026091e-03  1.187829e-06
    258    267   2   0.50000    -0.3300000    0.0600000   2.521103e-04  1.063590e-07
    258    268   2   0.50000    -0.3300000    0.0600000   2.521103e-04  1.063590e-07
    265    261   2   0.50000     0.0300000   -0.1800000   1.599888e-04  9.721644e-08
    265    267   2   0.50000     0.0300000    0.0600000   3.930919e-05  8.704828e-09
    265    268   2   0.50000     0.0300000    0.0600000   3.930919e-05  8.704828e-09
    266    261   2   0.50000     0.0300000   -0.1800000   1.599888e-04  9.721644e-08
    266    267   2   0.50000     0.0300000    0.0600000   3.930919e-05  8.704828e-09
    266    268   2   0.50000     0.0300000    0.0600000   3.930919e-05  8.704828e-09
    259    269   2   0.50000     0.1900000    0.0600000   2.494471e-04  1.671101e-07
    259    270   2   0.50000     0.1900000    0.0600000   2.494471e-04  1.671101e-07
    259    271   2   0.50000     0.1900000    0.0600000   2.494471e-04  1.671101e-07
    267    269   2   0.50000     0.0600000    0.0600000   6.128906e-05  1.496315e-08
    267    270   2   0.50000     0.0600000    0.0600000   6.128906e-05  1.496315e-08
    267    271   2   0.50000     0.0600000    0.0600000   6.128906e-05  1.496315e-08
    268    269   2   0.50000     0.0600000    0.0600000   6.128906e-05  1.496315e-08
    268    270   2   0.50000     0.0600000    0.0600000   6.128906e-05  1.496315e-08
    268    271   2   0.50000     0.0600000    0.0600000   6.128906e-05  1.496315e-08
    255    274   2   0.50000    -0.0600000    0.5100000   1.575021e-03  3.561100e-06
    255    282   2   0.50000    -0.0600000    0.0600000   1.599888e-04  9.721644e-08
    255    290   2   0.50000    -0.0600000   -0.1200000   1.015252e-03  1.866303e-06
    280    274   2   0.50000     0.0600000    0.5100000   3.869820e-04  3.188634e-07
    280    282   2   0.50000     0.0600000    0.0600000   3.930919e-05  8.704828e-09
    280    290   2   0.50000     0.0600000   -0.1200000   2.494471e-04  1.671101e-07
    281    274   2   0.50000     0.0600000    0.5100000   3.869820e-04  3.188634e-07
    281    282   2   0.50000     0.0600000    0.0600000   3.930919e-05  8.704828e-09
    281    290   2   0.50000     0.0600000   -0.1200000   2.494471e-04  1.671101e-07
    272    275   2   0.50000    -0.1200000   -0.4300000   1.095425e-03  1.218041e-06
    272    276   2   0.50000    -0.1200000   -0.3300000   1.026091e-03  1.187829e-06
    282    275   2   0.50000     0.0600000   -0.4300000   1.726228e-04  6.344822e-08
    282    276   2   0.50000     0.0600000   -0.3300000   1.616969e-04  6.187447e-08
    290    275   2   0.50000    -0.1200000   -0.4300000   1.095425e-03  1.218041e-06
    290    276   2   0.50000    -0.1200000   -0.3300000   1.026091e-03  1.187829e-06
    272    291   2   0.50000    -0.1200000   -0.0600000   1.015252e-03  1.866303e-06
    272    298   2   0.50000    -0.1200000    0.0600000   2.494471e-04  1.671101e-07
    272    299   2   0.50000    -0.1200000    0.0600000   2.494471e-04  1.671101e-07
    274    291   2   0.50000     0.5100000   -0.0600000   1.575021e-03  3.561100e-06
    274    298   2   0.50000     0.5100000    0.0600000   3.869820e-04  3.188634e-07
    274    299   2   0.50000     0.5100000    0.0600000   3.869820e-04  3.188634e-07
    282    291   2   0.50000     0.0600000   -0.0600000   1.599888e-04  9.721644e-08
    282    298   2   0.50000     0.0600000    0.0600000   3.930919e-05  8.704828e-09
    282    299   2   0.50000     0.0600000    0.0600000   3.930919e-05  8.704828e-09
    273    277   2   0.50000    -0.0600000    0.1900000   1.015252e-03  1.866303e-06
    275    277   2   0.50000    -0.4300000    0.1900000   1.095425e-03  1.218041e-06
    274    278   2   0.50000     0.5100000   -0.1200000   1.575021e-03  3.561100e-06
    274    283   2   0.50000     0.5100000    0.0300000   2.482000e-04  1.854991e-07
    274    284   2   0.50000     0.5100000    0.0300000   2.482000e-04  1.854991e-07
    276    279   2   0.50000    -0.3300000   -0.1800000   1.026091e-03  1.187829e-06
    276    285   2   0.50000    -0.3300000    0.0600000   2.521103e-04  1.063590e-07
    276    286   2   0.50000    -0.3300000    0.0600000   2.521103e-04  1.063590e-07
    283    279   2   0.50000     0.0300000   -0.1800000   1.599888e-04  9.721644e-08
    283    285   2   0.50000     0.0300000    0.0600000   3.930919e-05  8.704828e-09
    283    286   2   0.50000     0.0300000    0.0600000   3.930919e-05  8.704828e-09
    284    279   2   0.50000     0.0300000   -0.1800000   1.599888e-04  9.721644e-08
    284    285   2   0.50000     0.0300000    0.0600000   3.930919e-05  8.704828e-09
    284    286   2   0.50000     0.0300000    0.0600000   3.930919e-05  8.704828e-09
    277    287   2   0.50000     0.1900000    0.0600000   2.494471e-04  1.671101e-07
    277    288   2   0.50000     0.1900000    0.0600000   2.494471e-04  1.671101e-07
    277    289   2   0.50000     0.1900000    0.0600000   2.494471e-04  1.671101e-07
    285    287   2   0.50000     0.0600000    0.0600000   6.128906e-05  1.496315e-08
    285    288   2   0.50000     0.0600000    0.0600000   6.128906e-05  1.496315e-08
    285    289   2   0.50000     0.0600000    0.0600000   6.128906e-05  1.496315e-08
    286    287   2   0.50000     0.0600000    0.0600000   6.128906e-05  1.496315e-08
    286    288   2   0.50000     0.0600000    0.0600000   6.128906e-05  1.496315e-08
    286    289   2   0.50000     0.0600000    0.0600000   6.128906e-05  1.496315e-08
    273    292   2   0.50000    -0.0600000    0.5100000   1.575021e-03  3.561100e-06
    273    300   2   0.50000    -0.0600000    0.0600000   1.599888e-04  9.721644e-08
    273    308   2   0.50000    -0.0600000   -0.1200000   1.015252e-03  1.866303e-06
    298    292   2   0.50000     0.0600000    0.5100000   3.869820e-04  3.188634e-07
    298    300   2   0.50000     0.0600000    0.0600000   3.930919e-05  8.704828e-09
    298    308   2   0.50000     0.0600000   -0.1200000   2.494471e-04  1.671101e-07
    299    292   2   0.50000     0.0600000    0.5100000   3.869820e-04  3.188634e-07
    299    300   2   0.50000     0.0600000    0.0600000   3.930919e-05  8.704828e-09
    299    308   2   0.50000     0.0600000   -0.1200000   2.494471e-04  1.671101e-07
    290    293   2   0.50000    -0.1200000   -0.4300000   1.095425e-03  1.218041e-06
    290    294   2   0.50000    -0.1200000   -0.3300000   1.026091e-03  1.187829e-06
    300    293   2   0.50000     0.0600000   -0.4300000   1.726228e-04  6.344822e-08
    300    294   2   0.50000     0.0600000   -0.3300000   1.616969e-04  6.187447e-08
    308    293   2   0.50000    -0.1200000   -0.4300000   1.095425e-03  1.218041e-06
    308    294   2   0.50000    -0.1200000   -0.3300000   1.026091e-03  1.187829e-06
    290    309   2   0.50000    -0.1200000   -0.0600000   1.015252e-03  1.866303e-06
    290    316   2   0.50000    -0.1200000    0.0600000   2.494471e-04  1.671101e-07
    290    317   2   0.50000    -0.1200000    0.0600000   2.494471e-04  1.671101e-07
    292    309   2   0.50000     0.5100000   -0.0600000   1.575021e-03  3.561100e-06
    292    316   2   0.50000     0.5100000    0.0600000   3.869820e-04  3.188634e-07
    292    317   2   0.50000     0.5100000    0.0600000   3.869820e-04  3.188634e-07
    300    309   2   0.50000     0.0600000   -0.0600000   1.599888e-04  9.721644e-08
    300    316   2   0.50000     0.0600000    0.0600000   3.930919e-05  8.704828e-09
    300    317   2   0.50000     0.0600000    0.0600000   3.930919e-05  8.704828e-09
    291    295   2   0.50000    -0.0600000    0.1900000   1.015252e-03  1.866303e-06
    293    295   2   0.50000    -0.4300000    0.1900000   1.095425e-03  1.218041e-06
    292    296   2   0.50000     0.5100000   -0.1200000   1.575021e-03  3.561100e-06
    292    301   2   0.50000     0.5100000    0.0300000   2.482000e-04  1.854991e-07
    292    302   2   0.50000     0.5100000    0.0300000   2.482000e-04  1.854991e-07
    294    297   2   0.50000    -0.3300000   -0.1800000   1.026091e-03  1.187829e-06
    294    303   2   0.50000    -0.3300000    0.0600000   2.521103e-04  1.063590e-07
    294    304   2   0.50000    -0.3300000    0.0600000   2.521103e-04  1.063590e-07
    301    297   2   0.50000     0.0300000   -0.1800000   1.599888e-04  9.721644e-08
    301    303   2   0.50000     0.0300000    0.0600000   3.930919e-05  8.704828e-09
    301    304   2   0.50000     0.0300000    0.0600000   3.930919e-05  8.704828e-09
    302    297   2   0.50000     0.0300000   -0.1800000   1.599888e-04  9.721644e-08
    302    303   2   0.50000     0.0300000    0.0600000   3.930919e-05  8.704828e-09
    302    304   2   0.50000     0.0300000    0.0600000   3.930919e-05  8.704828e-09
    295    305   2   0.50000     0.1900000    0.0600000   2.494471e-04  1.671101e-07
    295    306   2   0.50000     0.1900000    0.0600000   2.494471e-04  1.671101e-07
    295    307   2   0.50000     0.1900000    0.0600000   2.494471e-04  1.671101e-07
    303    305   2   0.50000     0.0600000    0.0600000   6.128906e-05  1.496315e-08
    303    306   2   0.50000     0.0600000    0.0600000   6.128906e-05  1.496315e-08
    303    307   2   0.50000     0.0600000    0.0600000   6.128906e-05  1.496315e-08
    304    305   2   0.50000     0.0600000    0.0600000   6.128906e-05  1.496315e-08
    304    306   2   0.50000     0.0600000    0.0600000   6.128906e-05  1.496315e-08
    304    307   2   0.50000     0.0600000    0.0600000   6.128906e-05  1.496315e-08
    291    310   2   0.50000    -0.0600000    0.5100000   1.575021e-03  3.561100e-06
    291    318   2   0.50000    -0.0600000    0.0600000   1.599888e-04  9.721644e-08
    291    326   2   0.50000    -0.0600000   -0.1200000   1.015252e-03  1.866303e-06
    316    310   2   0.50000     0.0600000    0.5100000   3.869820e-04  3.188634e-07
    316    318   2   0.50000     0.0600000    0.0600000   3.930919e-05  8.704828e-09
    316    326   2   0.50000     0.0600000   -0.1200000   2.494471e-04  1.671101e-07
    317    310   2   0.50000     0.0600000    0.5100000   3.869820e-04  3.188634e-07
    317    318   2   0.50000     0.0600000    0.0600000   3.930919e-05  8.704828e-09
    317    326   2   0.50000     0.0600000   -0.1200000   2.494471e-04  1.671101e-07
    308    311   2   0.50000    -0.1200000   -0.4300000   1.095425e-03  1.218041e-06
    308    312   2   0.50000    -0.1200000   -0.3300000   1.026091e-03  1.187829e-06
    318    311   2   0.50000     0.0600000   -0.4300000   1.726228e-04  6.344822e-08
    318    312   2   0.50000     0.0600000   -0.3300000   1.616969e-04  6.187447e-08
    326    311   2   0.50000    -0.1200000   -0.4300000   1.095425e-03  1.218041e-06
    326    312   2   0.50000    -0.1200000   -0.3300000   1.026091e-03  1.187829e-06
    308    327   2   0.50000    -0.1200000   -0.0600000   1.015252e-03  1.866303e-06
    308    334   2   0.50000    -0.1200000    0.0600000   2.494471e-04  1.671101e-07
    308    335   2   0.50000    -0.1200000    0.0600000   2.494471e-04  1.671101e-07
    310    327   2   0.50000     0.5100000   -0.0600000   1.575021e-03  3.561100e-06
    310    334   2   0.50000     0.5100000    0.0600000   3.869820e-04  3.188634e-07
    310    335   2   0.50000     0.5100000    0.0600000   3.869820e-04  3.188634e-07
    318    327   2   0.50000     0.0600000   -0.0600000   1.599888e-04  9.721644e-08
    318    334   2   0.50000     0.0600000    0.0600000   3.930919e-05  8.704828e-09
    318    335   2   0.50000     0.0600000    0.0600000   3.930919e-05  8.704828e-09
    309    313   2   0.50000    -0.0600000    0.1900000   1.015252e-03  1.866303e-06
    311    313   2   0.50000    -0.4300000    0.1900000   1.095425e-03  1.218041e-06
    310    314   2   0.50000     0.5100000   -0.1200000   1.575021e-03  3.561100e-06
    310    319   2   0.50000     0.5100000    0.0300000   2.482000e-04  1.854991e-07
    310    320   2   0.50000     0.5100000    0.0300000   2.482000e-04  1.854991e-07
    312    315   2   0.50000    -0.3300000   -0.1800000   1.026091e-03  1.187829e-06
    312    321   2   0.50000    -0.3300000    0.0600000   2.521103e-04  1.063590e-07
    312    322   2   0.50000    -0.3300000    0.0600000   2.521103e-04  1.063590e-07
    319    315   2   0.50000     0.0300000   -0.1800000   1.599888e-04  9.721644e-08
    319    321   2   0.50000     0.0300000    0.0600000   3.930919e-05  8.704828e-09
    319    322   2   0.50000     0.0300000    0.0600000   3.930919e-05  8.704828e-09
    320    315   2   0.50000     0.0300000   -0.1800000   1.599888e-04  9.721644e-08
    320    321   2   0.50000     0.0300000    0.0600000   3.930919e-05  8.704828e-09
    320    322   2   0.50000     0.0300000    0.0600000   3.930919e-05  8.704828e-09
    313    323   2   0.50000     0.1900000    0.0600000   2.494471e-04  1.671101e-07
    313    324   2   0.50000     0.1900000    0.0600000   2.494471e-04  1.671101e-07
    313    325   2   0.50000     0.1900000    0.0600000   2.494471e-04  1.671101e-07
    321    323   2   0.50000     0.0600000    0.0600000   6.128906e-05  1.496315e-08
    321    324   2   0.50000     0.0600000    0.0600000   6.128906e-05  1.496315e-08
    321    325   2   0.50000     0.0600000    0.0600000   6.128906e-05  1.496315e-08
    322    323   2   0.50000     0.0600000    0.0600000   6.128906e-05  1.496315e-08
    322    324   2   0.50000     0.0600000    0.0600000   6.128906e-05  1.496315e-08
    322    325   2   0.50000     0.0600000    0.0600000   6.128906e-05  1.496315e-08
    309    328   2   0.50000    -0.0600000    0.5100000   1.575021e-03  3.561100e-06
    309    336   2   0.50000    -0.0600000    0.0600000   1.599888e-04  9.721644e-08
    309    344   2   0.50000    -0.0600000   -0.1200000   1.015252e-03  1.866303e-06
    334    328   2   0.50000     0.0600000    0.5100000   3.869820e-04  3.188634e-07
    334    336   2   0.50000     0.0600000    0.0600000   3.930919e-05  8.704828e-09
    334    344   2   0.50000     0.0600000   -0.1200000   2.494471e-04  1.671101e-07
    335    328   2   0.50000     0.0600000    0.5100000   3.869820e-04  3.188634e-07
    335    336   2   0.50000     0.0600000    0.0600000   3.930919e-05  8.704828e-09
    335    344   2   0.50000     0.0600000   -0.1200000   2.494471e-04  1.671101e-07
    326    329   2   0.50000    -0.1200000   -0.4300000   1.095425e-03  1.218041e-06
    326    330   2   0.50000    -0.1200000   -0.3300000   1.026091e-03  1.187829e-06
    336    329   2   0.50000     0.0600000   -0.4300000   1.726228e-04  6.344822e-08
    336    330   2   0.50000     0.0600000   -0.3300000   1.616969e-04  6.187447e-08
    344    329   2   0.50000    -0.1200000   -0.4300000   1.095425e-03  1.218041e-06
    344    330   2   0.50000    -0.1200000   -0.3300000   1.026091e-03  1.187829e-06
    326    345   2   0.50000    -0.1200000   -0.1200000   1.015252e-03  1.866303e-06
    326    352   2   0.50000    -0.1200000    0.0600000   2.494471e-04  1.671101e-07
    326    353   2   0.50000    -0.1200000    0.0600000   2.494471e-04  1.671101e-07
    328    345   2   0.50000     0.5100000   -0.1200000   1.575021e-03  3.561100e-06
    328    352   2   0.50000     0.5100000    0.0600000   3.869820e-04  3.188634e-07
    328    353   2   0.50000     0.5100000    0.0600000   3.869820e-04  3.188634e-07
    336    345   2   0.50000     0.0600000   -0.1200000   1.599888e-04  9.721644e-08
    336    352   2   0.50000     0.0600000    0.0600000   3.930919e-05  8.704828e-09
    336    353   2   0.50000     0.0600000    0.0600000   3.930919e-05  8.704828e-09
    327    331   2   0.50000    -0.0600000    0.1900000   1.015252e-03  1.866303e-06
    329    331   2   0.50000    -0.4300000    0.1900000   1.095425e-03  1.218041e-06
    328    332   2   0.50000     0.5100000   -0.1200000   1.575021e-03  3.561100e-06
    328    337   2   0.50000     0.5100000    0.0300000   2.482000e-04  1.854991e-07
    328    338   2   0.50000     0.5100000    0.0300000   2.482000e-04  1.854991e-07
    330    333   2   0.50000    -0.3300000   -0.1800000   1.026091e-03  1.187829e-06
    330    339   2   0.50000    -0.3300000    0.0600000   2.521103e-04  1.063590e-07
    330    340   2   0.50000    -0.3300000    0.0600000   2.521103e-04  1.063590e-07
    337    333   2   0.50000     0.0300000   -0.1800000   1.599888e-04  9.721644e-08
    337    339   2   0.50000     0.0300000    0.0600000   3.930919e-05  8.704828e-09
    337    340   2   0.50000     0.0300000    0.0600000   3.930919e-05  8.704828e-09
    338    333   2   0.50000     0.0300000   -0.1800000   1.599888e-04  9.721644e-08
    338    339   2   0.50000     0.0300000    0.0600000   3.930919e-05  8.704828e-09
    338    340   2   0.50000     0.0300000    0.0600000   3.930919e-05  8.704828e-09
    331    341   2   0.50000     0.1900000    0.0600000   2.494471e-04  1.671101e-07
    331    342   2   0.50000     0.1900000    0.0600000   2.494471e-04  1.671101e-07
    331    343   2   0.50000     0.1900000    0.0600000   2.494471e-04  1.671101e-07
    339    341   2   0.50000     0.0600000    0.0600000   6.128906e-05  1.496315e-08
    339    342   2   0.50000     0.0600000    0.0600000   6.128906e-05  1.496315e-08
    339    343   2   0.50000     0.0600000    0.0600000   6.128906e-05  1.496315e-08
    340    341   2   0.50000     0.0600000    0.0600000   6.128906e-05  1.496315e-08
    340    342   2   0.50000     0.0600000    0.0600000   6.128906e-05  1.496315e-08
    340    343   2   0.50000     0.0600000    0.0600000   6.128906e-05  1.496315e-08
    327    346   2   0.50000    -0.0600000    0.5100000   1.575021e-03  3.561100e-06
    327    354   2   0.50000    -0.0600000    0.0600000   1.599888e-04  9.721644e-08
    327    362   2   0.50000    -0.0600000    0.0600000   1.599888e-04  9.721644e-08
    352    346   2   0.50000     0.0600000    0.5100000   3.869820e-04  3.188634e-07
    352    354   2   0.50000     0.0600000    0.0600000   3.930919e-05  8.704828e-09
    352    362   2   0.50000     0.0600000    0.0600000   3.930919e-05  8.704828e-09
    353    346   2   0.50000     0.0600000    0.5100000   3.869820e-04  3.188634e-07
    353    354   2   0.50000     0.0600000    0.0600000   3.930919e-05  8.704828e-09
    353    362   2   0.50000     0.0600000    0.0600000   3.930919e-05  8.704828e-09
    344    347   2   0.50000    -0.1200000   -0.4300000   1.095425e-03  1.218041e-06
    344    348   2   0.50000    -0.1200000   -0.3300000   1.026091e-03  1.187829e-06
    354    347   2   0.50000     0.0600000   -0.4300000   1.726228e-04  6.344822e-08
    354    348   2   0.50000     0.0600000   -0.3300000   1.616969e-04  6.187447e-08
    362    347   2   0.50000     0.0600000   -0.4300000   1.726228e-04  6.344822e-08
    362    348   2   0.50000     0.0600000   -0.3300000   1.616969e-04  6.187447e-08
    345    349   2   0.50000    -0.1200000    0.1900000   1.015252e-03  1.866303e-06
    347    349   2   0.50000    -0.4300000    0.1900000   1.095425e-03  1.218041e-06
    346    350   2   0.50000     0.5100000   -0.1200000   1.575021e-03  3.561100e-06
    346    355   2   0.50000     0.5100000    0.0300000   2.482000e-04  1.854991e-07
    346    356   2   0.50000     0.5100000    0.0300000   2.482000e-04  1.854991e-07
    348    351   2   0.50000    -0.3300000   -0.1800000   1.026091e-03  1.187829e-06
    348    357   2   0.50000    -0.3300000    0.0600000   2.521103e-04  1.063590e-07
    348    358   2   0.50000    -0.3300000    0.0600000   2.521103e-04  1.063590e-07
    355    351   2   0.50000     0.0300000   -0.1800000   1.599888e-04  9.721644e-08
    355    357   2   0.50000     0.0300000    0.0600000   3.930919e-05  8.704828e-09
    355    358   2   0.50000     0.0300000    0.0600000   3.930919e-05  8.704828e-09
    356    351   2   0.50000     0.0300000   -0.1800000   1.599888e-04  9.721644e-08
    356    357   2   0.50000     0.0300000    0.0600000   3.930919e-05  8.704828e-09
    356    358   2   0.50000     0.0300000    0.0600000   3.930919e-05  8.704828e-09
    349    359   2   0.50000     0.1900000    0.0600000   2.494471e-04  1.671101e-07
    349    360   2   0.50000     0.1900000    0.0600000   2.494471e-04  1.671101e-07
    349    361   2   0.50000     0.1900000    0.0600000   2.494471e-04  1.671101e-07
    357    359   2   0.50000     0.0600000    0.0600000   6.128906e-05  1.496315e-08
    357    360   2   0.50000     0.0600000    0.0600000   6.128906e-05  1.496315e-08
    357    361   2   0.50000     0.0600000    0.0600000   6.128906e-05  1.496315e-08
    358    359   2   0.50000     0.0600000    0.0600000   6.128906e-05  1.496315e-08
    358    360   2   0.50000     0.0600000    0.0600000   6.128906e-05  1.496315e-08
    358    361   2   0.50000     0.0600000    0.0600000   6.128906e-05  1.496315e-08

[ angles ]
; ai  aj  ak
      2      1      9   1    110.7000    313.8000
      2      1     10   1    110.7000    313.8000
      2      1     19   1    110.7000    313.8000
      9      1     10   1    107.8000    276.1440
      9      1     19   1    107.8000    276.1440
     10      1     19   1    107.8000    276.1440
      1      2      3   1    111.1000    527.1840
      1      2     11   1    110.7000    313.8000
      1      2     20   1    112.7000    488.2728
      3      2     11   1    109.5000    292.8800
      3      2     20   1    111.1000    527.1840
     11      2     20   1    110.7000    313.8000
      2      3      4   1    120.4000    669.4400
      2      3      5   1    111.4000    677.8080
      4      3      5   1    123.4000    694.5440
      3      5      6   1    116.9000    694.5440
      5      6      7   1    109.5000    418.4000
      5      6     12   1    109.5000    292.8800
      5      6     13   1    109.5000    292.8800
      7      6     12   1    110.7000    313.8000
      7      6     13   1    110.7000    313.8000
     12      6     13   1    107.8000    276.1440
      6      7      8   1    112.7000    488.2728
      6      7     14   1    110.7000    313.8000
      6      7     15   1    110.7000    313.8000
      8      7     14   1    110.7000    313.8000
      8      7     15   1    110.7000    313.8000
     14      7     15   1    107.8000    276.1440
      7      8     16   1    110.7000    313.8000
      7      8     17   1    110.7000    313.8000
      7      8     18   1    110.7000    313.8000
     16      8     17   1    107.8000    276.1440
     16      8     18   1    107.8000    276.1440
     17      8     18   1    107.8000    276.1440
      2     20     21   1    112.7000    488.2728
      2     20     28   1    110.7000    313.8000
      2     20     29   1    110.7000    313.8000
     21     20     28   1    110.7000    313.8000
     21     20     29   1    110.7000    313.8000
     28     20     29   1    107.8000    276.1440
     20     21     22   1    111.1000    527.1840
     20     21     30   1    110.7000    313.8000
     20     21     38   1    112.7000    488.2728
     22     21     30   1    109.5000    292.8800
     22     21     38   1    111.1000    527.1840
     30     21     38   1    110.7000    313.8000
     21     22     23   1    120.4000    669.4400
     21     22     24   1    111.4000    677.8080
     23     22     24   1    123.4000    694.5440
     22     24     25   1    116.9000    694.5440
     24     25     26   1    109.5000    418.4000
     24     25     31   1    109.5000    292.8800
     24     25     32   1    109.5000    292.8800
     26     25     31   1    110.7000    313.8000
     26     25     32   1    110.7000    313.8000
     31     25     32   1    107.8000    276.1440
     25     26     27   1    112.7000    488.2728
     25     26     33   1    110.7000    313.8000
     25     26     34   1    110.7000    313.8000
     27     26     33   1    110.7000    313.8000
     27     26     34   1    110.7000    313.8000
     33     26     34   1    107.8000    276.1440
     26     27     35   1    110.7000    313.8000
     26     27     36   1    110.7000    313.8000
     26     27     37   1    110.7000    313.8000
     35     27     36   1    107.8000    276.1440
     35     27     37   1    107.8000    276.1440
     36     27     37   1    107.8000    276.1440
     21     38     39   1    112.7000    488.2728
     21     38     46   1    110.7000    313.8000
     21     38     47   1    110.7000    313.8000
     39     38     46   1    110.7000    313.8000
     39     38     47   1    110.7000    313.8000
     46     38     47   1    107.8000    276.1440
     38     39     40   1    111.1000    527.1840
     38     39     48   1    110.7000    313.8000
     38     39     56   1    112.7000    488.2728
     40     39     48   1    109.5000    292.8800
     40     39     56   1    111.1000    527.1840
     48     39     56   1    110.7000    313.8000
     39     40     41   1    120.4000    669.4400
     39     40     42   1    111.4000    677.8080
     41     40     42   1    123.4000    694.5440
     40     42     43   1    116.9000    694.5440
     42     43     44   1    109.5000    418.4000
     42     43     49   1    109.5000    292.8800
     42     43     50   1    109.5000    292.8800
     44     43     49   1    110.7000    313.8000
     44     43     50   1    110.7000    313.8000
     49     43     50   1    107.8000    276.1440
     43     44     45   1    112.7000    488.2728
     43     44     51   1    110.7000    313.8000
     43     44     52   1    110.7000    313.8000
     45     44     51   1    110.7000    313.8000
     45     44     52   1    110.7000    313.8000
     51     44     52   1    107.8000    276.1440
     44     45     53   1    110.7000    313.8000
     44     45     54   1    110.7000    313.8000
     44     45     55   1    110.7000    313.8000
     53     45     54   1    107.8000    276.1440
     53     45     55   1    107.8000    276.1440
     54     45     55   1    107.8000    276.1440
     39     56     57   1    112.7000    488.2728
     39     56     64   1    110.7000    313.8000
     39     56     65   1    110.7000    313.8000
     57     56     64   1    110.7000    313.8000
     57     56     65   1    110.7000    313.8000
     64     56     65   1    107.8000    276.1440
     56     57     58   1    111.1000    527.1840
     56     57     66   1    110.7000    313.8000
     56     57     74   1    112.7000    488.2728
     58     57     66   1    109.5000    292.8800
     58     57     74   1    111.1000    527.1840
     66     57     74   1    110.7000    313.8000
     57     58     59   1    120.4000    669.4400
     57     58     60   1    111.4000    677.8080
     59     58     60   1    123.4000    694.5440
     58     60     61   1    116.9000    694.5440
     60     61     62   1    109.5000    418.4000
     60     61     67   1    109.5000    292.8800
     60     61     68   1    109.5000    292.8800
     62     61     67   1    110.7000    313.8000
     62     61     68   1    110.7000    313.8000
     67     61     68   1    107.8000    276.1440
     61     62     63   1    112.7000    488.2728
     61     62     69   1    110.7000    313.8000
     61     62     70   1    110.7000    313.8000
     63     62     69   1    110.7000    313.8000
     63     62     70   1    110.7000    313.8000
     69     62     70   1    107.8000    276.1440
     62     63     71   1    110.7000    313.8000
     62     63     72   1    110.7000    313.8000
     62     63     73   1    110.7000    313.8000
     71     63     72   1    107.8000    276.1440
     71     63     73   1    107.8000    276.1440
     72     63     73   1    107.8000    276.1440
     57     74     75   1    112.7000    488.2728
     57     74     82   1    110.7000    313.8000
     57     74     83   1    110.7000    313.8000
     75     74     82   1    110.7000    313.8000
     75     74     83   1    110.7000    313.8000
     82     74     83   1    107.8000    276.1440
     74     75     76   1    111.1000    527.1840
     74     75     84   1    110.7000    313.8000
     74     75     92   1    112.7000    488.2728
     76     75     84   1    109.5000    292.8800
     76     75     92   1    111.1000    527.1840
     84     75     92   1    110.7000    313.8000
     75     76     77   1    120.4000    669.4400
     75     76     78   1    111.4000    677.8080
     77     76     78   1    123.4000    694.5440
     76     78     79   1    116.9000    694.5440
     78     79     80   1    109.5000    418.4000
     78     79     85   1    109.5000    292.8800
     78     79     86   1    109.5000    292.8800
     80     79     85   1    110.7000    313.8000
     80     79     86   1    110.7000    313.8000
     85     79     86   1    107.8000    276.1440
     79     80     81   1    112.7000    488.2728
     79     80     87   1    110.7000    313.8000
     79     80     88   1    110.7000    313.8000
     81     80     87   1    110.7000    313.8000
     81     80     88   1    110.7000    313.8000
     87     80     88   1    107.8000    276.1440
     80     81     89   1    110.7000    313.8000
     80     81     90   1    110.7000    313.8000
     80     81     91   1    110.7000    313.8000
     89     81     90   1    107.8000    276.1440
     89     81     91   1    107.8000    276.1440
     90     81     91   1    107.8000    276.1440
     75     92     93   1    112.7000    488.2728
     75     92    100   1    110.7000    313.8000
     75     92    101   1    110.7000    313.8000
     93     92    100   1    110.7000    313.8000
     93     92    101   1    110.7000    313.8000
    100     92    101   1    107.8000    276.1440
     92     93     94   1    111.1000    527.1840
     92     93    102   1    110.7000    313.8000
     92     93    110   1    112.7000    488.2728
     94     93    102   1    109.5000    292.8800
     94     93    110   1    111.1000    527.1840
    102     93    110   1    110.7000    313.8000
     93     94     95   1    120.4000    669.4400
     93     94     96   1    111.4000    677.8080
     95     94     96   1    123.4000    694.5440
     94     96     97   1    116.9000    694.5440
     96     97     98   1    109.5000    418.4000
     96     97    103   1    109.5000    292.8800
     96     97    104   1    109.5000    292.8800
     98     97    103   1    110.7000    313.8000
     98     97    104   1    110.7000    313.8000
    103     97    104   1    107.8000    276.1440
     97     98     99   1    112.7000    488.2728
     97     98    105   1    110.7000    313.8000
     97     98    106   1    110.7000    313.8000
     99     98    105   1    110.7000    313.8000
     99     98    106   1    110.7000    313.8000
    105     98    106   1    107.8000    276.1440
     98     99    107   1    110.7000    313.8000
     98     99    108   1    110.7000    313.8000
     98     99    109   1    110.7000    313.8000
    107     99    108   1    107.8000    276.1440
    107     99    109   1    107.8000    276.1440
    108     99    109   1    107.8000    276.1440
     93    110    111   1    112.7000    488.2728
     93    110    118   1    110.7000    313.8000
     93    110    119   1    110.7000    313.8000
    111    110    118   1    110.7000    313.8000
    111    110    119   1    110.7000    313.8000
    118    110    119   1    107.8000    276.1440
    110    111    112   1    111.1000    527.1840
    110    111    120   1    110.7000    313.8000
    110    111    128   1    112.7000    488.2728
    112    111    120   1    109.5000    292.8800
    112    111    128   1    111.1000    527.1840
    120    111    128   1    110.7000    313.8000
    111    112    113   1    120.4000    669.4400
    111    112    114   1    111.4000    677.8080
    113    112    114   1    123.4000    694.5440
    112    114    115   1    116.9000    694.5440
    114    115    116   1    109.5000    418.4000
    114    115    121   1    109.5000    292.8800
    114    115    122   1    109.5000    292.8800
    116    115    121   1    110.7000    313.8000
    116    115    122   1    110.7000    313.8000
    121    115    122   1    107.8000    276.1440
    115    116    117   1    112.7000    488.2728
    115    116    123   1    110.7000    313.8000
    115    116    124   1    110.7000    313.8000
    117    116    123   1    110.7000    313.8000
    117    116    124   1    110.7000    313.8000
    123    116    124   1    107.8000    276.1440
    116    117    125   1    110.7000    313.8000
    116    117    126   1    110.7000    313.8000
    116    117    127   1    110.7000    313.8000
    125    117    126   1    107.8000    276.1440
    125    117    127   1    107.8000    276.1440
    126    117    127   1    107.8000    276.1440
    111    128    129   1    112.7000    488.2728
    111    128    136   1    110.7000    313.8000
    111    128    137   1    110.7000    313.8000
    129    128    136   1    110.7000    313.8000
    129    128    137   1    110.7000    313.8000
    136    128    137   1    107.8000    276.1440
    128    129    130   1    111.1000    527.1840
    128    129    138   1    110.7000    313.8000
    128    129    146   1    112.7000    488.2728
    130    129    138   1    109.5000    292.8800
    130    129    146   1    111.1000    527.1840
    138    129    146   1    110.7000    313.8000
    129    130    131   1    120.4000    669.4400
    129    130    132   1    111.4000    677.8080
    131    130    132   1    123.4000    694.5440
    130    132    133   1    116.9000    694.5440
    132    133    134   1    109.5000    418.4000
    132    133    139   1    109.5000    292.8800
    132    133    140   1    109.5000    292.8800
    134    133    139   1    110.7000    313.8000
    134    133    140   1    110.7000    313.8000
    139    133    140   1    107.8000    276.1440
    133    134    135   1    112.7000    488.2728
    133    134    141   1    110.7000    313.8000
    133    134    142   1    110.7000    313.8000
    135    134    141   1    110.7000    313.8000
    135    134    142   1    110.7000    313.8000
    141    134    142   1    107.8000    276.1440
    134    135    143   1    110.7000    313.8000
    134    135    144   1    110.7000    313.8000
    134    135    145   1    110.7000    313.8000
    143    135    144   1    107.8000    276.1440
    143    135    145   1    107.8000    276.1440
    144    135    145   1    107.8000    276.1440
    129    146    147   1    112.7000    488.2728
    129    146    154   1    110.7000    313.8000
    129    146    155   1    110.7000    313.8000
    147    146    154   1    110.7000    313.8000
    147    146    155   1    110.7000    313.8000
    154    146    155   1    107.8000    276.1440
    146    147    148   1    111.1000    527.1840
    146    147    156   1    110.7000    313.8000
    146    147    164   1    112.7000    488.2728
    148    147    156   1    109.5000    292.8800
    148    147    164   1    111.1000    527.1840
    156    147    164   1    110.7000    313.8000
    147    148    149   1    120.4000    669.4400
    147    148    150   1    111.4000    677.8080
    149    148    150   1    123.4000    694.5440
    148    150    151   1    116.9000    694.5440
    150    151    152   1    109.5000    418.4000
    150    151    157   1    109.5000    292.8800
    150    151    158   1    109.5000    292.8800
    152    151    157   1    110.7000    313.8000
    152    151    158   1    110.7000    313.8000
    157    151    158   1    107.8000    276.1440
    151    152    153   1    112.7000    488.2728
    151    152    159   1    110.7000    313.8000
    151    152    160   1    110.7000    313.8000
    153    152    159   1    110.7000    313.8000
    153    152    160   1    110.7000    313.8000
    159    152    160   1    107.8000    276.1440
    152    153    161   1    110.7000    313.8000
    152    153    162   1    110.7000    313.8000
    152    153    163   1    110.7000    313.8000
    161    153    162   1    107.8000    276.1440
    161    153    163   1    107.8000    276.1440
    162    153    163   1    107.8000    276.1440
    147    164    165   1    112.7000    488.2728
    147    164    172   1    110.7000    313.8000
    147    164    173   1    110.7000    313.8000
    165    164    172   1    110.7000    313.8000
    165    164    173   1    110.7000    313.8000
    172    164    173   1    107.8000    276.1440
    164    165    166   1    111.1000    527.1840
    164    165    174   1    110.7000    313.8000
    164    165    182   1    112.7000    488.2728
    166    165    174   1    109.5000    292.8800
    166    165    182   1    111.1000    527.1840
    174    165    182   1    110.7000    313.8000
    165    166    167   1    120.4000    669.4400
    165    166    168   1    111.4000    677.8080
    167    166    168   1    123.4000    694.5440
    166    168    169   1    116.9000    694.5440
    168    169    170   1    109.5000    418.4000
    168    169    175   1    109.5000    292.8800
    168    169    176   1    109.5000    292.8800
    170    169    175   1    110.7000    313.8000
    170    169    176   1    110.7000    313.8000
    175    169    176   1    107.8000    276.1440
    169    170    171   1    112.7000    488.2728
    169    170    177   1    110.7000    313.8000
    169    170    178   1    110.7000    313.8000
    171    170    177   1    110.7000    313.8000
    171    170    178   1    110.7000    313.8000
    177    170    178   1    107.8000    276.1440
    170    171    179   1    110.7000    313.8000
    170    171    180   1    110.7000    313.8000
    170    171    181   1    110.7000    313.8000
    179    171    180   1    107.8000    276.1440
    179    171    181   1    107.8000    276.1440
    180    171    181   1    107.8000    276.1440
    165    182    183   1    112.7000    488.2728
    165    182    190   1    110.7000    313.8000
    165    182    191   1    110.7000    313.8000
    183    182    190   1    110.7000    313.8000
    183    182    191   1    110.7000    313.8000
    190    182    191   1    107.8000    276.1440
    182    183    184   1    111.1000    527.1840
    182    183    192   1    110.7000    313.8000
    182    183    200   1    112.7000    488.2728
    184    183    192   1    109.5000    292.8800
    184    183    200   1    111.1000    527.1840
    192    183    200   1    110.7000    313.8000
    183    184    185   1    120.4000    669.4400
    183    184    186   1    111.4000    677.8080
    185    184    186   1    123.4000    694.5440
    184    186    187   1    116.9000    694.5440
    186    187    188   1    109.5000    418.4000
    186    187    193   1    109.5000    292.8800
    186    187    194   1    109.5000    292.8800
    188    187    193   1    110.7000    313.8000
    188    187    194   1    110.7000    313.8000
    193    187    194   1    107.8000    276.1440
    187    188    189   1    112.7000    488.2728
    187    188    195   1    110.7000    313.8000
    187    188    196   1    110.7000    313.8000
    189    188    195   1    110.7000    313.8000
    189    188    196   1    110.7000    313.8000
    195    188    196   1    107.8000    276.1440
    188    189    197   1    110.7000    313.8000
    188    189    198   1    110.7000    313.8000
    188    189    199   1    110.7000    313.8000
    197    189    198   1    107.8000    276.1440
    197    189    199   1    107.8000    276.1440
    198    189    199   1    107.8000    276.1440
    183    200    201   1    112.7000    488.2728
    183    200    208   1    110.7000    313.8000
    183    200    209   1    110.7000    313.8000
    201    200    208   1    110.7000    313.8000
    201    200    209   1    110.7000    313.8000
    208    200    209   1    107.8000    276.1440
    200    201    202   1    111.1000    527.1840
    200    201    210   1    110.7000    313.8000
    200    201    218   1    112.7000    488.2728
    202    201    210   1    109.5000    292.8800
    202    201    218   1    111.1000    527.1840
    210    201    218   1    110.7000    313.8000
    201    202    203   1    120.4000    669.4400
    201    202    204   1    111.4000    677.8080
    203    202    204   1    123.4000    694.5440
    202    204    205   1    116.9000    694.5440
    204    205    206   1    109.5000    418.4000
    204    205    211   1    109.5000    292.8800
    204    205    212   1    109.5000    292.8800
    206    205    211   1    110.7000    313.8000
    206    205    212   1    110.7000    313.8000
    211    205    212   1    107.8000    276.1440
    205    206    207   1    112.7000    488.2728
    205    206    213   1    110.7000    313.8000
    205    206    214   1    110.7000    313.8000
    207    206    213   1    110.7000    313.8000
    207    206    214   1    110.7000    313.8000
    213    206    214   1    107.8000    276.1440
    206    207    215   1    110.7000    313.8000
    206    207    216   1    110.7000    313.8000
    206    207    217   1    110.7000    313.8000
    215    207    216   1    107.8000    276.1440
    215    207    217   1    107.8000    276.1440
    216    207    217   1    107.8000    276.1440
    201    218    219   1    112.7000    488.2728
    201    218    226   1    110.7000    313.8000
    201    218    227   1    110.7000    313.8000
    219    218    226   1    110.7000    313.8000
    219    218    227   1    110.7000    313.8000
    226    218    227   1    107.8000    276.1440
    218    219    220   1    111.1000    527.1840
    218    219    228   1    110.7000    313.8000
    218    219    236   1    112.7000    488.2728
    220    219    228   1    109.5000    292.8800
    220    219    236   1    111.1000    527.1840
    228    219    236   1    110.7000    313.8000
    219    220    221   1    120.4000    669.4400
    219    220    222   1    111.4000    677.8080
    221    220    222   1    123.4000    694.5440
    220    222    223   1    116.9000    694.5440
    222    223    224   1    109.5000    418.4000
    222    223    229   1    109.5000    292.8800
    222    223    230   1    109.5000    292.8800
    224    223    229   1    110.7000    313.8000
    224    223    230   1    110.7000    313.8000
    229    223    230   1    107.8000    276.1440
    223    224    225   1    112.7000    488.2728
    223    224    231   1    110.7000    313.8000
    223    224    232   1    110.7000    313.8000
    225    224    231   1    110.7000    313.8000
    225    224    232   1    110.7000    313.8000
    231    224    232   1    107.8000    276.1440
    224    225    233   1    110.7000    313.8000
    224    225    234   1    110.7000    313.8000
    224    225    235   1    110.7000    313.8000
    233    225    234   1    107.8000    276.1440
    233    225    235   1    107.8000    276.1440
    234    225    235   1    107.8000    276.1440
    219    236    237   1    112.7000    488.2728
    219    236    244   1    110.7000    313.8000
    219    236    245   1    110.7000    313.8000
    237    236    244   1    110.7000    313.8000
    237    236    245   1    110.7000    313.8000
    244    236    245   1    107.8000    276.1440
    236    237    238   1    111.1000    527.1840
    236    237    246   1    110.7000    313.8000
    236    237    254   1    112.7000    488.2728
    238    237    246   1    109.5000    292.8800
    238    237    254   1    111.1000    527.1840
    246    237    254   1    110.7000    313.8000
    237    238    239   1    120.4000    669.4400
    237    238    240   1    111.4000    677.8080
    239    238    240   1    123.4000    694.5440
    238    240    241   1    116.9000    694.5440
    240    241    242   1    109.5000    418.4000
    240    241    247   1    109.5000    292.8800
    240    241    248   1    109.5000    292.8800
    242    241    247   1    110.7000    313.8000
    242    241    248   1    110.7000    313.8000
    247    241    248   1    107.8000    276.1440
    241    242    243   1    112.7000    488.2728
    241    242    249   1    110.7000    313.8000
    241    242    250   1    110.7000    313.8000
    243    242    249   1    110.7000    313.8000
    243    242    250   1    110.7000    313.8000
    249    242    250   1    107.8000    276.1440
    242    243    251   1    110.7000    313.8000
    242    243    252   1    110.7000    313.8000
    242    243    253   1    110.7000    313.8000
    251    243    252   1    107.8000    276.1440
    251    243    253   1    107.8000    276.1440
    252    243    253   1    107.8000    276.1440
    237    254    255   1    112.7000    488.2728
    237    254    262   1    110.7000    313.8000
    237    254    263   1    110.7000    313.8000
    255    254    262   1    110.7000    313.8000
    255    254    263   1    110.7000    313.8000
    262    254    263   1    107.8000    276.1440
    254    255    256   1    111.1000    527.1840
    254    255    264   1    110.7000    313.8000
    254    255    272   1    112.7000    488.2728
    256    255    264   1    109.5000    292.8800
    256    255    272   1    111.1000    527.1840
    264    255    272   1    110.7000    313.8000
    255    256    257   1    120.4000    669.4400
    255    256    258   1    111.4000    677.8080
    257    256    258   1    123.4000    694.5440
    256    258    259   1    116.9000    694.5440
    258    259    260   1    109.5000    418.4000
    258    259    265   1    109.5000    292.8800
    258    259    266   1    109.5000    292.8800
    260    259    265   1    110.7000    313.8000
    260    259    266   1    110.7000    313.8000
    265    259    266   1    107.8000    276.1440
    259    260    261   1    112.7000    488.2728
    259    260    267   1    110.7000    313.8000
    259    260    268   1    110.7000    313.8000
    261    260    267   1    110.7000    313.8000
    261    260    268   1    110.7000    313.8000
    267    260    268   1    107.8000    276.1440
    260    261    269   1    110.7000    313.8000
    260    261    270   1    110.7000    313.8000
    260    261    271   1    110.7000    313.8000
    269    261    270   1    107.8000    276.1440
    269    261    271   1    107.8000    276.1440
    270    261    271   1    107.8000    276.1440
    255    272    273   1    112.7000    488.2728
    255    272    280   1    110.7000    313.8000
    255    272    281   1    110.7000    313.8000
    273    272    280   1    110.7000    313.8000
    273    272    281   1    110.7000    313.8000
    280    272    281   1    107.8000    276.1440
    272    273    274   1    111.1000    527.1840
    272    273    282   1    110.7000    313.8000
    272    273    290   1    112.7000    488.2728
    274    273    282   1    109.5000    292.8800
    274    273    290   1    111.1000    527.1840
    282    273    290   1    110.7000    313.8000
    273    274    275   1    120.4000    669.4400
    273    274    276   1    111.4000    677.8080
    275    274    276   1    123.4000    694.5440
    274    276    277   1    116.9000    694.5440
    276    277    278   1    109.5000    418.4000
    276    277    283   1    109.5000    292.8800
    276    277    284   1    109.5000    292.8800
    278    277    283   1    110.7000    313.8000
    278    277    284   1    110.7000    313.8000
    283    277    284   1    107.8000    276.1440
    277    278    279   1    112.7000    488.2728
    277    278    285   1    110.7000    313.8000
    277    278    286   1    110.7000    313.8000
    279    278    285   1    110.7000    313.8000
    279    278    286   1    110.7000    313.8000
    285    278    286   1    107.8000    276.1440
    278    279    287   1    110.7000    313.8000
    278    279    288   1    110.7000    313.8000
    278    279    289   1    110.7000    313.8000
    287    279    288   1    107.8000    276.1440
    287    279    289   1    107.8000    276.1440
    288    279    289   1    107.8000    276.1440
    273    290    291   1    112.7000    488.2728
    273    290    298   1    110.7000    313.8000
    273    290    299   1    110.7000    313.8000
    291    290    298   1    110.7000    313.8000
    291    290    299   1    110.7000    313.8000
    298    290    299   1    107.8000    276.1440
    290    291    292   1    111.1000    527.1840
    290    291    300   1    110.7000    313.8000
    290    291    308   1    112.7000    488.2728
    292    291    300   1    109.5000    292.8800
    292    291    308   1    111.1000    527.1840
    300    291    308   1    110.7000    313.8000
    291    292    293   1    120.4000    669.4400
    291    292    294   1    111.4000    677.8080
    293    292    294   1    123.4000    694.5440
    292    294    295   1    116.9000    694.5440
    294    295    296   1    109.5000    418.4000
    294    295    301   1    109.5000    292.8800
    294    295    302   1    109.5000    292.8800
    296    295    301   1    110.7000    313.8000
    296    295    302   1    110.7000    313.8000
    301    295    302   1    107.8000    276.1440
    295    296    297   1    112.7000    488.2728
    295    296    303   1    110.7000    313.8000
    295    296    304   1    110.7000    313.8000
    297    296    303   1    110.7000    313.8000
    297    296    304   1    110.7000    313.8000
    303    296    304   1    107.8000    276.1440
    296    297    305   1    110.7000    313.8000
    296    297    306   1    110.7000    313.8000
    296    297    307   1    110.7000    313.8000
    305    297    306   1    107.8000    276.1440
    305    297    307   1    107.8000    276.1440
    306    297    307   1    107.8000    276.1440
    291    308    309   1    112.7000    488.2728
    291    308    316   1    110.7000    313.8000
    291    308    317   1    110.7000    313.8000
    309    308    316   1    110.7000    313.8000
    309    308    317   1    110.7000    313.8000
    316    308    317   1    107.8000    276.1440
    308    309    310   1    111.1000    527.1840
    308    309    318   1    110.7000    313.8000
    308    309    326   1    112.7000    488.2728
    310    309    318   1    109.5000    292.8800
    310    309    326   1    111.1000    527.1840
    318    309    326   1    110.7000    313.8000
    309    310    311   1    120.4000    669.4400
    309    310    312   1    111.4000    677.8080
    311    310    312   1    123.4000    694.5440
    310    312    313   1    116.9000    694.5440
    312    313    314   1    109.5000    418.4000
    312    313    319   1    109.5000    292.8800
    312    313    320   1    109.5000    292.8800
    314    313    319   1    110.7000    313.8000
    314    313    320   1    110.7000    313.8000
    319    313    320   1    107.8000    276.1440
    313    314    315   1    112.7000    488.2728
    313    314    321   1    110.7000    313.8000
    313    314    322   1    110.7000    313.8000
    315    314    321   1    110.7000    313.8000
    315    314    322   1    110.7000    313.8000
    321    314    322   1    107.8000    276.1440
    314    315    323   1    110.7000    313.8000
    314    315    324   1    110.7000    313.8000
    314    315    325   1    110.7000    313.8000
    323    315    324   1    107.8000    276.1440
    323    315    325   1    107.8000    276.1440
    324    315    325   1    107.8000    276.1440
    309    326    327   1    112.7000    488.2728
    309    326    334   1    110.7000    313.8000
    309    326    335   1    110.7000    313.8000
    327    326    334   1    110.7000    313.8000
    327    326    335   1    110.7000    313.8000
    334    326    335   1    107.8000    276.1440
    326    327    328   1    111.1000    527.1840
    326    327    336   1    110.7000    313.8000
    326    327    344   1    112.7000    488.2728
    328    327    336   1    109.5000    292.8800
    328    327    344   1    111.1000    527.1840
    336    327    344   1    110.7000    313.8000
    327    328    329   1    120.4000    669.4400
    327    328    330   1    111.4000    677.8080
    329    328    330   1    123.4000    694.5440
    328    330    331   1    116.9000    694.5440
    330    331    332   1    109.5000    418.4000
    330    331    337   1    109.5000    292.8800
    330    331    338   1    109.5000    292.8800
    332    331    337   1    110.7000    313.8000
    332    331    338   1    110.7000    313.8000
    337    331    338   1    107.8000    276.1440
    331    332    333   1    112.7000    488.2728
    331    332    339   1    110.7000    313.8000
    331    332    340   1    110.7000    313.8000
    333    332    339   1    110.7000    313.8000
    333    332    340   1    110.7000    313.8000
    339    332    340   1    107.8000    276.1440
    332    333    341   1    110.7000    313.8000
    332    333    342   1    110.7000    313.8000
    332    333    343   1    110.7000    313.8000
    341    333    342   1    107.8000    276.1440
    341    333    343   1    107.8000    276.1440
    342    333    343   1    107.8000    276.1440
    327    344    345   1    112.7000    488.2728
    327    344    352   1    110.7000    313.8000
    327    344    353   1    110.7000    313.8000
    345    344    352   1    110.7000    313.8000
    345    344    353   1    110.7000    313.8000
    352    344    353   1    107.8000    276.1440
    344    345    346   1    111.1000    527.1840
    344    345    354   1    110.7000    313.8000
    344    345    362   1    110.7000    313.8000
    346    345    354   1    109.5000    292.8800
    346    345    362   1    109.5000    292.8800
    354    345    362   1    107.8000    276.1440
    345    346    347   1    120.4000    669.4400
    345    346    348   1    111.4000    677.8080
    347    346    348   1    123.4000    694.5440
    346    348    349   1    116.9000    694.5440
    348    349    350   1    109.5000    418.4000
    348    349    355   1    109.5000    292.8800
    348    349    356   1    109.5000    292.8800
    350    349    355   1    110.7000    313.8000
    350    349    356   1    110.7000    313.8000
    355    349    356   1    107.8000    276.1440
    349    350    351   1    112.7000    488.2728
    349    350    357   1    110.7000    313.8000
    349    350    358   1    110.7000    313.8000
    351    350    357   1    110.7000    313.8000
    351    350    358   1    110.7000    313.8000
    357    350    358   1    107.8000    276.1440
    350    351    359   1    110.7000    313.8000
    350    351    360   1    110.7000    313.8000
    350    351    361   1    110.7000    313.8000
    359    351    360   1    107.8000    276.1440
    359    351    361   1    107.8000    276.1440
    360    351    361   1    107.8000    276.1440

[ dihedrals ]
; Proper dihedrals
      9      1      2      3   5     0.00000     0.00000    -0.94140  0.0
      9      1      2     11   5     0.00000     0.00000     1.25520  0.0
      9      1      2     20   5     0.00000     0.00000     1.25520  0.0
     10      1      2      3   5     0.00000     0.00000    -0.94140  0.0
     10      1      2     11   5     0.00000     0.00000     1.25520  0.0
     10      1      2     20   5     0.00000     0.00000     1.25520  0.0
     19      1      2      3   5     0.00000     0.00000    -0.94140  0.0
     19      1      2     11   5     0.00000     0.00000     1.25520  0.0
     19      1      2     20   5     0.00000     0.00000     1.25520  0.0
      1      2      3      4   5     0.00000     2.52295     0.00000  0.0
      1      2      3      5   5     0.00000     0.00000     3.07524  0.0
     11      2      3      4   5     0.00000     0.00000     0.00000  0.0
     11      2      3      5   5     0.00000     0.00000     0.00000  0.0
     20      2      3      4   5     0.00000     2.52295     0.00000  0.0
     20      2      3      5   5     0.00000     0.00000     3.07524  0.0
      1      2     20     21   5     4.74884    -0.63178     1.67360  0.0
      1      2     20     28   5     0.00000     0.00000     1.25520  0.0
      1      2     20     29   5     0.00000     0.00000     1.25520  0.0
      3      2     20     21   5    -8.00818    -1.52298     2.46438  0.0
      3      2     20     28   5     0.00000     0.00000    -0.94140  0.0
      3      2     20     29   5     0.00000     0.00000    -0.94140  0.0
     11      2     20     21   5     0.00000     0.00000     1.25520  0.0
     11      2     20     28   5     0.00000     0.00000     1.25520  0.0
     11      2     20     29   5     0.00000     0.00000     1.25520  0.0
      2      3      5      6   5    13.65239    24.43456     0.00000  0.0
      4      3      5      6   5     0.00000    25.10400     0.00000  0.0
      3      5      6      7   5    -2.16731    -3.93296     0.98324  0.0
      3      5      6     12   5     0.00000     0.00000     0.67362  0.0
      3      5      6     13   5     0.00000     0.00000     0.67362  0.0
      5      6      7      8   5     5.25092    -2.58990     2.28446  0.0
      5      6      7     14   5     0.00000     0.00000     1.95811  0.0
      5      6      7     15   5     0.00000     0.00000     1.95811  0.0
     12      6      7      8   5     0.00000     0.00000     1.25520  0.0
     12      6      7     14   5     0.00000     0.00000     1.25520  0.0
     12      6      7     15   5     0.00000     0.00000     1.25520  0.0
     13      6      7      8   5     0.00000     0.00000     1.25520  0.0
     13      6      7     14   5     0.00000     0.00000     1.25520  0.0
     13      6      7     15   5     0.00000     0.00000     1.25520  0.0
      6      7      8     16   5     0.00000     0.00000     1.25520  0.0
      6      7      8     17   5     0.00000     0.00000     1.25520  0.0
      6      7      8     18   5     0.00000     0.00000     1.25520  0.0
     14      7      8     16   5     0.00000     0.00000     1.25520  0.0
     14      7      8     17   5     0.00000     0.00000     1.25520  0.0
     14      7      8     18   5     0.00000     0.00000     1.25520  0.0
     15      7      8     16   5     0.00000     0.00000     1.25520  0.0
     15      7      8     17   5     0.00000     0.00000     1.25520  0.0
     15      7      8     18   5     0.00000     0.00000     1.25520  0.0
      2     20     21     22   5    -8.00818    -1.52298     2.46438  0.0
      2     20     21     30   5     0.00000     0.00000     1.25520  0.0
      2     20     21     38   5     4.74884    -0.63178     1.67360  0.0
     28     20     21     22   5     0.00000     0.00000    -0.94140  0.0
     28     20     21     30   5     0.00000     0.00000     1.25520  0.0
     28     20     21     38   5     0.00000     0.00000     1.25520  0.0
     29     20     21     22   5     0.00000     0.00000    -0.94140  0.0
     29     20     21     30   5     0.00000     0.00000     1.25520  0.0
     29     20     21     38   5     0.00000     0.00000     1.25520  0.0
     20     21     22     23   5     0.00000     2.52295     0.00000  0.0
     20     21     22     24   5     0.00000     0.00000     3.07524  0.0
     30     21     22     23   5     0.00000     0.00000     0.00000  0.0
     30     21     22     24   5     0.00000     0.00000     0.00000  0.0
     38     21     22     23   5     0.00000     2.52295     0.00000  0.0
     38     21     22     24   5     0.00000     0.00000     3.07524  0.0
     20     21     38     39   5     4.74884    -0.63178     1.67360  0.0
     20     21     38     46   5     0.00000     0.00000     1.25520  0.0
     20     21     38     47   5     0.00000     0.00000     1.25520  0.0
     22     21     38     39   5    -8.00818    -1.52298     2.46438  0.0
     22     21     38     46   5     0.00000     0.00000    -0.94140  0.0
     22     21     38     47   5     0.00000     0.00000    -0.94140  0.0
     30     21     38     39   5     0.00000     0.00000     1.25520  0.0
     30     21     38     46   5     0.00000     0.00000     1.25520  0.0
     30     21     38     47   5     0.00000     0.00000     1.25520  0.0
     21     22     24     25   5    13.65239    24.43456     0.00000  0.0
     23     22     24     25   5     0.00000    25.10400     0.00000  0.0
     22     24     25     26   5    -2.16731    -3.93296     0.98324  0.0
     22     24     25     31   5     0.00000     0.00000     0.67362  0.0
     22     24     25     32   5     0.00000     0.00000     0.67362  0.0
     24     25     26     27   5     5.25092    -2.58990     2.28446  0.0
     24     25     26     33   5     0.00000     0.00000     1.95811  0.0
     24     25     26     34   5     0.00000     0.00000     1.95811  0.0
     31     25     26     27   5     0.00000     0.00000     1.25520  0.0
     31     25     26     33   5     0.00000     0.00000     1.25520  0.0
     31     25     26     34   5     0.00000     0.00000     1.25520  0.0
     32     25     26     27   5     0.00000     0.00000     1.25520  0.0
     32     25     26     33   5     0.00000     0.00000     1.25520  0.0
     32     25     26     34   5     0.00000     0.00000     1.25520  0.0
     25     26     27     35   5     0.00000     0.00000     1.25520  0.0
     25     26     27     36   5     0.00000     0.00000     1.25520  0.0
     25     26     27     37   5     0.00000     0.00000     1.25520  0.0
     33     26     27     35   5     0.00000     0.00000     1.25520  0.0
     33     26     27     36   5     0.00000     0.00000     1.25520  0.0
     33     26     27     37   5     0.00000     0.00000     1.25520  0.0
     34     26     27     35   5     0.00000     0.00000     1.25520  0.0
     34     26     27     36   5     0.00000     0.00000     1.25520  0.0
     34     26     27     37   5     0.00000     0.00000     1.25520  0.0
     21     38     39     40   5    -8.00818    -1.52298     2.46438  0.0
     21     38     39     48   5     0.00000     0.00000     1.25520  0.0
     21     38     39     56   5     4.74884    -0.63178     1.67360  0.0
     46     38     39     40   5     0.00000     0.00000    -0.94140  0.0
     46     38     39     48   5     0.00000     0.00000     1.25520  0.0
     46     38     39     56   5     0.00000     0.00000     1.25520  0.0
     47     38     39     40   5     0.00000     0.00000    -0.94140  0.0
     47     38     39     48   5     0.00000     0.00000     1.25520  0.0
     47     38     39     56   5     0.00000     0.00000     1.25520  0.0
     38     39     40     41   5     0.00000     2.52295     0.00000  0.0
     38     39     40     42   5     0.00000     0.00000     3.07524  0.0
     48     39     40     41   5     0.00000     0.00000     0.00000  0.0
     48     39     40     42   5     0.00000     0.00000     0.00000  0.0
     56     39     40     41   5     0.00000     2.52295     0.00000  0.0
     56     39     40     42   5     0.00000     0.00000     3.07524  0.0
     38     39     56     57   5     4.74884    -0.63178     1.67360  0.0
     38     39     56     64   5     0.00000     0.00000     1.25520  0.0
     38     39     56     65   5     0.00000     0.00000     1.25520  0.0
     40     39     56     57   5    -8.00818    -1.52298     2.46438  0.0
     40     39     56     64   5     0.00000     0.00000    -0.94140  0.0
     40     39     56     65   5     0.00000     0.00000    -0.94140  0.0
     48     39     56     57   5     0.00000     0.00000     1.25520  0.0
     48     39     56     64   5     0.00000     0.00000     1.25520  0.0
     48     39     56     65   5     0.00000     0.00000     1.25520  0.0
     39     40     42     43   5    13.65239    24.43456     0.00000  0.0
     41     40     42     43   5     0.00000    25.10400     0.00000  0.0
     40     42     43     44   5    -2.16731    -3.93296     0.98324  0.0
     40     42     43     49   5     0.00000     0.00000     0.67362  0.0
     40     42     43     50   5     0.00000     0.00000     0.67362  0.0
     42     43     44     45   5     5.25092    -2.58990     2.28446  0.0
     42     43     44     51   5     0.00000     0.00000     1.95811  0.0
     42     43     44     52   5     0.00000     0.00000     1.95811  0.0
     49     43     44     45   5     0.00000     0.00000     1.25520  0.0
     49     43     44     51   5     0.00000     0.00000     1.25520  0.0
     49     43     44     52   5     0.00000     0.00000     1.25520  0.0
     50     43     44     45   5     0.00000     0.00000     1.25520  0.0
     50     43     44     51   5     0.00000     0.00000     1.25520  0.0
     50     43     44     52   5     0.00000     0.00000     1.25520  0.0
     43     44     45     53   5     0.00000     0.00000     1.25520  0.0
     43     44     45     54   5     0.00000     0.00000     1.25520  0.0
     43     44     45     55   5     0.00000     0.00000     1.25520  0.0
     51     44     45     53   5     0.00000     0.00000     1.25520  0.0
     51     44     45     54   5     0.00000     0.00000     1.25520  0.0
     51     44     45     55   5     0.00000     0.00000     1.25520  0.0
     52     44     45     53   5     0.00000     0.00000     1.25520  0.0
     52     44     45     54   5     0.00000     0.00000     1.25520  0.0
     52     44     45     55   5     0.00000     0.00000     1.25520  0.0
     39     56     57     58   5    -8.00818    -1.52298     2.46438  0.0
     39     56     57     66   5     0.00000     0.00000     1.25520  0.0
     39     56     57     74   5     4.74884    -0.63178     1.67360  0.0
     64     56     57     58   5     0.00000     0.00000    -0.94140  0.0
     64     56     57     66   5     0.00000     0.00000     1.25520  0.0
     64     56     57     74   5     0.00000     0.00000     1.25520  0.0
     65     56     57     58   5     0.00000     0.00000    -0.94140  0.0
     65     56     57     66   5     0.00000     0.00000     1.25520  0.0
     65     56     57     74   5     0.00000     0.00000     1.25520  0.0
     56     57     58     59   5     0.00000     2.52295     0.00000  0.0
     56     57     58     60   5     0.00000     0.00000     3.07524  0.0
     66     57     58     59   5     0.00000     0.00000     0.00000  0.0
     66     57     58     60   5     0.00000     0.00000     0.00000  0.0
     74     57     58     59   5     0.00000     2.52295     0.00000  0.0
     74     57     58     60   5     0.00000     0.00000     3.07524  0.0
     56     57     74     75   5     4.74884    -0.63178     1.67360  0.0
     56     57     74     82   5     0.00000     0.00000     1.25520  0.0
     56     57     74     83   5     0.00000     0.00000     1.25520  0.0
     58     57     74     75   5    -8.00818    -1.52298     2.46438  0.0
     58     57     74     82   5     0.00000     0.00000    -0.94140  0.0
     58     57     74     83   5     0.00000     0.00000    -0.94140  0.0
     66     57     74     75   5     0.00000     0.00000     1.25520  0.0
     66     57     74     82   5     0.00000     0.00000     1.25520  0.0
     66     57     74     83   5     0.00000     0.00000     1.25520  0.0
     57     58     60     61   5    13.65239    24.43456     0.00000  0.0
     59     58     60     61   5     0.00000    25.10400     0.00000  0.0
     58     60     61     62   5    -2.16731    -3.93296     0.98324  0.0
     58     60     61     67   5     0.00000     0.00000     0.67362  0.0
     58     60     61     68   5     0.00000     0.00000     0.67362  0.0
     60     61     62     63   5     5.25092    -2.58990     2.28446  0.0
     60     61     62     69   5     0.00000     0.00000     1.95811  0.0
     60     61     62     70   5     0.00000     0.00000     1.95811  0.0
     67     61     62     63   5     0.00000     0.00000     1.25520  0.0
     67     61     62     69   5     0.00000     0.00000     1.25520  0.0
     67     61     62     70   5     0.00000     0.00000     1.25520  0.0
     68     61     62     63   5     0.00000     0.00000     1.25520  0.0
     68     61     62     69   5     0.00000     0.00000     1.25520  0.0
     68     61     62     70   5     0.00000     0.00000     1.25520  0.0
     61     62     63     71   5     0.00000     0.00000     1.25520  0.0
     61     62     63     72   5     0.00000     0.00000     1.25520  0.0
     61     62     63     73   5     0.00000     0.00000     1.25520  0.0
     69     62     63     71   5     0.00000     0.00000     1.25520  0.0
     69     62     63     72   5     0.00000     0.00000     1.25520  0.0
     69     62     63     73   5     0.00000     0.00000     1.25520  0.0
     70     62     63     71   5     0.00000     0.00000     1.25520  0.0
     70     62     63     72   5     0.00000     0.00000     1.25520  0.0
     70     62     63     73   5     0.00000     0.00000     1.25520  0.0
     57     74     75     76   5    -8.00818    -1.52298     2.46438  0.0
     57     74     75     84   5     0.00000     0.00000     1.25520  0.0
     57     74     75     92   5     4.74884    -0.63178     1.67360  0.0
     82     74     75     76   5     0.00000     0.00000    -0.94140  0.0
     82     74     75     84   5     0.00000     0.00000     1.25520  0.0
     82     74     75     92   5     0.00000     0.00000     1.25520  0.0
     83     74     75     76   5     0.00000     0.00000    -0.94140  0.0
     83     74     75     84   5     0.00000     0.00000     1.25520  0.0
     83     74     75     92   5     0.00000     0.00000     1.25520  0.0
     74     75     76     77   5     0.00000     2.52295     0.00000  0.0
     74     75     76     78   5     0.00000     0.00000     3.07524  0.0
     84     75     76     77   5     0.00000     0.00000     0.00000  0.0
     84     75     76     78   5     0.00000     0.00000     0.00000  0.0
     92     75     76     77   5     0.00000     2.52295     0.00000  0.0
     92     75     76     78   5     0.00000     0.00000     3.07524  0.0
     74     75     92     93   5     4.74884    -0.63178     1.67360  0.0
     74     75     92    100   5     0.00000     0.00000     1.25520  0.0
     74     75     92    101   5     0.00000     0.00000     1.25520  0.0
     76     75     92     93   5    -8.00818    -1.52298     2.46438  0.0
     76     75     92    100   5     0.00000     0.00000    -0.94140  0.0
     76     75     92    101   5     0.00000     0.00000    -0.94140  0.0
     84     75     92     93   5     0.00000     0.00000     1.25520  0.0
     84     75     92    100   5     0.00000     0.00000     1.25520  0.0
     84     75     92    101   5     0.00000     0.00000     1.25520  0.0
     75     76     78     79   5    13.65239    24.43456     0.00000  0.0
     77     76     78     79   5     0.00000    25.10400     0.00000  0.0
     76     78     79     80   5    -2.16731    -3.93296     0.98324  0.0
     76     78     79     85   5     0.00000     0.00000     0.67362  0.0
     76     78     79     86   5     0.00000     0.00000     0.67362  0.0
     78     79     80     81   5     5.25092    -2.58990     2.28446  0.0
     78     79     80     87   5     0.00000     0.00000     1.95811  0.0
     78     79     80     88   5     0.00000     0.00000     1.95811  0.0
     85     79     80     81   5     0.00000     0.00000     1.25520  0.0
     85     79     80     87   5     0.00000     0.00000     1.25520  0.0
     85     79     80     88   5     0.00000     0.00000     1.25520  0.0
     86     79     80     81   5     0.00000     0.00000     1.25520  0.0
     86     79     80     87   5     0.00000     0.00000     1.25520  0.0
     86     79     80     88   5     0.00000     0.00000     1.25520  0.0
     79     80     81     89   5     0.00000     0.00000     1.25520  0.0
     79     80     81     90   5     0.00000     0.00000     1.25520  0.0
     79     80     81     91   5     0.00000     0.00000     1.25520  0.0
     87     80     81     89   5     0.00000     0.00000     1.25520  0.0
     87     80     81     90   5     0.00000     0.00000     1.25520  0.0
     87     80     81     91   5     0.00000     0.00000     1.25520  0.0
     88     80     81     89   5     0.00000     0.00000     1.25520  0.0
     88     80     81     90   5     0.00000     0.00000     1.25520  0.0
     88     80     81     91   5     0.00000     0.00000     1.25520  0.0
     75     92     93     94   5    -8.00818    -1.52298     2.46438  0.0
     75     92     93    102   5     0.00000     0.00000     1.25520  0.0
     75     92     93    110   5     4.74884    -0.63178     1.67360  0.0
    100     92     93     94   5     0.00000     0.00000    -0.94140  0.0
    100     92     93    102   5     0.00000     0.00000     1.25520  0.0
    100     92     93    110   5     0.00000     0.00000     1.25520  0.0
    101     92     93     94   5     0.00000     0.00000    -0.94140  0.0
    101     92     93    102   5     0.00000     0.00000     1.25520  0.0
    101     92     93    110   5     0.00000     0.00000     1.25520  0.0
     92     93     94     95   5     0.00000     2.52295     0.00000  0.0
     92     93     94     96   5     0.00000     0.00000     3.07524  0.0
    102     93     94     95   5     0.00000     0.00000     0.00000  0.0
    102     93     94     96   5     0.00000     0.00000     0.00000  0.0
    110     93     94     95   5     0.00000     2.52295     0.00000  0.0
    110     93     94     96   5     0.00000     0.00000     3.07524  0.0
     92     93    110    111   5     4.74884    -0.63178     1.67360  0.0
     92     93    110    118   5     0.00000     0.00000     1.25520  0.0
     92     93    110    119   5     0.00000     0.00000     1.25520  0.0
     94     93    110    111   5    -8.00818    -1.52298     2.46438  0.0
     94     93    110    118   5     0.00000     0.00000    -0.94140  0.0
     94     93    110    119   5     0.00000     0.00000    -0.94140  0.0
    102     93    110    111   5     0.00000     0.00000     1.25520  0.0
    102     93    110    118   5     0.00000     0.00000     1.25520  0.0
    102     93    110    119   5     0.00000     0.00000     1.25520  0.0
     93     94     96     97   5    13.65239    24.43456     0.00000  0.0
     95     94     96     97   5     0.00000    25.10400     0.00000  0.0
     94     96     97     98   5    -2.16731    -3.93296     0.98324  0.0
     94     96     97    103   5     0.00000     0.00000     0.67362  0.0
     94     96     97    104   5     0.00000     0.00000     0.67362  0.0
     96     97     98     99   5     5.25092    -2.58990     2.28446  0.0
     96     97     98    105   5     0.00000     0.00000     1.95811  0.0
     96     97     98    106   5     0.00000     0.00000     1.95811  0.0
    103     97     98     99   5     0.00000     0.00000     1.25520  0.0
    103     97     98    105   5     0.00000     0.00000     1.25520  0.0
    103     97     98    106   5     0.00000     0.00000     1.25520  0.0
    104     97     98     99   5     0.00000     0.00000     1.25520  0.0
    104     97     98    105   5     0.00000     0.00000     1.25520  0.0
    104     97     98    106   5     0.00000     0.00000     1.25520  0.0
     97     98     99    107   5     0.00000     0.00000     1.25520  0.0
     97     98     99    108   5     0.00000     0.00000     1.25520  0.0
     97     98     99    109   5     0.00000     0.00000     1.25520  0.0
    105     98     99    107   5     0.00000     0.00000     1.25520  0.0
    105     98     99    108   5     0.00000     0.00000     1.25520  0.0
    105     98     99    109   5     0.00000     0.00000     1.25520  0.0
    106     98     99    107   5     0.00000     0.00000     1.25520  0.0
    106     98     99    108   5     0.00000     0.00000     1.25520  0.0
    106     98     99    109   5     0.00000     0.00000     1.25520  0.0
     93    110    111    112   5    -8.00818    -1.52298     2.46438  0.0
     93    110    111    120   5     0.00000     0.00000     1.25520  0.0
     93    110    111    128   5     4.74884    -0.63178     1.67360  0.0
    118    110    111    112   5     0.00000     0.00000    -0.94140  0.0
    118    110    111    120   5     0.00000     0.00000     1.25520  0.0
    118    110    111    128   5     0.00000     0.00000     1.25520  0.0
    119    110    111    112   5     0.00000     0.00000    -0.94140  0.0
    119    110    111    120   5     0.00000     0.00000     1.25520  0.0
    119    110    111    128   5     0.00000     0.00000     1.25520  0.0
    110    111    112    113   5     0.00000     2.52295     0.00000  0.0
    110    111    112    114   5     0.00000     0.00000     3.07524  0.0
    120    111    112    113   5     0.00000     0.00000     0.00000  0.0
    120    111    112    114   5     0.00000     0.00000     0.00000  0.0
    128    111    112    113   5     0.00000     2.52295     0.00000  0.0
    128    111    112    114   5     0.00000     0.00000     3.07524  0.0
    110    111    128    129   5     4.74884    -0.63178     1.67360  0.0
    110    111    128    136   5     0.00000     0.00000     1.25520  0.0
    110    111    128    137   5     0.00000     0.00000     1.25520  0.0
    112    111    128    129   5    -8.00818    -1.52298     2.46438  0.0
    112    111    128    136   5     0.00000     0.00000    -0.94140  0.0
    112    111    128    137   5     0.00000     0.00000    -0.94140  0.0
    120    111    128    129   5     0.00000     0.00000     1.25520  0.0
    120    111    128    136   5     0.00000     0.00000     1.25520  0.0
    120    111    128    137   5     0.00000     0.00000     1.25520  0.0
    111    112    114    115   5    13.65239    24.43456     0.00000  0.0
    113    112    114    115   5     0.00000    25.10400     0.00000  0.0
    112    114    115    116   5    -2.16731    -3.93296     0.98324  0.0
    112    114    115    121   5     0.00000     0.00000     0.67362  0.0
    112    114    115    122   5     0.00000     0.00000     0.67362  0.0
    114    115    116    117   5     5.25092    -2.58990     2.28446  0.0
    114    115    116    123   5     0.00000     0.00000     1.95811  0.0
    114    115    116    124   5     0.00000     0.00000     1.95811  0.0
    121    115    116    117   5     0.00000     0.00000     1.25520  0.0
    121    115    116    123   5     0.00000     0.00000     1.25520  0.0
    121    115    116    124   5     0.00000     0.00000     1.25520  0.0
    122    115    116    117   5     0.00000     0.00000     1.25520  0.0
    122    115    116    123   5     0.00000     0.00000     1.25520  0.0
    122    115    116    124   5     0.00000     0.00000     1.25520  0.0
    115    116    117    125   5     0.00000     0.00000     1.25520  0.0
    115    116    117    126   5     0.00000     0.00000     1.25520  0.0
    115    116    117    127   5     0.00000     0.00000     1.25520  0.0
    123    116    117    125   5     0.00000     0.00000     1.25520  0.0
    123    116    117    126   5     0.00000     0.00000     1.25520  0.0
    123    116    117    127   5     0.00000     0.00000     1.25520  0.0
    124    116    117    125   5     0.00000     0.00000     1.25520  0.0
    124    116    117    126   5     0.00000     0.00000     1.25520  0.0
    124    116    117    127   5     0.00000     0.00000     1.25520  0.0
    111    128    129    130   5    -8.00818    -1.52298     2.46438  0.0
    111    128    129    138   5     0.00000     0.00000     1.25520  0.0
    111    128    129    146   5     4.74884    -0.63178     1.67360  0.0
    136    128    129    130   5     0.00000     0.00000    -0.94140  0.0
    136    128    129    138   5     0.00000     0.00000     1.25520  0.0
    136    128    129    146   5     0.00000     0.00000     1.25520  0.0
    137    128    129    130   5     0.00000     0.00000    -0.94140  0.0
    137    128    129    138   5     0.00000     0.00000     1.25520  0.0
    137    128    129    146   5     0.00000     0.00000     1.25520  0.0
    128    129    130    131   5     0.00000     2.52295     0.00000  0.0
    128    129    130    132   5     0.00000     0.00000     3.07524  0.0
    138    129    130    131   5     0.00000     0.00000     0.00000  0.0
    138    129    130    132   5     0.00000     0.00000     0.00000  0.0
    146    129    130    131   5     0.00000     2.52295     0.00000  0.0
    146    129    130    132   5     0.00000     0.00000     3.07524  0.0
    128    129    146    147   5     4.74884    -0.63178     1.67360  0.0
    128    129    146    154   5     0.00000     0.00000     1.25520  0.0
    128    129    146    155   5     0.00000     0.00000     1.25520  0.0
    130    129    146    147   5    -8.00818    -1.52298     2.46438  0.0
    130    129    146    154   5     0.00000     0.00000    -0.94140  0.0
    130    129    146    155   5     0.00000     0.00000    -0.94140  0.0
    138    129    146    147   5     0.00000     0.00000     1.25520  0.0
    138    129    146    154   5     0.00000     0.00000     1.25520  0.0
    138    129    146    155   5     0.00000     0.00000     1.25520  0.0
    129    130    132    133   5    13.65239    24.43456     0.00000  0.0
    131    130    132    133   5     0.00000    25.10400     0.00000  0.0
    130    132    133    134   5    -2.16731    -3.93296     0.98324  0.0
    130    132    133    139   5     0.00000     0.00000     0.67362  0.0
    130    132    133    140   5     0.00000     0.00000     0.67362  0.0
    132    133    134    135   5     5.25092    -2.58990     2.28446  0.0
    132    133    134    141   5     0.00000     0.00000     1.95811  0.0
    132    133    134    142   5     0.00000     0.00000     1.95811  0.0
    139    133    134    135   5     0.00000     0.00000     1.25520  0.0
    139    133    134    141   5     0.00000     0.00000     1.25520  0.0
    139    133    134    142   5     0.00000     0.00000     1.25520  0.0
    140    133    134    135   5     0.00000     0.00000     1.25520  0.0
    140    133    134    141   5     0.00000     0.00000     1.25520  0.0
    140    133    134    142   5     0.00000     0.00000     1.25520  0.0
    133    134    135    143   5     0.00000     0.00000     1.25520  0.0
    133    134    135    144   5     0.00000     0.00000     1.25520  0.0
    133    134    135    145   5     0.00000     0.00000     1.25520  0.0
    141    134    135    143   5     0.00000     0.00000     1.25520  0.0
    141    134    135    144   5     0.00000     0.00000     1.25520  0.0
    141    134    135    145   5     0.00000     0.00000     1.25520  0.0
    142    134    135    143   5     0.00000     0.00000     1.25520  0.0
    142    134    135    144   5     0.00000     0.00000     1.25520  0.0
    142    134    135    145   5     0.00000     0.00000     1.25520  0.0
    129    146    147    148   5    -8.00818    -1.52298     2.46438  0.0
    129    146    147    156   5     0.00000     0.00000     1.25520  0.0
    129    146    147    164   5     4.74884    -0.63178     1.67360  0.0
    154    146    147    148   5     0.00000     0.00000    -0.94140  0.0
    154    146    147    156   5     0.00000     0.00000     1.25520  0.0
    154    146    147    164   5     0.00000     0.00000     1.25520  0.0
    155    146    147    148   5     0.00000     0.00000    -0.94140  0.0
    155    146    147    156   5     0.00000     0.00000     1.25520  0.0
    155    146    147    164   5     0.00000     0.00000     1.25520  0.0
    146    147    148    149   5     0.00000     2.52295     0.00000  0.0
    146    147    148    150   5     0.00000     0.00000     3.07524  0.0
    156    147    148    149   5     0.00000     0.00000     0.00000  0.0
    156    147    148    150   5     0.00000     0.00000     0.00000  0.0
    164    147    148    149   5     0.00000     2.52295     0.00000  0.0
    164    147    148    150   5     0.00000     0.00000     3.07524  0.0
    146    147    164    165   5     4.74884    -0.63178     1.67360  0.0
    146    147    164    172   5     0.00000     0.00000     1.25520  0.0
    146    147    164    173   5     0.00000     0.00000     1.25520  0.0
    148    147    164    165   5    -8.00818    -1.52298     2.46438  0.0
    148    147    164    172   5     0.00000     0.00000    -0.94140  0.0
    148    147    164    173   5     0.00000     0.00000    -0.94140  0.0
    156    147    164    165   5     0.00000     0.00000     1.25520  0.0
    156    147    164    172   5     0.00000     0.00000     1.25520  0.0
    156    147    164    173   5     0.00000     0.00000     1.25520  0.0
    147    148    150    151   5    13.65239    24.43456     0.00000  0.0
    149    148    150    151   5     0.00000    25.10400     0.00000  0.0
    148    150    151    152   5    -2.16731    -3.93296     0.98324  0.0
    148    150    151    157   5     0.00000     0.00000     0.67362  0.0
    148    150    151    158   5     0.00000     0.00000     0.67362  0.0
    150    151    152    153   5     5.25092    -2.58990     2.28446  0.0
    150    151    152    159   5     0.00000     0.00000     1.95811  0.0
    150    151    152    160   5     0.00000     0.00000     1.95811  0.0
    157    151    152    153   5     0.00000     0.00000     1.25520  0.0
    157    151    152    159   5     0.00000     0.00000     1.25520  0.0
    157    151    152    160   5     0.00000     0.00000     1.25520  0.0
    158    151    152    153   5     0.00000     0.00000     1.25520  0.0
    158    151    152    159   5     0.00000     0.00000     1.25520  0.0
    158    151    152    160   5     0.00000     0.00000     1.25520  0.0
    151    152    153    161   5     0.00000     0.00000     1.25520  0.0
    151    152    153    162   5     0.00000     0.00000     1.25520  0.0
    151    152    153    163   5     0.00000     0.00000     1.25520  0.0
    159    152    153    161   5     0.00000     0.00000     1.25520  0.0
    159    152    153    162   5     0.00000     0.00000     1.25520  0.0
    159    152    153    163   5     0.00000     0.00000     1.25520  0.0
    160    152    153    161   5     0.00000     0.00000     1.25520  0.0
    160    152    153    162   5     0.00000     0.00000     1.25520  0.0
    160    152    153    163   5     0.00000     0.00000     1.25520  0.0
    147    164    165    166   5    -8.00818    -1.52298     2.46438  0.0
    147    164    165    174   5     0.00000     0.00000     1.25520  0.0
    147    164    165    182   5     4.74884    -0.63178     1.67360  0.0
    172    164    165    166   5     0.00000     0.00000    -0.94140  0.0
    172    164    165    174   5     0.00000     0.00000     1.25520  0.0
    172    164    165    182   5     0.00000     0.00000     1.25520  0.0
    173    164    165    166   5     0.00000     0.00000    -0.94140  0.0
    173    164    165    174   5     0.00000     0.00000     1.25520  0.0
    173    164    165    182   5     0.00000     0.00000     1.25520  0.0
    164    165    166    167   5     0.00000     2.52295     0.00000  0.0
    164    165    166    168   5     0.00000     0.00000     3.07524  0.0
    174    165    166    167   5     0.00000     0.00000     0.00000  0.0
    174    165    166    168   5     0.00000     0.00000     0.00000  0.0
    182    165    166    167   5     0.00000     2.52295     0.00000  0.0
    182    165    166    168   5     0.00000     0.00000     3.07524  0.0
    164    165    182    183   5     4.74884    -0.63178     1.67360  0.0
    164    165    182    190   5     0.00000     0.00000     1.25520  0.0
    164    165    182    191   5     0.00000     0.00000     1.25520  0.0
    166    165    182    183   5    -8.00818    -1.52298     2.46438  0.0
    166    165    182    190   5     0.00000     0.00000    -0.94140  0.0
    166    165    182    191   5     0.00000     0.00000    -0.94140  0.0
    174    165    182    183   5     0.00000     0.00000     1.25520  0.0
    174    165    182    190   5     0.00000     0.00000     1.25520  0.0
    174    165    182    191   5     0.00000     0.00000     1.25520  0.0
    165    166    168    169   5    13.65239    24.43456     0.00000  0.0
    167    166    168    169   5     0.00000    25.10400     0.00000  0.0
    166    168    169    170   5    -2.16731    -3.93296     0.98324  0.0
    166    168    169    175   5     0.00000     0.00000     0.67362  0.0
    166    168    169    176   5     0.00000     0.00000     0.67362  0.0
    168    169    170    171   5     5.25092    -2.58990     2.28446  0.0
    168    169    170    177   5     0.00000     0.00000     1.95811  0.0
    168    169    170    178   5     0.00000     0.00000     1.95811  0.0
    175    169    170    171   5     0.00000     0.00000     1.25520  0.0
    175    169    170    177   5     0.00000     0.00000     1.25520  0.0
    175    169    170    178   5     0.00000     0.00000     1.25520  0.0
    176    169    170    171   5     0.00000     0.00000     1.25520  0.0
    176    169    170    177   5     0.00000     0.00000     1.25520  0.0
    176    169    170    178   5     0.00000     0.00000     1.25520  0.0
    169    170    171    179   5     0.00000     0.00000     1.25520  0.0
    169    170    171    180   5     0.00000     0.00000     1.25520  0.0
    169    170    171    181   5     0.00000     0.00000     1.25520  0.0
    177    170    171    179   5     0.00000     0.00000     1.25520  0.0
    177    170    171    180   5     0.00000     0.00000     1.25520  0.0
    177    170    171    181   5     0.00000     0.00000     1.25520  0.0
    178    170    171    179   5     0.00000     0.00000     1.25520  0.0
    178    170    171    180   5     0.00000     0.00000     1.25520  0.0
    178    170    171    181   5     0.00000     0.00000     1.25520  0.0
    165    182    183    184   5    -8.00818    -1.52298     2.46438  0.0
    165    182    183    192   5     0.00000     0.00000     1.25520  0.0
    165    182    183    200   5     4.74884    -0.63178     1.67360  0.0
    190    182    183    184   5     0.00000     0.00000    -0.94140  0.0
    190    182    183    192   5     0.00000     0.00000     1.25520  0.0
    190    182    183    200   5     0.00000     0.00000     1.25520  0.0
    191    182    183    184   5     0.00000     0.00000    -0.94140  0.0
    191    182    183    192   5     0.00000     0.00000     1.25520  0.0
    191    182    183    200   5     0.00000     0.00000     1.25520  0.0
    182    183    184    185   5     0.00000     2.52295     0.00000  0.0
    182    183    184    186   5     0.00000     0.00000     3.07524  0.0
    192    183    184    185   5     0.00000     0.00000     0.00000  0.0
    192    183    184    186   5     0.00000     0.00000     0.00000  0.0
    200    183    184    185   5     0.00000     2.52295     0.00000  0.0
    200    183    184    186   5     0.00000     0.00000     3.07524  0.0
    182    183    200    201   5     4.74884    -0.63178     1.67360  0.0
    182    183    200    208   5     0.00000     0.00000     1.25520  0.0
    182    183    200    209   5     0.00000     0.00000     1.25520  0.0
    184    183    200    201   5    -8.00818    -1.52298     2.46438  0.0
    184    183    200    208   5     0.00000     0.00000    -0.94140  0.0
    184    183    200    209   5     0.00000     0.00000    -0.94140  0.0
    192    183    200    201   5     0.00000     0.00000     1.25520  0.0
    192    183    200    208   5     0.00000     0.00000     1.25520  0.0
    192    183    200    209   5     0.00000     0.00000     1.25520  0.0
    183    184    186    187   5    13.65239    24.43456     0.00000  0.0
    185    184    186    187   5     0.00000    25.10400     0.00000  0.0
    184    186    187    188   5    -2.16731    -3.93296     0.98324  0.0
    184    186    187    193   5     0.00000     0.00000     0.67362  0.0
    184    186    187    194   5     0.00000     0.00000     0.67362  0.0
    186    187    188    189   5     5.25092    -2.58990     2.28446  0.0
    186    187    188    195   5     0.00000     0.00000     1.95811  0.0
    186    187    188    196   5     0.00000     0.00000     1.95811  0.0
    193    187    188    189   5     0.00000     0.00000     1.25520  0.0
    193    187    188    195   5     0.00000     0.00000     1.25520  0.0
    193    187    188    196   5     0.00000     0.00000     1.25520  0.0
    194    187    188    189   5     0.00000     0.00000     1.25520  0.0
    194    187    188    195   5     0.00000     0.00000     1.25520  0.0
    194    187    188    196   5     0.00000     0.00000     1.25520  0.0
    187    188    189    197   5     0.00000     0.00000     1.25520  0.0
    187    188    189    198   5     0.00000     0.00000     1.25520  0.0
    187    188    189    199   5     0.00000     0.00000     1.25520  0.0
    195    188    189    197   5     0.00000     0.00000     1.25520  0.0
    195    188    189    198   5     0.00000     0.00000     1.25520  0.0
    195    188    189    199   5     0.00000     0.00000     1.25520  0.0
    196    188    189    197   5     0.00000     0.00000     1.25520  0.0
    196    188    189    198   5     0.00000     0.00000     1.25520  0.0
    196    188    189    199   5     0.00000     0.00000     1.25520  0.0
    183    200    201    202   5    -8.00818    -1.52298     2.46438  0.0
    183    200    201    210   5     0.00000     0.00000     1.25520  0.0
    183    200    201    218   5     4.74884    -0.63178     1.67360  0.0
    208    200    201    202   5     0.00000     0.00000    -0.94140  0.0
    208    200    201    210   5     0.00000     0.00000     1.25520  0.0
    208    200    201    218   5     0.00000     0.00000     1.25520  0.0
    209    200    201    202   5     0.00000     0.00000    -0.94140  0.0
    209    200    201    210   5     0.00000     0.00000     1.25520  0.0
    209    200    201    218   5     0.00000     0.00000     1.25520  0.0
    200    201    202    203   5     0.00000     2.52295     0.00000  0.0
    200    201    202    204   5     0.00000     0.00000     3.07524  0.0
    210    201    202    203   5     0.00000     0.00000     0.00000  0.0
    210    201    202    204   5     0.00000     0.00000     0.00000  0.0
    218    201    202    203   5     0.00000     2.52295     0.00000  0.0
    218    201    202    204   5     0.00000     0.00000     3.07524  0.0
    200    201    218    219   5     4.74884    -0.63178     1.67360  0.0
    200    201    218    226   5     0.00000     0.00000     1.25520  0.0
    200    201    218    227   5     0.00000     0.00000     1.25520  0.0
    202    201    218    219   5    -8.00818    -1.52298     2.46438  0.0
    202    201    218    226   5     0.00000     0.00000    -0.94140  0.0
    202    201    218    227   5     0.00000     0.00000    -0.94140  0.0
    210    201    218    219   5     0.00000     0.00000     1.25520  0.0
    210    201    218    226   5     0.00000     0.00000     1.25520  0.0
    210    201    218    227   5     0.00000     0.00000     1.25520  0.0
    201    202    204    205   5    13.65239    24.43456     0.00000  0.0
    203    202    204    205   5     0.00000    25.10400     0.00000  0.0
    202    204    205    206   5    -2.16731    -3.93296     0.98324  0.0
    202    204    205    211   5     0.00000     0.00000     0.67362  0.0
    202    204    205    212   5     0.00000     0.00000     0.67362  0.0
    204    205    206    207   5     5.25092    -2.58990     2.28446  0.0
    204    205    206    213   5     0.00000     0.00000     1.95811  0.0
    204    205    206    214   5     0.00000     0.00000     1.95811  0.0
    211    205    206    207   5     0.00000     0.00000     1.25520  0.0
    211    205    206    213   5     0.00000     0.00000     1.25520  0.0
    211    205    206    214   5     0.00000     0.00000     1.25520  0.0
    212    205    206    207   5     0.00000     0.00000     1.25520  0.0
    212    205    206    213   5     0.00000     0.00000     1.25520  0.0
    212    205    206    214   5     0.00000     0.00000     1.25520  0.0
    205    206    207    215   5     0.00000     0.00000     1.25520  0.0
    205    206    207    216   5     0.00000     0.00000     1.25520  0.0
    205    206    207    217   5     0.00000     0.00000     1.25520  0.0
    213    206    207    215   5     0.00000     0.00000     1.25520  0.0
    213    206    207    216   5     0.00000     0.00000     1.25520  0.0
    213    206    207    217   5     0.00000     0.00000     1.25520  0.0
    214    206    207    215   5     0.00000     0.00000     1.25520  0.0
    214    206    207    216   5     0.00000     0.00000     1.25520  0.0
    214    206    207    217   5     0.00000     0.00000     1.25520  0.0
    201    218    219    220   5    -8.00818    -1.52298     2.46438  0.0
    201    218    219    228   5     0.00000     0.00000     1.25520  0.0
    201    218    219    236   5     4.74884    -0.63178     1.67360  0.0
    226    218    219    220   5     0.00000     0.00000    -0.94140  0.0
    226    218    219    228   5     0.00000     0.00000     1.25520  0.0
    226    218    219    236   5     0.00000     0.00000     1.25520  0.0
    227    218    219    220   5     0.00000     0.00000    -0.94140  0.0
    227    218    219    228   5     0.00000     0.00000     1.25520  0.0
    227    218    219    236   5     0.00000     0.00000     1.25520  0.0
    218    219    220    221   5     0.00000     2.52295     0.00000  0.0
    218    219    220    222   5     0.00000     0.00000     3.07524  0.0
    228    219    220    221   5     0.00000     0.00000     0.00000  0.0
    228    219    220    222   5     0.00000     0.00000     0.00000  0.0
    236    219    220    221   5     0.00000     2.52295     0.00000  0.0
    236    219    220    222   5     0.00000     0.00000     3.07524  0.0
    218    219    236    237   5     4.74884    -0.63178     1.67360  0.0
    218    219    236    244   5     0.00000     0.00000     1.25520  0.0
    218    219    236    245   5     0.00000     0.00000     1.25520  0.0
    220    219    236    237   5    -8.00818    -1.52298     2.46438  0.0
    220    219    236    244   5     0.00000     0.00000    -0.94140  0.0
    220    219    236    245   5     0.00000     0.00000    -0.94140  0.0
    228    219    236    237   5     0.00000     0.00000     1.25520  0.0
    228    219    236    244   5     0.00000     0.00000     1.25520  0.0
    228    219    236    245   5     0.00000     0.00000     1.25520  0.0
    219    220    222    223   5    13.65239    24.43456     0.00000  0.0
    221    220    222    223   5     0.00000    25.10400     0.00000  0.0
    220    222    223    224   5    -2.16731    -3.93296     0.98324  0.0
    220    222    223    229   5     0.00000     0.00000     0.67362  0.0
    220    222    223    230   5     0.00000     0.00000     0.67362  0.0
    222    223    224    225   5     5.25092    -2.58990     2.28446  0.0
    222    223    224    231   5     0.00000     0.00000     1.95811  0.0
    222    223    224    232   5     0.00000     0.00000     1.95811  0.0
    229    223    224    225   5     0.00000     0.00000     1.25520  0.0
    229    223    224    231   5     0.00000     0.00000     1.25520  0.0
    229    223    224    232   5     0.00000     0.00000     1.25520  0.0
    230    223    224    225   5     0.00000     0.00000     1.25520  0.0
    230    223    224    231   5     0.00000     0.00000     1.25520  0.0
    230    223    224    232   5     0.00000     0.00000     1.25520  0.0
    223    224    225    233   5     0.00000     0.00000     1.25520  0.0
    223    224    225    234   5     0.00000     0.00000     1.25520  0.0
    223    224    225    235   5     0.00000     0.00000     1.25520  0.0
    231    224    225    233   5     0.00000     0.00000     1.25520  0.0
    231    224    225    234   5     0.00000     0.00000     1.25520  0.0
    231    224    225    235   5     0.00000     0.00000     1.25520  0.0
    232    224    225    233   5     0.00000     0.00000     1.25520  0.0
    232    224    225    234   5     0.00000     0.00000     1.25520  0.0
    232    224    225    235   5     0.00000     0.00000     1.25520  0.0
    219    236    237    238   5    -8.00818    -1.52298     2.46438  0.0
    219    236    237    246   5     0.00000     0.00000     1.25520  0.0
    219    236    237    254   5     4.74884    -0.63178     1.67360  0.0
    244    236    237    238   5     0.00000     0.00000    -0.94140  0.0
    244    236    237    246   5     0.00000     0.00000     1.25520  0.0
    244    236    237    254   5     0.00000     0.00000     1.25520  0.0
    245    236    237    238   5     0.00000     0.00000    -0.94140  0.0
    245    236    237    246   5     0.00000     0.00000     1.25520  0.0
    245    236    237    254   5     0.00000     0.00000     1.25520  0.0
    236    237    238    239   5     0.00000     2.52295     0.00000  0.0
    236    237    238    240   5     0.00000     0.00000     3.07524  0.0
    246    237    238    239   5     0.00000     0.00000     0.00000  0.0
    246    237    238    240   5     0.00000     0.00000     0.00000  0.0
    254    237    238    239   5     0.00000     2.52295     0.00000  0.0
    254    237    238    240   5     0.00000     0.00000     3.07524  0.0
    236    237    254    255   5     4.74884    -0.63178     1.67360  0.0
    236    237    254    262   5     0.00000     0.00000     1.25520  0.0
    236    237    254    263   5     0.00000     0.00000     1.25520  0.0
    238    237    254    255   5    -8.00818    -1.52298     2.46438  0.0
    238    237    254    262   5     0.00000     0.00000    -0.94140  0.0
    238    237    254    263   5     0.00000     0.00000    -0.94140  0.0
    246    237    254    255   5     0.00000     0.00000     1.25520  0.0
    246    237    254    262   5     0.00000     0.00000     1.25520  0.0
    246    237    254    263   5     0.00000     0.00000     1.25520  0.0
    237    238    240    241   5    13.65239    24.43456     0.00000  0.0
    239    238    240    241   5     0.00000    25.10400     0.00000  0.0
    238    240    241    242   5    -2.16731    -3.93296     0.98324  0.0
    238    240    241    247   5     0.00000     0.00000     0.67362  0.0
    238    240    241    248   5     0.00000     0.00000     0.67362  0.0
    240    241    242    243   5     5.25092    -2.58990     2.28446  0.0
    240    241    242    249   5     0.00000     0.00000     1.95811  0.0
    240    241    242    250   5     0.00000     0.00000     1.95811  0.0
    247    241    242    243   5     0.00000     0.00000     1.25520  0.0
    247    241    242    249   5     0.00000     0.00000     1.25520  0.0
    247    241    242    250   5     0.00000     0.00000     1.25520  0.0
    248    241    242    243   5     0.00000     0.00000     1.25520  0.0
    248    241    242    249   5     0.00000     0.00000     1.25520  0.0
    248    241    242    250   5     0.00000     0.00000     1.25520  0.0
    241    242    243    251   5     0.00000     0.00000     1.25520  0.0
    241    242    243    252   5     0.00000     0.00000     1.25520  0.0
    241    242    243    253   5     0.00000     0.00000     1.25520  0.0
    249    242    243    251   5     0.00000     0.00000     1.25520  0.0
    249    242    243    252   5     0.00000     0.00000     1.25520  0.0
    249    242    243    253   5     0.00000     0.00000     1.25520  0.0
    250    242    243    251   5     0.00000     0.00000     1.25520  0.0
    250    242    243    252   5     0.00000     0.00000     1.25520  0.0
    250    242    243    253   5     0.00000     0.00000     1.25520  0.0
    237    254    255    256   5    -8.00818    -1.52298     2.46438  0.0
    237    254    255    264   5     0.00000     0.00000     1.25520  0.0
    237    254    255    272   5     4.74884    -0.63178     1.67360  0.0
    262    254    255    256   5     0.00000     0.00000    -0.94140  0.0
    262    254    255    264   5     0.00000     0.00000     1.25520  0.0
    262    254    255    272   5     0.00000     0.00000     1.25520  0.0
    263    254    255    256   5     0.00000     0.00000    -0.94140  0.0
    263    254    255    264   5     0.00000     0.00000     1.25520  0.0
    263    254    255    272   5     0.00000     0.00000     1.25520  0.0
    254    255    256    257   5     0.00000     2.52295     0.00000  0.0
    254    255    256    258   5     0.00000     0.00000     3.07524  0.0
    264    255    256    257   5     0.00000     0.00000     0.00000  0.0
    264    255    256    258   5     0.00000     0.00000     0.00000  0.0
    272    255    256    257   5     0.00000     2.52295     0.00000  0.0
    272    255    256    258   5     0.00000     0.00000     3.07524  0.0
    254    255    272    273   5     4.74884    -0.63178     1.67360  0.0
    254    255    272    280   5     0.00000     0.00000     1.25520  0.0
    254    255    272    281   5     0.00000     0.00000     1.25520  0.0
    256    255    272    273   5    -8.00818    -1.52298     2.46438  0.0
    256    255    272    280   5     0.00000     0.00000    -0.94140  0.0
    256    255    272    281   5     0.00000     0.00000    -0.94140  0.0
    264    255    272    273   5     0.00000     0.00000     1.25520  0.0
    264    255    272    280   5     0.00000     0.00000     1.25520  0.0
    264    255    272    281   5     0.00000     0.00000     1.25520  0.0
    255    256    258    259   5    13.65239    24.43456     0.00000  0.0
    257    256    258    259   5     0.00000    25.10400     0.00000  0.0
    256    258    259    260   5    -2.16731    -3.93296     0.98324  0.0
    256    258    259    265   5     0.00000     0.00000     0.67362  0.0
    256    258    259    266   5     0.00000     0.00000     0.67362  0.0
    258    259    260    261   5     5.25092    -2.58990     2.28446  0.0
    258    259    260    267   5     0.00000     0.00000     1.95811  0.0
    258    259    260    268   5     0.00000     0.00000     1.95811  0.0
    265    259    260    261   5     0.00000     0.00000     1.25520  0.0
    265    259    260    267   5     0.00000     0.00000     1.25520  0.0
    265    259    260    268   5     0.00000     0.00000     1.25520  0.0
    266    259    260    261   5     0.00000     0.00000     1.25520  0.0
    266    259    260    267   5     0.00000     0.00000     1.25520  0.0
    266    259    260    268   5     0.00000     0.00000     1.25520  0.0
    259    260    261    269   5     0.00000     0.00000     1.25520  0.0
    259    260    261    270   5     0.00000     0.00000     1.25520  0.0
    259    260    261    271   5     0.00000     0.00000     1.25520  0.0
    267    260    261    269   5     0.00000     0.00000     1.25520  0.0
    267    260    261    270   5     0.00000     0.00000     1.25520  0.0
    267    260    261    271   5     0.00000     0.00000     1.25520  0.0
    268    260    261    269   5     0.00000     0.00000     1.25520  0.0
    268    260    261    270   5     0.00000     0.00000     1.25520  0.0
    268    260    261    271   5     0.00000     0.00000     1.25520  0.0
    255    272    273    274   5    -8.00818    -1.52298     2.46438  0.0
    255    272    273    282   5     0.00000     0.00000     1.25520  0.0
    255    272    273    290   5     4.74884    -0.63178     1.67360  0.0
    280    272    273    274   5     0.00000     0.00000    -0.94140  0.0
    280    272    273    282   5     0.00000     0.00000     1.25520  0.0
    280    272    273    290   5     0.00000     0.00000     1.25520  0.0
    281    272    273    274   5     0.00000     0.00000    -0.94140  0.0
    281    272    273    282   5     0.00000     0.00000     1.25520  0.0
    281    272    273    290   5     0.00000     0.00000     1.25520  0.0
    272    273    274    275   5     0.00000     2.52295     0.00000  0.0
    272    273    274    276   5     0.00000     0.00000     3.07524  0.0
    282    273    274    275   5     0.00000     0.00000     0.00000  0.0
    282    273    274    276   5     0.00000     0.00000     0.00000  0.0
    290    273    274    275   5     0.00000     2.52295     0.00000  0.0
    290    273    274    276   5     0.00000     0.00000     3.07524  0.0
    272    273    290    291   5     4.74884    -0.63178     1.67360  0.0
    272    273    290    298   5     0.00000     0.00000     1.25520  0.0
    272    273    290    299   5     0.00000     0.00000     1.25520  0.0
    274    273    290    291   5    -8.00818    -1.52298     2.46438  0.0
    274    273    290    298   5     0.00000     0.00000    -0.94140  0.0
    274    273    290    299   5     0.00000     0.00000    -0.94140  0.0
    282    273    290    291   5     0.00000     0.00000     1.25520  0.0
    282    273    290    298   5     0.00000     0.00000     1.25520  0.0
    282    273    290    299   5     0.00000     0.00000     1.25520  0.0
    273    274    276    277   5    13.65239    24.43456     0.00000  0.0
    275    274    276    277   5     0.00000    25.10400     0.00000  0.0
    274    276    277    278   5    -2.16731    -3.93296     0.98324  0.0
    274    276    277    283   5     0.00000     0.00000     0.67362  0.0
    274    276    277    284   5     0.00000     0.00000     0.67362  0.0
    276    277    278    279   5     5.25092    -2.58990     2.28446  0.0
    276    277    278    285   5     0.00000     0.00000     1.95811  0.0
    276    277    278    286   5     0.00000     0.00000     1.95811  0.0
    283    277    278    279   5     0.00000     0.00000     1.25520  0.0
    283    277    278    285   5     0.00000     0.00000     1.25520  0.0
    283    277    278    286   5     0.00000     0.00000     1.25520  0.0
    284    277    278    279   5     0.00000     0.00000     1.25520  0.0
    284    277    278    285   5     0.00000     0.00000     1.25520  0.0
    284    277    278    286   5     0.00000     0.00000     1.25520  0.0
    277    278    279    287   5     0.00000     0.00000     1.25520  0.0
    277    278    279    288   5     0.00000     0.00000     1.25520  0.0
    277    278    279    289   5     0.00000     0.00000     1.25520  0.0
    285    278    279    287   5     0.00000     0.00000     1.25520  0.0
    285    278    279    288   5     0.00000     0.00000     1.25520  0.0
    285    278    279    289   5     0.00000     0.00000     1.25520  0.0
    286    278    279    287   5     0.00000     0.00000     1.25520  0.0
    286    278    279    288   5     0.00000     0.00000     1.25520  0.0
    286    278    279    289   5     0.00000     0.00000     1.25520  0.0
    273    290    291    292   5    -8.00818    -1.52298     2.46438  0.0
    273    290    291    300   5     0.00000     0.00000     1.25520  0.0
    273    290    291    308   5     4.74884    -0.63178     1.67360  0.0
    298    290    291    292   5     0.00000     0.00000    -0.94140  0.0
    298    290    291    300   5     0.00000     0.00000     1.25520  0.0
    298    290    291    308   5     0.00000     0.00000     1.25520  0.0
    299    290    291    292   5     0.00000     0.00000    -0.94140  0.0
    299    290    291    300   5     0.00000     0.00000     1.25520  0.0
    299    290    291    308   5     0.00000     0.00000     1.25520  0.0
    290    291    292    293   5     0.00000     2.52295     0.00000  0.0
    290    291    292    294   5     0.00000     0.00000     3.07524  0.0
    300    291    292    293   5     0.00000     0.00000     0.00000  0.0
    300    291    292    294   5     0.00000     0.00000     0.00000  0.0
    308    291    292    293   5     0.00000     2.52295     0.00000  0.0
    308    291    292    294   5     0.00000     0.00000     3.07524  0.0
    290    291    308    309   5     4.74884    -0.63178     1.67360  0.0
    290    291    308    316   5     0.00000     0.00000     1.25520  0.0
    290    291    308    317   5     0.00000     0.00000     1.25520  0.0
    292    291    308    309   5    -8.00818    -1.52298     2.46438  0.0
    292    291    308    316   5     0.00000     0.00000    -0.94140  0.0
    292    291    308    317   5     0.00000     0.00000    -0.94140  0.0
    300    291    308    309   5     0.00000     0.00000     1.25520  0.0
    300    291    308    316   5     0.00000     0.00000     1.25520  0.0
    300    291    308    317   5     0.00000     0.00000     1.25520  0.0
    291    292    294    295   5    13.65239    24.43456     0.00000  0.0
    293    292    294    295   5     0.00000    25.10400     0.00000  0.0
    292    294    295    296   5    -2.16731    -3.93296     0.98324  0.0
    292    294    295    301   5     0.00000     0.00000     0.67362  0.0
    292    294    295    302   5     0.00000     0.00000     0.67362  0.0
    294    295    296    297   5     5.25092    -2.58990     2.28446  0.0
    294    295    296    303   5     0.00000     0.00000     1.95811  0.0
    294    295    296    304   5     0.00000     0.00000     1.95811  0.0
    301    295    296    297   5     0.00000     0.00000     1.25520  0.0
    301    295    296    303   5     0.00000     0.00000     1.25520  0.0
    301    295    296    304   5     0.00000     0.00000     1.25520  0.0
    302    295    296    297   5     0.00000     0.00000     1.25520  0.0
    302    295    296    303   5     0.00000     0.00000     1.25520  0.0
    302    295    296    304   5     0.00000     0.00000     1.25520  0.0
    295    296    297    305   5     0.00000     0.00000     1.25520  0.0
    295    296    297    306   5     0.00000     0.00000     1.25520  0.0
    295    296    297    307   5     0.00000     0.00000     1.25520  0.0
    303    296    297    305   5     0.00000     0.00000     1.25520  0.0
    303    296    297    306   5     0.00000     0.00000     1.25520  0.0
    303    296    297    307   5     0.00000     0.00000     1.25520  0.0
    304    296    297    305   5     0.00000     0.00000     1.25520  0.0
    304    296    297    306   5     0.00000     0.00000     1.25520  0.0
    304    296    297    307   5     0.00000     0.00000     1.25520  0.0
    291    308    309    310   5    -8.00818    -1.52298     2.46438  0.0
    291    308    309    318   5     0.00000     0.00000     1.25520  0.0
    291    308    309    326   5     4.74884    -0.63178     1.67360  0.0
    316    308    309    310   5     0.00000     0.00000    -0.94140  0.0
    316    308    309    318   5     0.00000     0.00000     1.25520  0.0
    316    308    309    326   5     0.00000     0.00000     1.25520  0.0
    317    308    309    310   5     0.00000     0.00000    -0.94140  0.0
    317    308    309    318   5     0.00000     0.00000     1.25520  0.0
    317    308    309    326   5     0.00000     0.00000     1.25520  0.0
    308    309    310    311   5     0.00000     2.52295     0.00000  0.0
    308    309    310    312   5     0.00000     0.00000     3.07524  0.0
    318    309    310    311   5     0.00000     0.00000     0.00000  0.0
    318    309    310    312   5     0.00000     0.00000     0.00000  0.0
    326    309    310    311   5     0.00000     2.52295     0.00000  0.0
    326    309    310    312   5     0.00000     0.00000     3.07524  0.0
    308    309    326    327   5     4.74884    -0.63178     1.67360  0.0
    308    309    326    334   5     0.00000     0.00000     1.25520  0.0
    308    309    326    335   5     0.00000     0.00000     1.25520  0.0
    310    309    326    327   5    -8.00818    -1.52298     2.46438  0.0
    310    309    326    334   5     0.00000     0.00000    -0.94140  0.0
    310    309    326    335   5     0.00000     0.00000    -0.94140  0.0
    318    309    326    327   5     0.00000     0.00000     1.25520  0.0
    318    309    326    334   5     0.00000     0.00000     1.25520  0.0
    318    309    326    335   5     0.00000     0.00000     1.25520  0.0
    309    310    312    313   5    13.65239    24.43456     0.00000  0.0
    311    310    312    313   5     0.00000    25.10400     0.00000  0.0
    310    312    313    314   5    -2.16731    -3.93296     0.98324  0.0
    310    312    313    319   5     0.00000     0.00000     0.67362  0.0
    310    312    313    320   5     0.00000     0.00000     0.67362  0.0
    312    313    314    315   5     5.25092    -2.58990     2.28446  0.0
    312    313    314    321   5     0.00000     0.00000     1.95811  0.0
    312    313    314    322   5     0.00000     0.00000     1.95811  0.0
    319    313    314    315   5     0.00000     0.00000     1.25520  0.0
    319    313    314    321   5     0.00000     0.00000     1.25520  0.0
    319    313    314    322   5     0.00000     0.00000     1.25520  0.0
    320    313    314    315   5     0.00000     0.00000     1.25520  0.0
    320    313    314    321   5     0.00000     0.00000     1.25520  0.0
    320    313    314    322   5     0.00000     0.00000     1.25520  0.0
    313    314    315    323   5     0.00000     0.00000     1.25520  0.0
    313    314    315    324   5     0.00000     0.00000     1.25520  0.0
    313    314    315    325   5     0.00000     0.00000     1.25520  0.0
    321    314    315    323   5     0.00000     0.00000     1.25520  0.0
    321    314    315    324   5     0.00000     0.00000     1.25520  0.0
    321    314    315    325   5     0.00000     0.00000     1.25520  0.0
    322    314    315    323   5     0.00000     0.00000     1.25520  0.0
    322    314    315    324   5     0.00000     0.00000     1.25520  0.0
    322    314    315    325   5     0.00000     0.00000     1.25520  0.0
    309    326    327    328   5    -8.00818    -1.52298     2.46438  0.0
    309    326    327    336   5     0.00000     0.00000     1.25520  0.0
    309    326    327    344   5     4.74884    -0.63178     1.67360  0.0
    334    326    327    328   5     0.00000     0.00000    -0.94140  0.0
    334    326    327    336   5     0.00000     0.00000     1.25520  0.0
    334    326    327    344   5     0.00000     0.00000     1.25520  0.0
    335    326    327    328   5     0.00000     0.00000    -0.94140  0.0
    335    326    327    336   5     0.00000     0.00000     1.25520  0.0
    335    326    327    344   5     0.00000     0.00000     1.25520  0.0
    326    327    328    329   5     0.00000     2.52295     0.00000  0.0
    326    327    328    330   5     0.00000     0.00000     3.07524  0.0
    336    327    328    329   5     0.00000     0.00000     0.00000  0.0
    336    327    328    330   5     0.00000     0.00000     0.00000  0.0
    344    327    328    329   5     0.00000     2.52295     0.00000  0.0
    344    327    328    330   5     0.00000     0.00000     3.07524  0.0
    326    327    344    345   5     4.74884    -0.63178     1.67360  0.0
    326    327    344    352   5     0.00000     0.00000     1.25520  0.0
    326    327    344    353   5     0.00000     0.00000     1.25520  0.0
    328    327    344    345   5    -8.00818    -1.52298     2.46438  0.0
    328    327    344    352   5     0.00000     0.00000    -0.94140  0.0
    328    327    344    353   5     0.00000     0.00000    -0.94140  0.0
    336    327    344    345   5     0.00000     0.00000     1.25520  0.0
    336    327    344    352   5     0.00000     0.00000     1.25520  0.0
    336    327    344    353   5     0.00000     0.00000     1.25520  0.0
    327    328    330    331   5    13.65239    24.43456     0.00000  0.0
    329    328    330    331   5     0.00000    25.10400     0.00000  0.0
    328    330    331    332   5    -2.16731    -3.93296     0.98324  0.0
    328    330    331    337   5     0.00000     0.00000     0.67362  0.0
    328    330    331    338   5     0.00000     0.00000     0.67362  0.0
    330    331    332    333   5     5.25092    -2.58990     2.28446  0.0
    330    331    332    339   5     0.00000     0.00000     1.95811  0.0
    330    331    332    340   5     0.00000     0.00000     1.95811  0.0
    337    331    332    333   5     0.00000     0.00000     1.25520  0.0
    337    331    332    339   5     0.00000     0.00000     1.25520  0.0
    337    331    332    340   5     0.00000     0.00000     1.25520  0.0
    338    331    332    333   5     0.00000     0.00000     1.25520  0.0
    338    331    332    339   5     0.00000     0.00000     1.25520  0.0
    338    331    332    340   5     0.00000     0.00000     1.25520  0.0
    331    332    333    341   5     0.00000     0.00000     1.25520  0.0
    331    332    333    342   5     0.00000     0.00000     1.25520  0.0
    331    332    333    343   5     0.00000     0.00000     1.25520  0.0
    339    332    333    341   5     0.00000     0.00000     1.25520  0.0
    339    332    333    342   5     0.00000     0.00000     1.25520  0.0
    339    332    333    343   5     0.00000     0.00000     1.25520  0.0
    340    332    333    341   5     0.00000     0.00000     1.25520  0.0
    340    332    333    342   5     0.00000     0.00000     1.25520  0.0
    340    332    333    343   5     0.00000     0.00000     1.25520  0.0
    327    344    345    346   5    -8.00818    -1.52298     2.46438  0.0
    327    344    345    354   5     0.00000     0.00000     1.25520  0.0
    327    344    345    362   5     0.00000     0.00000     1.25520  0.0
    352    344    345    346   5     0.00000     0.00000    -0.94140  0.0
    352    344    345    354   5     0.00000     0.00000     1.25520  0.0
    352    344    345    362   5     0.00000     0.00000     1.25520  0.0
    353    344    345    346   5     0.00000     0.00000    -0.94140  0.0
    353    344    345    354   5     0.00000     0.00000     1.25520  0.0
    353    344    345    362   5     0.00000     0.00000     1.25520  0.0
    344    345    346    347   5     0.00000     2.52295     0.00000  0.0
    344    345    346    348   5     0.00000     0.00000     3.07524  0.0
    354    345    346    347   5     0.00000     0.00000     0.00000  0.0
    354    345    346    348   5     0.00000     0.00000     0.00000  0.0
    362    345    346    347   5     0.00000     0.00000     0.00000  0.0
    362    345    346    348   5     0.00000     0.00000     0.00000  0.0
    345    346    348    349   5    13.65239    24.43456     0.00000  0.0
    347    346    348    349   5     0.00000    25.10400     0.00000  0.0
    346    348    349    350   5    -2.16731    -3.93296     0.98324  0.0
    346    348    349    355   5     0.00000     0.00000     0.67362  0.0
    346    348    349    356   5     0.00000     0.00000     0.67362  0.0
    348    349    350    351   5     5.25092    -2.58990     2.28446  0.0
    348    349    350    357   5     0.00000     0.00000     1.95811  0.0
    348    349    350    358   5     0.00000     0.00000     1.95811  0.0
    355    349    350    351   5     0.00000     0.00000     1.25520  0.0
    355    349    350    357   5     0.00000     0.00000     1.25520  0.0
    355    349    350    358   5     0.00000     0.00000     1.25520  0.0
    356    349    350    351   5     0.00000     0.00000     1.25520  0.0
    356    349    350    357   5     0.00000     0.00000     1.25520  0.0
    356    349    350    358   5     0.00000     0.00000     1.25520  0.0
    349    350    351    359   5     0.00000     0.00000     1.25520  0.0
    349    350    351    360   5     0.00000     0.00000     1.25520  0.0
    349    350    351    361   5     0.00000     0.00000     1.25520  0.0
    357    350    351    359   5     0.00000     0.00000     1.25520  0.0
    357    350    351    360   5     0.00000     0.00000     1.25520  0.0
    357    350    351    361   5     0.00000     0.00000     1.25520  0.0
    358    350    351    359   5     0.00000     0.00000     1.25520  0.0
    358    350    351    360   5     0.00000     0.00000     1.25520  0.0
    358    350    351    361   5     0.00000     0.00000     1.25520  0.0

[ dihedrals ]
; Improper dihedrals
; h   i   j   k   funct
      2      4      3      5   5     0.00000    87.86400     0.00000  0.0
     21     23     22     24   5     0.00000    87.86400     0.00000  0.0
     39     41     40     42   5     0.00000    87.86400     0.00000  0.0
     57     59     58     60   5     0.00000    87.86400     0.00000  0.0
     75     77     76     78   5     0.00000    87.86400     0.00000  0.0
     93     95     94     96   5     0.00000    87.86400     0.00000  0.0
    111    113    112    114   5     0.00000    87.86400     0.00000  0.0
    129    131    130    132   5     0.00000    87.86400     0.00000  0.0
    147    149    148    150   5     0.00000    87.86400     0.00000  0.0
    165    167    166    168   5     0.00000    87.86400     0.00000  0.0
    183    185    184    186   5     0.00000    87.86400     0.00000  0.0
    201    203    202    204   5     0.00000    87.86400     0.00000  0.0
    219    221    220    222   5     0.00000    87.86400     0.00000  0.0
    237    239    238    240   5     0.00000    87.86400     0.00000  0.0
    255    257    256    258   5     0.00000    87.86400     0.00000  0.0
    273    275    274    276   5     0.00000    87.86400     0.00000  0.0
    291    293    292    294   5     0.00000    87.86400     0.00000  0.0
    309    311    310    312   5     0.00000    87.86400     0.00000  0.0
    327    329    328    330   5     0.00000    87.86400     0.00000  0.0
    345    347    346    348   5     0.00000    87.86400     0.00000  0.0
