;
; Gromacs include topology (itp) file.
; For Molecular Group XYZ
; Force field scheme: opls2005
; Produced from DL_FIELD v4.11
;


[ moleculetype ]
; name    nrexcl
XYZ    3

[ atoms ]
; nr   type   resnr   residu    atom    cgnr    charge    mass
    1        CT    1  MOL      C1     1  -0.0167000   12.0115
    2        Cl    1  MOL     Cl2     2  -0.1358000   35.0650
    3        Cl    1  MOL     Cl3     3  -0.1358000   35.0650
    4        CT    1  MOL      C4     4   0.1372000   12.0115
    5        HC    1  MOL      H5     5   0.0600000    1.0080
    6        HC    1  MOL      H6     6   0.0600000    1.0080
    7        HC    1  MOL      H7     7   0.1597000    1.0080
    8        CT    1  MOL      C8     8   0.0144000   12.0115
    9        Cl    1  MOL     Cl9     9  -0.1358000   35.0650
   10        Cl    1  MOL    Cl10    10  -0.1358000   35.0650
   11        CT    1  MOL     C11    11   0.1372000   12.0115
   12        HC    1  MOL     H12    12   0.0600000    1.0080
   13        HC    1  MOL     H13    13   0.0600000    1.0080
   14        CT    1  MOL     C14    14   0.0144000   12.0115
   15        Cl    1  MOL    Cl15    15  -0.1358000   35.0650
   16        Cl    1  MOL    Cl16    16  -0.1358000   35.0650
   17        CT    1  MOL     C17    17   0.1372000   12.0115
   18        HC    1  MOL     H18    18   0.0600000    1.0080
   19        HC    1  MOL     H19    19   0.0600000    1.0080
   20        CT    1  MOL     C20    20   0.0144000   12.0115
   21        Cl    1  MOL    Cl21    21  -0.1358000   35.0650
   22        Cl    1  MOL    Cl22    22  -0.1358000   35.0650
   23        CT    1  MOL     C23    23   0.1372000   12.0115
   24        HC    1  MOL     H24    24   0.0600000    1.0080
   25        HC    1  MOL     H25    25   0.0600000    1.0080
   26        CT    1  MOL     C26    26   0.0144000   12.0115
   27        Cl    1  MOL    Cl27    27  -0.1358000   35.0650
   28        Cl    1  MOL    Cl28    28  -0.1358000   35.0650
   29        CT    1  MOL     C29    29   0.1372000   12.0115
   30        HC    1  MOL     H30    30   0.0600000    1.0080
   31        HC    1  MOL     H31    31   0.0600000    1.0080
   32        CT    1  MOL     C32    32   0.0144000   12.0115
   33        Cl    1  MOL    Cl33    33  -0.1358000   35.0650
   34        Cl    1  MOL    Cl34    34  -0.1358000   35.0650
   35        CT    1  MOL     C35    35   0.1372000   12.0115
   36        HC    1  MOL     H36    36   0.0600000    1.0080
   37        HC    1  MOL     H37    37   0.0600000    1.0080
   38        CT    1  MOL     C38    38   0.0144000   12.0115
   39        Cl    1  MOL    Cl39    39  -0.1358000   35.0650
   40        Cl    1  MOL    Cl40    40  -0.1358000   35.0650
   41        CT    1  MOL     C41    41   0.1372000   12.0115
   42        HC    1  MOL     H42    42   0.0600000    1.0080
   43        HC    1  MOL     H43    43   0.0600000    1.0080
   44        CT    1  MOL     C44    44   0.0144000   12.0115
   45        Cl    1  MOL    Cl45    45  -0.1358000   35.0650
   46        Cl    1  MOL    Cl46    46  -0.1358000   35.0650
   47        CT    1  MOL     C47    47   0.1372000   12.0115
   48        HC    1  MOL     H48    48   0.0600000    1.0080
   49        HC    1  MOL     H49    49   0.0600000    1.0080
   50        CT    1  MOL     C50    50   0.0144000   12.0115
   51        Cl    1  MOL    Cl51    51  -0.1358000   35.0650
   52        Cl    1  MOL    Cl52    52  -0.1358000   35.0650
   53        CT    1  MOL     C53    53   0.1372000   12.0115
   54        HC    1  MOL     H54    54   0.0600000    1.0080
   55        HC    1  MOL     H55    55   0.0600000    1.0080
   56        CT    1  MOL     C56    56   0.0144000   12.0115
   57        Cl    1  MOL    Cl57    57  -0.1358000   35.0650
   58        Cl    1  MOL    Cl58    58  -0.1358000   35.0650
   59        CT    1  MOL     C59    59   0.1372000   12.0115
   60        HC    1  MOL     H60    60   0.0600000    1.0080
   61        HC    1  MOL     H61    61   0.0600000    1.0080
   62        CT    1  MOL     C62    62   0.0144000   12.0115
   63        Cl    1  MOL    Cl63    63  -0.1358000   35.0650
   64        Cl    1  MOL    Cl64    64  -0.1358000   35.0650
   65        CT    1  MOL     C65    65   0.1372000   12.0115
   66        HC    1  MOL     H66    66   0.0600000    1.0080
   67        HC    1  MOL     H67    67   0.0600000    1.0080
   68        CT    1  MOL     C68    68   0.0144000   12.0115
   69        Cl    1  MOL    Cl69    69  -0.1358000   35.0650
   70        Cl    1  MOL    Cl70    70  -0.1358000   35.0650
   71        CT    1  MOL     C71    71   0.1372000   12.0115
   72        HC    1  MOL     H72    72   0.0600000    1.0080
   73        HC    1  MOL     H73    73   0.0600000    1.0080
   74        CT    1  MOL     C74    74   0.0144000   12.0115
   75        Cl    1  MOL    Cl75    75  -0.1358000   35.0650
   76        Cl    1  MOL    Cl76    76  -0.1358000   35.0650
   77        CT    1  MOL     C77    77   0.1372000   12.0115
   78        HC    1  MOL     H78    78   0.0600000    1.0080
   79        HC    1  MOL     H79    79   0.0600000    1.0080
   80        CT    1  MOL     C80    80   0.0144000   12.0115
   81        Cl    1  MOL    Cl81    81  -0.1358000   35.0650
   82        Cl    1  MOL    Cl82    82  -0.1358000   35.0650
   83        CT    1  MOL     C83    83   0.1372000   12.0115
   84        HC    1  MOL     H84    84   0.0600000    1.0080
   85        HC    1  MOL     H85    85   0.0600000    1.0080
   86        CT    1  MOL     C86    86   0.0144000   12.0115
   87        Cl    1  MOL    Cl87    87  -0.1358000   35.0650
   88        Cl    1  MOL    Cl88    88  -0.1358000   35.0650
   89        CT    1  MOL     C89    89   0.1372000   12.0115
   90        HC    1  MOL     H90    90   0.0600000    1.0080
   91        HC    1  MOL     H91    91   0.0600000    1.0080
   92        CT    1  MOL     C92    92   0.0144000   12.0115
   93        Cl    1  MOL    Cl93    93  -0.1358000   35.0650
   94        Cl    1  MOL    Cl94    94  -0.1358000   35.0650
   95        CT    1  MOL     C95    95   0.1372000   12.0115
   96        HC    1  MOL     H96    96   0.0600000    1.0080
   97        HC    1  MOL     H97    97   0.0600000    1.0080
   98        CT    1  MOL     C98    98   0.0144000   12.0115
   99        Cl    1  MOL    Cl99    99  -0.1358000   35.0650
  100        Cl    1  MOL   Cl100   100  -0.1358000   35.0650
  101        CT    1  MOL    C101   101   0.1372000   12.0115
  102        HC    1  MOL    H102   102   0.0600000    1.0080
  103        HC    1  MOL    H103   103   0.0600000    1.0080
  104        CT    1  MOL    C104   104   0.0144000   12.0115
  105        Cl    1  MOL   Cl105   105  -0.1358000   35.0650
  106        Cl    1  MOL   Cl106   106  -0.1358000   35.0650
  107        CT    1  MOL    C107   107   0.1372000   12.0115
  108        HC    1  MOL    H108   108   0.0600000    1.0080
  109        HC    1  MOL    H109   109   0.0600000    1.0080
  110        CT    1  MOL    C110   110   0.0144000   12.0115
  111        Cl    1  MOL   Cl111   111  -0.1358000   35.0650
  112        Cl    1  MOL   Cl112   112  -0.1358000   35.0650
  113        CT    1  MOL    C113   113   0.1372000   12.0115
  114        HC    1  MOL    H114   114   0.0600000    1.0080
  115        HC    1  MOL    H115   115   0.0600000    1.0080
  116        CT    1  MOL    C116   116   0.0144000   12.0115
  117        Cl    1  MOL   Cl117   117  -0.1358000   35.0650
  118        Cl    1  MOL   Cl118   118  -0.1358000   35.0650
  119        CT    1  MOL    C119   119  -0.0514000   12.0115
  120        HC    1  MOL    H120   120   0.0600000    1.0080
  121        HC    1  MOL    H121   121   0.0600000    1.0080
  122        HC    1  MOL    H122   122   0.0600000    1.0080

[ bonds ]
      1      2   1      0.1781 205016.0000
      1      3   1      0.1781 205016.0000
      1      4   1      0.1529 224262.4000
      1      7   1      0.1090 284512.0000
      4      5   1      0.1090 284512.0000
      4      6   1      0.1090 284512.0000
      4      8   1      0.1529 224262.4000
      8      9   1      0.1781 205016.0000
      8     10   1      0.1781 205016.0000
      8     11   1      0.1529 224262.4000
     11     12   1      0.1090 284512.0000
     11     13   1      0.1090 284512.0000
     11     14   1      0.1529 224262.4000
     14     15   1      0.1781 205016.0000
     14     16   1      0.1781 205016.0000
     14     17   1      0.1529 224262.4000
     17     18   1      0.1090 284512.0000
     17     19   1      0.1090 284512.0000
     17     20   1      0.1529 224262.4000
     20     21   1      0.1781 205016.0000
     20     22   1      0.1781 205016.0000
     20     23   1      0.1529 224262.4000
     23     24   1      0.1090 284512.0000
     23     25   1      0.1090 284512.0000
     23     26   1      0.1529 224262.4000
     26     27   1      0.1781 205016.0000
     26     28   1      0.1781 205016.0000
     26     29   1      0.1529 224262.4000
     29     30   1      0.1090 284512.0000
     29     31   1      0.1090 284512.0000
     29     32   1      0.1529 224262.4000
     32     33   1      0.1781 205016.0000
     32     34   1      0.1781 205016.0000
     32     35   1      0.1529 224262.4000
     35     36   1      0.1090 284512.0000
     35     37   1      0.1090 284512.0000
     35     38   1      0.1529 224262.4000
     38     39   1      0.1781 205016.0000
     38     40   1      0.1781 205016.0000
     38     41   1      0.1529 224262.4000
     41     42   1      0.1090 284512.0000
     41     43   1      0.1090 284512.0000
     41     44   1      0.1529 224262.4000
     44     45   1      0.1781 205016.0000
     44     46   1      0.1781 205016.0000
     44     47   1      0.1529 224262.4000
     47     48   1      0.1090 284512.0000
     47     49   1      0.1090 284512.0000
     47     50   1      0.1529 224262.4000
     50     51   1      0.1781 205016.0000
     50     52   1      0.1781 205016.0000
     50     53   1      0.1529 224262.4000
     53     54   1      0.1090 284512.0000
     53     55   1      0.1090 284512.0000
     53     56   1      0.1529 224262.4000
     56     57   1      0.1781 205016.0000
     56     58   1      0.1781 205016.0000
     56     59   1      0.1529 224262.4000
     59     60   1      0.1090 284512.0000
     59     61   1      0.1090 284512.0000
     59     62   1      0.1529 224262.4000
     62     63   1      0.1781 205016.0000
     62     64   1      0.1781 205016.0000
     62     65   1      0.1529 224262.4000
     65     66   1      0.1090 284512.0000
     65     67   1      0.1090 284512.0000
     65     68   1      0.1529 224262.4000
     68     69   1      0.1781 205016.0000
     68     70   1      0.1781 205016.0000
     68     71   1      0.1529 224262.4000
     71     72   1      0.1090 284512.0000
     71     73   1      0.1090 284512.0000
     71     74   1      0.1529 224262.4000
     74     75   1      0.1781 205016.0000
     74     76   1      0.1781 205016.0000
     74     77   1      0.1529 224262.4000
     77     78   1      0.1090 284512.0000
     77     79   1      0.1090 284512.0000
     77     80   1      0.1529 224262.4000
     80     81   1      0.1781 205016.0000
     80     82   1      0.1781 205016.0000
     80     83   1      0.1529 224262.4000
     83     84   1      0.1090 284512.0000
     83     85   1      0.1090 284512.0000
     83     86   1      0.1529 224262.4000
     86     87   1      0.1781 205016.0000
     86     88   1      0.1781 205016.0000
     86     89   1      0.1529 224262.4000
     89     90   1      0.1090 284512.0000
     89     91   1      0.1090 284512.0000
     89     92   1      0.1529 224262.4000
     92     93   1      0.1781 205016.0000
     92     94   1      0.1781 205016.0000
     92     95   1      0.1529 224262.4000
     95     96   1      0.1090 284512.0000
     95     97   1      0.1090 284512.0000
     95     98   1      0.1529 224262.4000
     98     99   1      0.1781 205016.0000
     98    100   1      0.1781 205016.0000
     98    101   1      0.1529 224262.4000
    101    102   1      0.1090 284512.0000
    101    103   1      0.1090 284512.0000
    101    104   1      0.1529 224262.4000
    104    105   1      0.1781 205016.0000
    104    106   1      0.1781 205016.0000
    104    107   1      0.1529 224262.4000
    107    108   1      0.1090 284512.0000
    107    109   1      0.1090 284512.0000
    107    110   1      0.1529 224262.4000
    110    111   1      0.1781 205016.0000
    110    112   1      0.1781 205016.0000
    110    113   1      0.1529 224262.4000
    113    114   1      0.1090 284512.0000
    113    115   1      0.1090 284512.0000
    113    116   1      0.1529 224262.4000
    116    117   1      0.1781 205016.0000
    116    118   1      0.1781 205016.0000
    116    119   1      0.1529 224262.4000
    119    120   1      0.1090 284512.0000
    119    121   1      0.1090 284512.0000
    119    122   1      0.1090 284512.0000

[ pairs ]
; ai   aj   funct   fudge_QQ  charge_i   charge_j   c6    c12
      2      5   2   0.50000    -0.1358000    0.0600000   4.875282e-04  2.994032e-07
      2      6   2   0.50000    -0.1358000    0.0600000   4.875282e-04  2.994032e-07
      2      8   2   0.50000    -0.1358000    0.0144000   1.984244e-03  3.343767e-06
      3      5   2   0.50000    -0.1358000    0.0600000   4.875282e-04  2.994032e-07
      3      6   2   0.50000    -0.1358000    0.0600000   4.875282e-04  2.994032e-07
      3      8   2   0.50000    -0.1358000    0.0144000   1.984244e-03  3.343767e-06
      7      5   2   0.50000     0.1597000    0.0600000   6.128906e-05  1.496315e-08
      7      6   2   0.50000     0.1597000    0.0600000   6.128906e-05  1.496315e-08
      7      8   2   0.50000     0.1597000    0.0144000   2.494471e-04  1.671101e-07
      1      9   2   0.50000    -0.0167000   -0.1358000   1.984244e-03  3.343767e-06
      1     10   2   0.50000    -0.0167000   -0.1358000   1.984244e-03  3.343767e-06
      1     11   2   0.50000    -0.0167000    0.1372000   1.015252e-03  1.866303e-06
      5      9   2   0.50000     0.0600000   -0.1358000   4.875282e-04  2.994032e-07
      5     10   2   0.50000     0.0600000   -0.1358000   4.875282e-04  2.994032e-07
      5     11   2   0.50000     0.0600000    0.1372000   2.494471e-04  1.671101e-07
      6      9   2   0.50000     0.0600000   -0.1358000   4.875282e-04  2.994032e-07
      6     10   2   0.50000     0.0600000   -0.1358000   4.875282e-04  2.994032e-07
      6     11   2   0.50000     0.0600000    0.1372000   2.494471e-04  1.671101e-07
      4     12   2   0.50000     0.1372000    0.0600000   2.494471e-04  1.671101e-07
      4     13   2   0.50000     0.1372000    0.0600000   2.494471e-04  1.671101e-07
      4     14   2   0.50000     0.1372000    0.0144000   1.015252e-03  1.866303e-06
      9     12   2   0.50000    -0.1358000    0.0600000   4.875282e-04  2.994032e-07
      9     13   2   0.50000    -0.1358000    0.0600000   4.875282e-04  2.994032e-07
      9     14   2   0.50000    -0.1358000    0.0144000   1.984244e-03  3.343767e-06
     10     12   2   0.50000    -0.1358000    0.0600000   4.875282e-04  2.994032e-07
     10     13   2   0.50000    -0.1358000    0.0600000   4.875282e-04  2.994032e-07
     10     14   2   0.50000    -0.1358000    0.0144000   1.984244e-03  3.343767e-06
      8     15   2   0.50000     0.0144000   -0.1358000   1.984244e-03  3.343767e-06
      8     16   2   0.50000     0.0144000   -0.1358000   1.984244e-03  3.343767e-06
      8     17   2   0.50000     0.0144000    0.1372000   1.015252e-03  1.866303e-06
     12     15   2   0.50000     0.0600000   -0.1358000   4.875282e-04  2.994032e-07
     12     16   2   0.50000     0.0600000   -0.1358000   4.875282e-04  2.994032e-07
     12     17   2   0.50000     0.0600000    0.1372000   2.494471e-04  1.671101e-07
     13     15   2   0.50000     0.0600000   -0.1358000   4.875282e-04  2.994032e-07
     13     16   2   0.50000     0.0600000   -0.1358000   4.875282e-04  2.994032e-07
     13     17   2   0.50000     0.0600000    0.1372000   2.494471e-04  1.671101e-07
     11     18   2   0.50000     0.1372000    0.0600000   2.494471e-04  1.671101e-07
     11     19   2   0.50000     0.1372000    0.0600000   2.494471e-04  1.671101e-07
     11     20   2   0.50000     0.1372000    0.0144000   1.015252e-03  1.866303e-06
     15     18   2   0.50000    -0.1358000    0.0600000   4.875282e-04  2.994032e-07
     15     19   2   0.50000    -0.1358000    0.0600000   4.875282e-04  2.994032e-07
     15     20   2   0.50000    -0.1358000    0.0144000   1.984244e-03  3.343767e-06
     16     18   2   0.50000    -0.1358000    0.0600000   4.875282e-04  2.994032e-07
     16     19   2   0.50000    -0.1358000    0.0600000   4.875282e-04  2.994032e-07
     16     20   2   0.50000    -0.1358000    0.0144000   1.984244e-03  3.343767e-06
     14     21   2   0.50000     0.0144000   -0.1358000   1.984244e-03  3.343767e-06
     14     22   2   0.50000     0.0144000   -0.1358000   1.984244e-03  3.343767e-06
     14     23   2   0.50000     0.0144000    0.1372000   1.015252e-03  1.866303e-06
     18     21   2   0.50000     0.0600000   -0.1358000   4.875282e-04  2.994032e-07
     18     22   2   0.50000     0.0600000   -0.1358000   4.875282e-04  2.994032e-07
     18     23   2   0.50000     0.0600000    0.1372000   2.494471e-04  1.671101e-07
     19     21   2   0.50000     0.0600000   -0.1358000   4.875282e-04  2.994032e-07
     19     22   2   0.50000     0.0600000   -0.1358000   4.875282e-04  2.994032e-07
     19     23   2   0.50000     0.0600000    0.1372000   2.494471e-04  1.671101e-07
     17     24   2   0.50000     0.1372000    0.0600000   2.494471e-04  1.671101e-07
     17     25   2   0.50000     0.1372000    0.0600000   2.494471e-04  1.671101e-07
     17     26   2   0.50000     0.1372000    0.0144000   1.015252e-03  1.866303e-06
     21     24   2   0.50000    -0.1358000    0.0600000   4.875282e-04  2.994032e-07
     21     25   2   0.50000    -0.1358000    0.0600000   4.875282e-04  2.994032e-07
     21     26   2   0.50000    -0.1358000    0.0144000   1.984244e-03  3.343767e-06
     22     24   2   0.50000    -0.1358000    0.0600000   4.875282e-04  2.994032e-07
     22     25   2   0.50000    -0.1358000    0.0600000   4.875282e-04  2.994032e-07
     22     26   2   0.50000    -0.1358000    0.0144000   1.984244e-03  3.343767e-06
     20     27   2   0.50000     0.0144000   -0.1358000   1.984244e-03  3.343767e-06
     20     28   2   0.50000     0.0144000   -0.1358000   1.984244e-03  3.343767e-06
     20     29   2   0.50000     0.0144000    0.1372000   1.015252e-03  1.866303e-06
     24     27   2   0.50000     0.0600000   -0.1358000   4.875282e-04  2.994032e-07
     24     28   2   0.50000     0.0600000   -0.1358000   4.875282e-04  2.994032e-07
     24     29   2   0.50000     0.0600000    0.1372000   2.494471e-04  1.671101e-07
     25     27   2   0.50000     0.0600000   -0.1358000   4.875282e-04  2.994032e-07
     25     28   2   0.50000     0.0600000   -0.1358000   4.875282e-04  2.994032e-07
     25     29   2   0.50000     0.0600000    0.1372000   2.494471e-04  1.671101e-07
     23     30   2   0.50000     0.1372000    0.0600000   2.494471e-04  1.671101e-07
     23     31   2   0.50000     0.1372000    0.0600000   2.494471e-04  1.671101e-07
     23     32   2   0.50000     0.1372000    0.0144000   1.015252e-03  1.866303e-06
     27     30   2   0.50000    -0.1358000    0.0600000   4.875282e-04  2.994032e-07
     27     31   2   0.50000    -0.1358000    0.0600000   4.875282e-04  2.994032e-07
     27     32   2   0.50000    -0.1358000    0.0144000   1.984244e-03  3.343767e-06
     28     30   2   0.50000    -0.1358000    0.0600000   4.875282e-04  2.994032e-07
     28     31   2   0.50000    -0.1358000    0.0600000   4.875282e-04  2.994032e-07
     28     32   2   0.50000    -0.1358000    0.0144000   1.984244e-03  3.343767e-06
     26     33   2   0.50000     0.0144000   -0.1358000   1.984244e-03  3.343767e-06
     26     34   2   0.50000     0.0144000   -0.1358000   1.984244e-03  3.343767e-06
     26     35   2   0.50000     0.0144000    0.1372000   1.015252e-03  1.866303e-06
     30     33   2   0.50000     0.0600000   -0.1358000   4.875282e-04  2.994032e-07
     30     34   2   0.50000     0.0600000   -0.1358000   4.875282e-04  2.994032e-07
     30     35   2   0.50000     0.0600000    0.1372000   2.494471e-04  1.671101e-07
     31     33   2   0.50000     0.0600000   -0.1358000   4.875282e-04  2.994032e-07
     31     34   2   0.50000     0.0600000   -0.1358000   4.875282e-04  2.994032e-07
     31     35   2   0.50000     0.0600000    0.1372000   2.494471e-04  1.671101e-07
     29     36   2   0.50000     0.1372000    0.0600000   2.494471e-04  1.671101e-07
     29     37   2   0.50000     0.1372000    0.0600000   2.494471e-04  1.671101e-07
     29     38   2   0.50000     0.1372000    0.0144000   1.015252e-03  1.866303e-06
     33     36   2   0.50000    -0.1358000    0.0600000   4.875282e-04  2.994032e-07
     33     37   2   0.50000    -0.1358000    0.0600000   4.875282e-04  2.994032e-07
     33     38   2   0.50000    -0.1358000    0.0144000   1.984244e-03  3.343767e-06
     34     36   2   0.50000    -0.1358000    0.0600000   4.875282e-04  2.994032e-07
     34     37   2   0.50000    -0.1358000    0.0600000   4.875282e-04  2.994032e-07
     34     38   2   0.50000    -0.1358000    0.0144000   1.984244e-03  3.343767e-06
     32     39   2   0.50000     0.0144000   -0.1358000   1.984244e-03  3.343767e-06
     32     40   2   0.50000     0.0144000   -0.1358000   1.984244e-03  3.343767e-06
     32     41   2   0.50000     0.0144000    0.1372000   1.015252e-03  1.866303e-06
     36     39   2   0.50000     0.0600000   -0.1358000   4.875282e-04  2.994032e-07
     36     40   2   0.50000     0.0600000   -0.1358000   4.875282e-04  2.994032e-07
     36     41   2   0.50000     0.0600000    0.1372000   2.494471e-04  1.671101e-07
     37     39   2   0.50000     0.0600000   -0.1358000   4.875282e-04  2.994032e-07
     37     40   2   0.50000     0.0600000   -0.1358000   4.875282e-04  2.994032e-07
     37     41   2   0.50000     0.0600000    0.1372000   2.494471e-04  1.671101e-07
     35     42   2   0.50000     0.1372000    0.0600000   2.494471e-04  1.671101e-07
     35     43   2   0.50000     0.1372000    0.0600000   2.494471e-04  1.671101e-07
     35     44   2   0.50000     0.1372000    0.0144000   1.015252e-03  1.866303e-06
     39     42   2   0.50000    -0.1358000    0.0600000   4.875282e-04  2.994032e-07
     39     43   2   0.50000    -0.1358000    0.0600000   4.875282e-04  2.994032e-07
     39     44   2   0.50000    -0.1358000    0.0144000   1.984244e-03  3.343767e-06
     40     42   2   0.50000    -0.1358000    0.0600000   4.875282e-04  2.994032e-07
     40     43   2   0.50000    -0.1358000    0.0600000   4.875282e-04  2.994032e-07
     40     44   2   0.50000    -0.1358000    0.0144000   1.984244e-03  3.343767e-06
     38     45   2   0.50000     0.0144000   -0.1358000   1.984244e-03  3.343767e-06
     38     46   2   0.50000     0.0144000   -0.1358000   1.984244e-03  3.343767e-06
     38     47   2   0.50000     0.0144000    0.1372000   1.015252e-03  1.866303e-06
     42     45   2   0.50000     0.0600000   -0.1358000   4.875282e-04  2.994032e-07
     42     46   2   0.50000     0.0600000   -0.1358000   4.875282e-04  2.994032e-07
     42     47   2   0.50000     0.0600000    0.1372000   2.494471e-04  1.671101e-07
     43     45   2   0.50000     0.0600000   -0.1358000   4.875282e-04  2.994032e-07
     43     46   2   0.50000     0.0600000   -0.1358000   4.875282e-04  2.994032e-07
     43     47   2   0.50000     0.0600000    0.1372000   2.494471e-04  1.671101e-07
     41     48   2   0.50000     0.1372000    0.0600000   2.494471e-04  1.671101e-07
     41     49   2   0.50000     0.1372000    0.0600000   2.494471e-04  1.671101e-07
     41     50   2   0.50000     0.1372000    0.0144000   1.015252e-03  1.866303e-06
     45     48   2   0.50000    -0.1358000    0.0600000   4.875282e-04  2.994032e-07
     45     49   2   0.50000    -0.1358000    0.0600000   4.875282e-04  2.994032e-07
     45     50   2   0.50000    -0.1358000    0.0144000   1.984244e-03  3.343767e-06
     46     48   2   0.50000    -0.1358000    0.0600000   4.875282e-04  2.994032e-07
     46     49   2   0.50000    -0.1358000    0.0600000   4.875282e-04  2.994032e-07
     46     50   2   0.50000    -0.1358000    0.0144000   1.984244e-03  3.343767e-06
     44     51   2   0.50000     0.0144000   -0.1358000   1.984244e-03  3.343767e-06
     44     52   2   0.50000     0.0144000   -0.1358000   1.984244e-03  3.343767e-06
     44     53   2   0.50000     0.0144000    0.1372000   1.015252e-03  1.866303e-06
     48     51   2   0.50000     0.0600000   -0.1358000   4.875282e-04  2.994032e-07
     48     52   2   0.50000     0.0600000   -0.1358000   4.875282e-04  2.994032e-07
     48     53   2   0.50000     0.0600000    0.1372000   2.494471e-04  1.671101e-07
     49     51   2   0.50000     0.0600000   -0.1358000   4.875282e-04  2.994032e-07
     49     52   2   0.50000     0.0600000   -0.1358000   4.875282e-04  2.994032e-07
     49     53   2   0.50000     0.0600000    0.1372000   2.494471e-04  1.671101e-07
     47     54   2   0.50000     0.1372000    0.0600000   2.494471e-04  1.671101e-07
     47     55   2   0.50000     0.1372000    0.0600000   2.494471e-04  1.671101e-07
     47     56   2   0.50000     0.1372000    0.0144000   1.015252e-03  1.866303e-06
     51     54   2   0.50000    -0.1358000    0.0600000   4.875282e-04  2.994032e-07
     51     55   2   0.50000    -0.1358000    0.0600000   4.875282e-04  2.994032e-07
     51     56   2   0.50000    -0.1358000    0.0144000   1.984244e-03  3.343767e-06
     52     54   2   0.50000    -0.1358000    0.0600000   4.875282e-04  2.994032e-07
     52     55   2   0.50000    -0.1358000    0.0600000   4.875282e-04  2.994032e-07
     52     56   2   0.50000    -0.1358000    0.0144000   1.984244e-03  3.343767e-06
     50     57   2   0.50000     0.0144000   -0.1358000   1.984244e-03  3.343767e-06
     50     58   2   0.50000     0.0144000   -0.1358000   1.984244e-03  3.343767e-06
     50     59   2   0.50000     0.0144000    0.1372000   1.015252e-03  1.866303e-06
     54     57   2   0.50000     0.0600000   -0.1358000   4.875282e-04  2.994032e-07
     54     58   2   0.50000     0.0600000   -0.1358000   4.875282e-04  2.994032e-07
     54     59   2   0.50000     0.0600000    0.1372000   2.494471e-04  1.671101e-07
     55     57   2   0.50000     0.0600000   -0.1358000   4.875282e-04  2.994032e-07
     55     58   2   0.50000     0.0600000   -0.1358000   4.875282e-04  2.994032e-07
     55     59   2   0.50000     0.0600000    0.1372000   2.494471e-04  1.671101e-07
     53     60   2   0.50000     0.1372000    0.0600000   2.494471e-04  1.671101e-07
     53     61   2   0.50000     0.1372000    0.0600000   2.494471e-04  1.671101e-07
     53     62   2   0.50000     0.1372000    0.0144000   1.015252e-03  1.866303e-06
     57     60   2   0.50000    -0.1358000    0.0600000   4.875282e-04  2.994032e-07
     57     61   2   0.50000    -0.1358000    0.0600000   4.875282e-04  2.994032e-07
     57     62   2   0.50000    -0.1358000    0.0144000   1.984244e-03  3.343767e-06
     58     60   2   0.50000    -0.1358000    0.0600000   4.875282e-04  2.994032e-07
     58     61   2   0.50000    -0.1358000    0.0600000   4.875282e-04  2.994032e-07
     58     62   2   0.50000    -0.1358000    0.0144000   1.984244e-03  3.343767e-06
     56     63   2   0.50000     0.0144000   -0.1358000   1.984244e-03  3.343767e-06
     56     64   2   0.50000     0.0144000   -0.1358000   1.984244e-03  3.343767e-06
     56     65   2   0.50000     0.0144000    0.1372000   1.015252e-03  1.866303e-06
     60     63   2   0.50000     0.0600000   -0.1358000   4.875282e-04  2.994032e-07
     60     64   2   0.50000     0.0600000   -0.1358000   4.875282e-04  2.994032e-07
     60     65   2   0.50000     0.0600000    0.1372000   2.494471e-04  1.671101e-07
     61     63   2   0.50000     0.0600000   -0.1358000   4.875282e-04  2.994032e-07
     61     64   2   0.50000     0.0600000   -0.1358000   4.875282e-04  2.994032e-07
     61     65   2   0.50000     0.0600000    0.1372000   2.494471e-04  1.671101e-07
     59     66   2   0.50000     0.1372000    0.0600000   2.494471e-04  1.671101e-07
     59     67   2   0.50000     0.1372000    0.0600000   2.494471e-04  1.671101e-07
     59     68   2   0.50000     0.1372000    0.0144000   1.015252e-03  1.866303e-06
     63     66   2   0.50000    -0.1358000    0.0600000   4.875282e-04  2.994032e-07
     63     67   2   0.50000    -0.1358000    0.0600000   4.875282e-04  2.994032e-07
     63     68   2   0.50000    -0.1358000    0.0144000   1.984244e-03  3.343767e-06
     64     66   2   0.50000    -0.1358000    0.0600000   4.875282e-04  2.994032e-07
     64     67   2   0.50000    -0.1358000    0.0600000   4.875282e-04  2.994032e-07
     64     68   2   0.50000    -0.1358000    0.0144000   1.984244e-03  3.343767e-06
     62     69   2   0.50000     0.0144000   -0.1358000   1.984244e-03  3.343767e-06
     62     70   2   0.50000     0.0144000   -0.1358000   1.984244e-03  3.343767e-06
     62     71   2   0.50000     0.0144000    0.1372000   1.015252e-03  1.866303e-06
     66     69   2   0.50000     0.0600000   -0.1358000   4.875282e-04  2.994032e-07
     66     70   2   0.50000     0.0600000   -0.1358000   4.875282e-04  2.994032e-07
     66     71   2   0.50000     0.0600000    0.1372000   2.494471e-04  1.671101e-07
     67     69   2   0.50000     0.0600000   -0.1358000   4.875282e-04  2.994032e-07
     67     70   2   0.50000     0.0600000   -0.1358000   4.875282e-04  2.994032e-07
     67     71   2   0.50000     0.0600000    0.1372000   2.494471e-04  1.671101e-07
     65     72   2   0.50000     0.1372000    0.0600000   2.494471e-04  1.671101e-07
     65     73   2   0.50000     0.1372000    0.0600000   2.494471e-04  1.671101e-07
     65     74   2   0.50000     0.1372000    0.0144000   1.015252e-03  1.866303e-06
     69     72   2   0.50000    -0.1358000    0.0600000   4.875282e-04  2.994032e-07
     69     73   2   0.50000    -0.1358000    0.0600000   4.875282e-04  2.994032e-07
     69     74   2   0.50000    -0.1358000    0.0144000   1.984244e-03  3.343767e-06
     70     72   2   0.50000    -0.1358000    0.0600000   4.875282e-04  2.994032e-07
     70     73   2   0.50000    -0.1358000    0.0600000   4.875282e-04  2.994032e-07
     70     74   2   0.50000    -0.1358000    0.0144000   1.984244e-03  3.343767e-06
     68     75   2   0.50000     0.0144000   -0.1358000   1.984244e-03  3.343767e-06
     68     76   2   0.50000     0.0144000   -0.1358000   1.984244e-03  3.343767e-06
     68     77   2   0.50000     0.0144000    0.1372000   1.015252e-03  1.866303e-06
     72     75   2   0.50000     0.0600000   -0.1358000   4.875282e-04  2.994032e-07
     72     76   2   0.50000     0.0600000   -0.1358000   4.875282e-04  2.994032e-07
     72     77   2   0.50000     0.0600000    0.1372000   2.494471e-04  1.671101e-07
     73     75   2   0.50000     0.0600000   -0.1358000   4.875282e-04  2.994032e-07
     73     76   2   0.50000     0.0600000   -0.1358000   4.875282e-04  2.994032e-07
     73     77   2   0.50000     0.0600000    0.1372000   2.494471e-04  1.671101e-07
     71     78   2   0.50000     0.1372000    0.0600000   2.494471e-04  1.671101e-07
     71     79   2   0.50000     0.1372000    0.0600000   2.494471e-04  1.671101e-07
     71     80   2   0.50000     0.1372000    0.0144000   1.015252e-03  1.866303e-06
     75     78   2   0.50000    -0.1358000    0.0600000   4.875282e-04  2.994032e-07
     75     79   2   0.50000    -0.1358000    0.0600000   4.875282e-04  2.994032e-07
     75     80   2   0.50000    -0.1358000    0.0144000   1.984244e-03  3.343767e-06
     76     78   2   0.50000    -0.1358000    0.0600000   4.875282e-04  2.994032e-07
     76     79   2   0.50000    -0.1358000    0.0600000   4.875282e-04  2.994032e-07
     76     80   2   0.50000    -0.1358000    0.0144000   1.984244e-03  3.343767e-06
     74     81   2   0.50000     0.0144000   -0.1358000   1.984244e-03  3.343767e-06
     74     82   2   0.50000     0.0144000   -0.1358000   1.984244e-03  3.343767e-06
     74     83   2   0.50000     0.0144000    0.1372000   1.015252e-03  1.866303e-06
     78     81   2   0.50000     0.0600000   -0.1358000   4.875282e-04  2.994032e-07
     78     82   2   0.50000     0.0600000   -0.1358000   4.875282e-04  2.994032e-07
     78     83   2   0.50000     0.0600000    0.1372000   2.494471e-04  1.671101e-07
     79     81   2   0.50000     0.0600000   -0.1358000   4.875282e-04  2.994032e-07
     79     82   2   0.50000     0.0600000   -0.1358000   4.875282e-04  2.994032e-07
     79     83   2   0.50000     0.0600000    0.1372000   2.494471e-04  1.671101e-07
     77     84   2   0.50000     0.1372000    0.0600000   2.494471e-04  1.671101e-07
     77     85   2   0.50000     0.1372000    0.0600000   2.494471e-04  1.671101e-07
     77     86   2   0.50000     0.1372000    0.0144000   1.015252e-03  1.866303e-06
     81     84   2   0.50000    -0.1358000    0.0600000   4.875282e-04  2.994032e-07
     81     85   2   0.50000    -0.1358000    0.0600000   4.875282e-04  2.994032e-07
     81     86   2   0.50000    -0.1358000    0.0144000   1.984244e-03  3.343767e-06
     82     84   2   0.50000    -0.1358000    0.0600000   4.875282e-04  2.994032e-07
     82     85   2   0.50000    -0.1358000    0.0600000   4.875282e-04  2.994032e-07
     82     86   2   0.50000    -0.1358000    0.0144000   1.984244e-03  3.343767e-06
     80     87   2   0.50000     0.0144000   -0.1358000   1.984244e-03  3.343767e-06
     80     88   2   0.50000     0.0144000   -0.1358000   1.984244e-03  3.343767e-06
     80     89   2   0.50000     0.0144000    0.1372000   1.015252e-03  1.866303e-06
     84     87   2   0.50000     0.0600000   -0.1358000   4.875282e-04  2.994032e-07
     84     88   2   0.50000     0.0600000   -0.1358000   4.875282e-04  2.994032e-07
     84     89   2   0.50000     0.0600000    0.1372000   2.494471e-04  1.671101e-07
     85     87   2   0.50000     0.0600000   -0.1358000   4.875282e-04  2.994032e-07
     85     88   2   0.50000     0.0600000   -0.1358000   4.875282e-04  2.994032e-07
     85     89   2   0.50000     0.0600000    0.1372000   2.494471e-04  1.671101e-07
     83     90   2   0.50000     0.1372000    0.0600000   2.494471e-04  1.671101e-07
     83     91   2   0.50000     0.1372000    0.0600000   2.494471e-04  1.671101e-07
     83     92   2   0.50000     0.1372000    0.0144000   1.015252e-03  1.866303e-06
     87     90   2   0.50000    -0.1358000    0.0600000   4.875282e-04  2.994032e-07
     87     91   2   0.50000    -0.1358000    0.0600000   4.875282e-04  2.994032e-07
     87     92   2   0.50000    -0.1358000    0.0144000   1.984244e-03  3.343767e-06
     88     90   2   0.50000    -0.1358000    0.0600000   4.875282e-04  2.994032e-07
     88     91   2   0.50000    -0.1358000    0.0600000   4.875282e-04  2.994032e-07
     88     92   2   0.50000    -0.1358000    0.0144000   1.984244e-03  3.343767e-06
     86     93   2   0.50000     0.0144000   -0.1358000   1.984244e-03  3.343767e-06
     86     94   2   0.50000     0.0144000   -0.1358000   1.984244e-03  3.343767e-06
     86     95   2   0.50000     0.0144000    0.1372000   1.015252e-03  1.866303e-06
     90     93   2   0.50000     0.0600000   -0.1358000   4.875282e-04  2.994032e-07
     90     94   2   0.50000     0.0600000   -0.1358000   4.875282e-04  2.994032e-07
     90     95   2   0.50000     0.0600000    0.1372000   2.494471e-04  1.671101e-07
     91     93   2   0.50000     0.0600000   -0.1358000   4.875282e-04  2.994032e-07
     91     94   2   0.50000     0.0600000   -0.1358000   4.875282e-04  2.994032e-07
     91     95   2   0.50000     0.0600000    0.1372000   2.494471e-04  1.671101e-07
     89     96   2   0.50000     0.1372000    0.0600000   2.494471e-04  1.671101e-07
     89     97   2   0.50000     0.1372000    0.0600000   2.494471e-04  1.671101e-07
     89     98   2   0.50000     0.1372000    0.0144000   1.015252e-03  1.866303e-06
     93     96   2   0.50000    -0.1358000    0.0600000   4.875282e-04  2.994032e-07
     93     97   2   0.50000    -0.1358000    0.0600000   4.875282e-04  2.994032e-07
     93     98   2   0.50000    -0.1358000    0.0144000   1.984244e-03  3.343767e-06
     94     96   2   0.50000    -0.1358000    0.0600000   4.875282e-04  2.994032e-07
     94     97   2   0.50000    -0.1358000    0.0600000   4.875282e-04  2.994032e-07
     94     98   2   0.50000    -0.1358000    0.0144000   1.984244e-03  3.343767e-06
     92     99   2   0.50000     0.0144000   -0.1358000   1.984244e-03  3.343767e-06
     92    100   2   0.50000     0.0144000   -0.1358000   1.984244e-03  3.343767e-06
     92    101   2   0.50000     0.0144000    0.1372000   1.015252e-03  1.866303e-06
     96     99   2   0.50000     0.0600000   -0.1358000   4.875282e-04  2.994032e-07
     96    100   2   0.50000     0.0600000   -0.1358000   4.875282e-04  2.994032e-07
     96    101   2   0.50000     0.0600000    0.1372000   2.494471e-04  1.671101e-07
     97     99   2   0.50000     0.0600000   -0.1358000   4.875282e-04  2.994032e-07
     97    100   2   0.50000     0.0600000   -0.1358000   4.875282e-04  2.994032e-07
     97    101   2   0.50000     0.0600000    0.1372000   2.494471e-04  1.671101e-07
     95    102   2   0.50000     0.1372000    0.0600000   2.494471e-04  1.671101e-07
     95    103   2   0.50000     0.1372000    0.0600000   2.494471e-04  1.671101e-07
     95    104   2   0.50000     0.1372000    0.0144000   1.015252e-03  1.866303e-06
     99    102   2   0.50000    -0.1358000    0.0600000   4.875282e-04  2.994032e-07
     99    103   2   0.50000    -0.1358000    0.0600000   4.875282e-04  2.994032e-07
     99    104   2   0.50000    -0.1358000    0.0144000   1.984244e-03  3.343767e-06
    100    102   2   0.50000    -0.1358000    0.0600000   4.875282e-04  2.994032e-07
    100    103   2   0.50000    -0.1358000    0.0600000   4.875282e-04  2.994032e-07
    100    104   2   0.50000    -0.1358000    0.0144000   1.984244e-03  3.343767e-06
     98    105   2   0.50000     0.0144000   -0.1358000   1.984244e-03  3.343767e-06
     98    106   2   0.50000     0.0144000   -0.1358000   1.984244e-03  3.343767e-06
     98    107   2   0.50000     0.0144000    0.1372000   1.015252e-03  1.866303e-06
    102    105   2   0.50000     0.0600000   -0.1358000   4.875282e-04  2.994032e-07
    102    106   2   0.50000     0.0600000   -0.1358000   4.875282e-04  2.994032e-07
    102    107   2   0.50000     0.0600000    0.1372000   2.494471e-04  1.671101e-07
    103    105   2   0.50000     0.0600000   -0.1358000   4.875282e-04  2.994032e-07
    103    106   2   0.50000     0.0600000   -0.1358000   4.875282e-04  2.994032e-07
    103    107   2   0.50000     0.0600000    0.1372000   2.494471e-04  1.671101e-07
    101    108   2   0.50000     0.1372000    0.0600000   2.494471e-04  1.671101e-07
    101    109   2   0.50000     0.1372000    0.0600000   2.494471e-04  1.671101e-07
    101    110   2   0.50000     0.1372000    0.0144000   1.015252e-03  1.866303e-06
    105    108   2   0.50000    -0.1358000    0.0600000   4.875282e-04  2.994032e-07
    105    109   2   0.50000    -0.1358000    0.0600000   4.875282e-04  2.994032e-07
    105    110   2   0.50000    -0.1358000    0.0144000   1.984244e-03  3.343767e-06
    106    108   2   0.50000    -0.1358000    0.0600000   4.875282e-04  2.994032e-07
    106    109   2   0.50000    -0.1358000    0.0600000   4.875282e-04  2.994032e-07
    106    110   2   0.50000    -0.1358000    0.0144000   1.984244e-03  3.343767e-06
    104    111   2   0.50000     0.0144000   -0.1358000   1.984244e-03  3.343767e-06
    104    112   2   0.50000     0.0144000   -0.1358000   1.984244e-03  3.343767e-06
    104    113   2   0.50000     0.0144000    0.1372000   1.015252e-03  1.866303e-06
    108    111   2   0.50000     0.0600000   -0.1358000   4.875282e-04  2.994032e-07
    108    112   2   0.50000     0.0600000   -0.1358000   4.875282e-04  2.994032e-07
    108    113   2   0.50000     0.0600000    0.1372000   2.494471e-04  1.671101e-07
    109    111   2   0.50000     0.0600000   -0.1358000   4.875282e-04  2.994032e-07
    109    112   2   0.50000     0.0600000   -0.1358000   4.875282e-04  2.994032e-07
    109    113   2   0.50000     0.0600000    0.1372000   2.494471e-04  1.671101e-07
    107    114   2   0.50000     0.1372000    0.0600000   2.494471e-04  1.671101e-07
    107    115   2   0.50000     0.1372000    0.0600000   2.494471e-04  1.671101e-07
    107    116   2   0.50000     0.1372000    0.0144000   1.015252e-03  1.866303e-06
    111    114   2   0.50000    -0.1358000    0.0600000   4.875282e-04  2.994032e-07
    111    115   2   0.50000    -0.1358000    0.0600000   4.875282e-04  2.994032e-07
    111    116   2   0.50000    -0.1358000    0.0144000   1.984244e-03  3.343767e-06
    112    114   2   0.50000    -0.1358000    0.0600000   4.875282e-04  2.994032e-07
    112    115   2   0.50000    -0.1358000    0.0600000   4.875282e-04  2.994032e-07
    112    116   2   0.50000    -0.1358000    0.0144000   1.984244e-03  3.343767e-06
    110    117   2   0.50000     0.0144000   -0.1358000   1.984244e-03  3.343767e-06
    110    118   2   0.50000     0.0144000   -0.1358000   1.984244e-03  3.343767e-06
    110    119   2   0.50000     0.0144000   -0.0514000   1.015252e-03  1.866303e-06
    114    117   2   0.50000     0.0600000   -0.1358000   4.875282e-04  2.994032e-07
    114    118   2   0.50000     0.0600000   -0.1358000   4.875282e-04  2.994032e-07
    114    119   2   0.50000     0.0600000   -0.0514000   2.494471e-04  1.671101e-07
    115    117   2   0.50000     0.0600000   -0.1358000   4.875282e-04  2.994032e-07
    115    118   2   0.50000     0.0600000   -0.1358000   4.875282e-04  2.994032e-07
    115    119   2   0.50000     0.0600000   -0.0514000   2.494471e-04  1.671101e-07
    113    120   2   0.50000     0.1372000    0.0600000   2.494471e-04  1.671101e-07
    113    121   2   0.50000     0.1372000    0.0600000   2.494471e-04  1.671101e-07
    113    122   2   0.50000     0.1372000    0.0600000   2.494471e-04  1.671101e-07
    117    120   2   0.50000    -0.1358000    0.0600000   4.875282e-04  2.994032e-07
    117    121   2   0.50000    -0.1358000    0.0600000   4.875282e-04  2.994032e-07
    117    122   2   0.50000    -0.1358000    0.0600000   4.875282e-04  2.994032e-07
    118    120   2   0.50000    -0.1358000    0.0600000   4.875282e-04  2.994032e-07
    118    121   2   0.50000    -0.1358000    0.0600000   4.875282e-04  2.994032e-07
    118    122   2   0.50000    -0.1358000    0.0600000   4.875282e-04  2.994032e-07

[ angles ]
; ai  aj  ak
      2      1      3   1    110.4220    669.4400
      2      1      4   1    109.8000    577.3920
      2      1      7   1    107.6000    426.7680
      3      1      4   1    109.8000    577.3920
      3      1      7   1    107.6000    426.7680
      4      1      7   1    110.7000    313.8000
      1      4      5   1    110.7000    313.8000
      1      4      6   1    110.7000    313.8000
      1      4      8   1    112.7000    488.2728
      5      4      6   1    107.8000    276.1440
      5      4      8   1    110.7000    313.8000
      6      4      8   1    110.7000    313.8000
      4      8      9   1    109.8000    577.3920
      4      8     10   1    109.8000    577.3920
      4      8     11   1    112.7000    488.2728
      9      8     10   1    110.4220    669.4400
      9      8     11   1    109.8000    577.3920
     10      8     11   1    109.8000    577.3920
      8     11     12   1    110.7000    313.8000
      8     11     13   1    110.7000    313.8000
      8     11     14   1    112.7000    488.2728
     12     11     13   1    107.8000    276.1440
     12     11     14   1    110.7000    313.8000
     13     11     14   1    110.7000    313.8000
     11     14     15   1    109.8000    577.3920
     11     14     16   1    109.8000    577.3920
     11     14     17   1    112.7000    488.2728
     15     14     16   1    110.4220    669.4400
     15     14     17   1    109.8000    577.3920
     16     14     17   1    109.8000    577.3920
     14     17     18   1    110.7000    313.8000
     14     17     19   1    110.7000    313.8000
     14     17     20   1    112.7000    488.2728
     18     17     19   1    107.8000    276.1440
     18     17     20   1    110.7000    313.8000
     19     17     20   1    110.7000    313.8000
     17     20     21   1    109.8000    577.3920
     17     20     22   1    109.8000    577.3920
     17     20     23   1    112.7000    488.2728
     21     20     22   1    110.4220    669.4400
     21     20     23   1    109.8000    577.3920
     22     20     23   1    109.8000    577.3920
     20     23     24   1    110.7000    313.8000
     20     23     25   1    110.7000    313.8000
     20     23     26   1    112.7000    488.2728
     24     23     25   1    107.8000    276.1440
     24     23     26   1    110.7000    313.8000
     25     23     26   1    110.7000    313.8000
     23     26     27   1    109.8000    577.3920
     23     26     28   1    109.8000    577.3920
     23     26     29   1    112.7000    488.2728
     27     26     28   1    110.4220    669.4400
     27     26     29   1    109.8000    577.3920
     28     26     29   1    109.8000    577.3920
     26     29     30   1    110.7000    313.8000
     26     29     31   1    110.7000    313.8000
     26     29     32   1    112.7000    488.2728
     30     29     31   1    107.8000    276.1440
     30     29     32   1    110.7000    313.8000
     31     29     32   1    110.7000    313.8000
     29     32     33   1    109.8000    577.3920
     29     32     34   1    109.8000    577.3920
     29     32     35   1    112.7000    488.2728
     33     32     34   1    110.4220    669.4400
     33     32     35   1    109.8000    577.3920
     34     32     35   1    109.8000    577.3920
     32     35     36   1    110.7000    313.8000
     32     35     37   1    110.7000    313.8000
     32     35     38   1    112.7000    488.2728
     36     35     37   1    107.8000    276.1440
     36     35     38   1    110.7000    313.8000
     37     35     38   1    110.7000    313.8000
     35     38     39   1    109.8000    577.3920
     35     38     40   1    109.8000    577.3920
     35     38     41   1    112.7000    488.2728
     39     38     40   1    110.4220    669.4400
     39     38     41   1    109.8000    577.3920
     40     38     41   1    109.8000    577.3920
     38     41     42   1    110.7000    313.8000
     38     41     43   1    110.7000    313.8000
     38     41     44   1    112.7000    488.2728
     42     41     43   1    107.8000    276.1440
     42     41     44   1    110.7000    313.8000
     43     41     44   1    110.7000    313.8000
     41     44     45   1    109.8000    577.3920
     41     44     46   1    109.8000    577.3920
     41     44     47   1    112.7000    488.2728
     45     44     46   1    110.4220    669.4400
     45     44     47   1    109.8000    577.3920
     46     44     47   1    109.8000    577.3920
     44     47     48   1    110.7000    313.8000
     44     47     49   1    110.7000    313.8000
     44     47     50   1    112.7000    488.2728
     48     47     49   1    107.8000    276.1440
     48     47     50   1    110.7000    313.8000
     49     47     50   1    110.7000    313.8000
     47     50     51   1    109.8000    577.3920
     47     50     52   1    109.8000    577.3920
     47     50     53   1    112.7000    488.2728
     51     50     52   1    110.4220    669.4400
     51     50     53   1    109.8000    577.3920
     52     50     53   1    109.8000    577.3920
     50     53     54   1    110.7000    313.8000
     50     53     55   1    110.7000    313.8000
     50     53     56   1    112.7000    488.2728
     54     53     55   1    107.8000    276.1440
     54     53     56   1    110.7000    313.8000
     55     53     56   1    110.7000    313.8000
     53     56     57   1    109.8000    577.3920
     53     56     58   1    109.8000    577.3920
     53     56     59   1    112.7000    488.2728
     57     56     58   1    110.4220    669.4400
     57     56     59   1    109.8000    577.3920
     58     56     59   1    109.8000    577.3920
     56     59     60   1    110.7000    313.8000
     56     59     61   1    110.7000    313.8000
     56     59     62   1    112.7000    488.2728
     60     59     61   1    107.8000    276.1440
     60     59     62   1    110.7000    313.8000
     61     59     62   1    110.7000    313.8000
     59     62     63   1    109.8000    577.3920
     59     62     64   1    109.8000    577.3920
     59     62     65   1    112.7000    488.2728
     63     62     64   1    110.4220    669.4400
     63     62     65   1    109.8000    577.3920
     64     62     65   1    109.8000    577.3920
     62     65     66   1    110.7000    313.8000
     62     65     67   1    110.7000    313.8000
     62     65     68   1    112.7000    488.2728
     66     65     67   1    107.8000    276.1440
     66     65     68   1    110.7000    313.8000
     67     65     68   1    110.7000    313.8000
     65     68     69   1    109.8000    577.3920
     65     68     70   1    109.8000    577.3920
     65     68     71   1    112.7000    488.2728
     69     68     70   1    110.4220    669.4400
     69     68     71   1    109.8000    577.3920
     70     68     71   1    109.8000    577.3920
     68     71     72   1    110.7000    313.8000
     68     71     73   1    110.7000    313.8000
     68     71     74   1    112.7000    488.2728
     72     71     73   1    107.8000    276.1440
     72     71     74   1    110.7000    313.8000
     73     71     74   1    110.7000    313.8000
     71     74     75   1    109.8000    577.3920
     71     74     76   1    109.8000    577.3920
     71     74     77   1    112.7000    488.2728
     75     74     76   1    110.4220    669.4400
     75     74     77   1    109.8000    577.3920
     76     74     77   1    109.8000    577.3920
     74     77     78   1    110.7000    313.8000
     74     77     79   1    110.7000    313.8000
     74     77     80   1    112.7000    488.2728
     78     77     79   1    107.8000    276.1440
     78     77     80   1    110.7000    313.8000
     79     77     80   1    110.7000    313.8000
     77     80     81   1    109.8000    577.3920
     77     80     82   1    109.8000    577.3920
     77     80     83   1    112.7000    488.2728
     81     80     82   1    110.4220    669.4400
     81     80     83   1    109.8000    577.3920
     82     80     83   1    109.8000    577.3920
     80     83     84   1    110.7000    313.8000
     80     83     85   1    110.7000    313.8000
     80     83     86   1    112.7000    488.2728
     84     83     85   1    107.8000    276.1440
     84     83     86   1    110.7000    313.8000
     85     83     86   1    110.7000    313.8000
     83     86     87   1    109.8000    577.3920
     83     86     88   1    109.8000    577.3920
     83     86     89   1    112.7000    488.2728
     87     86     88   1    110.4220    669.4400
     87     86     89   1    109.8000    577.3920
     88     86     89   1    109.8000    577.3920
     86     89     90   1    110.7000    313.8000
     86     89     91   1    110.7000    313.8000
     86     89     92   1    112.7000    488.2728
     90     89     91   1    107.8000    276.1440
     90     89     92   1    110.7000    313.8000
     91     89     92   1    110.7000    313.8000
     89     92     93   1    109.8000    577.3920
     89     92     94   1    109.8000    577.3920
     89     92     95   1    112.7000    488.2728
     93     92     94   1    110.4220    669.4400
     93     92     95   1    109.8000    577.3920
     94     92     95   1    109.8000    577.3920
     92     95     96   1    110.7000    313.8000
     92     95     97   1    110.7000    313.8000
     92     95     98   1    112.7000    488.2728
     96     95     97   1    107.8000    276.1440
     96     95     98   1    110.7000    313.8000
     97     95     98   1    110.7000    313.8000
     95     98     99   1    109.8000    577.3920
     95     98    100   1    109.8000    577.3920
     95     98    101   1    112.7000    488.2728
     99     98    100   1    110.4220    669.4400
     99     98    101   1    109.8000    577.3920
    100     98    101   1    109.8000    577.3920
     98    101    102   1    110.7000    313.8000
     98    101    103   1    110.7000    313.8000
     98    101    104   1    112.7000    488.2728
    102    101    103   1    107.8000    276.1440
    102    101    104   1    110.7000    313.8000
    103    101    104   1    110.7000    313.8000
    101    104    105   1    109.8000    577.3920
    101    104    106   1    109.8000    577.3920
    101    104    107   1    112.7000    488.2728
    105    104    106   1    110.4220    669.4400
    105    104    107   1    109.8000    577.3920
    106    104    107   1    109.8000    577.3920
    104    107    108   1    110.7000    313.8000
    104    107    109   1    110.7000    313.8000
    104    107    110   1    112.7000    488.2728
    108    107    109   1    107.8000    276.1440
    108    107    110   1    110.7000    313.8000
    109    107    110   1    110.7000    313.8000
    107    110    111   1    109.8000    577.3920
    107    110    112   1    109.8000    577.3920
    107    110    113   1    112.7000    488.2728
    111    110    112   1    110.4220    669.4400
    111    110    113   1    109.8000    577.3920
    112    110    113   1    109.8000    577.3920
    110    113    114   1    110.7000    313.8000
    110    113    115   1    110.7000    313.8000
    110    113    116   1    112.7000    488.2728
    114    113    115   1    107.8000    276.1440
    114    113    116   1    110.7000    313.8000
    115    113    116   1    110.7000    313.8000
    113    116    117   1    109.8000    577.3920
    113    116    118   1    109.8000    577.3920
    113    116    119   1    112.7000    488.2728
    117    116    118   1    110.4220    669.4400
    117    116    119   1    109.8000    577.3920
    118    116    119   1    109.8000    577.3920
    116    119    120   1    110.7000    313.8000
    116    119    121   1    110.7000    313.8000
    116    119    122   1    110.7000    313.8000
    120    119    121   1    107.8000    276.1440
    120    119    122   1    107.8000    276.1440
    121    119    122   1    107.8000    276.1440

[ dihedrals ]
; Proper dihedrals
      2      1      4      5   5     0.00000     0.00000     2.25936  0.0
      2      1      4      6   5     0.00000     0.00000     2.25936  0.0
      2      1      4      8   5     2.97901    -1.22591     2.79073  0.0
      3      1      4      5   5     0.00000     0.00000     2.25936  0.0
      3      1      4      6   5     0.00000     0.00000     2.25936  0.0
      3      1      4      8   5     2.97901    -1.22591     2.79073  0.0
      7      1      4      5   5     0.00000     0.00000     1.25520  0.0
      7      1      4      6   5     0.00000     0.00000     1.25520  0.0
      7      1      4      8   5     0.00000     0.00000     1.25520  0.0
      1      4      8      9   5     2.97901    -1.22591     2.79073  0.0
      1      4      8     10   5     2.97901    -1.22591     2.79073  0.0
      1      4      8     11   5     4.74884    -0.63178     1.67360  0.0
      5      4      8      9   5     0.00000     0.00000     2.25936  0.0
      5      4      8     10   5     0.00000     0.00000     2.25936  0.0
      5      4      8     11   5     0.00000     0.00000     1.25520  0.0
      6      4      8      9   5     0.00000     0.00000     2.25936  0.0
      6      4      8     10   5     0.00000     0.00000     2.25936  0.0
      6      4      8     11   5     0.00000     0.00000     1.25520  0.0
      4      8     11     12   5     0.00000     0.00000     1.25520  0.0
      4      8     11     13   5     0.00000     0.00000     1.25520  0.0
      4      8     11     14   5     4.74884    -0.63178     1.67360  0.0
      9      8     11     12   5     0.00000     0.00000     2.25936  0.0
      9      8     11     13   5     0.00000     0.00000     2.25936  0.0
      9      8     11     14   5     2.97901    -1.22591     2.79073  0.0
     10      8     11     12   5     0.00000     0.00000     2.25936  0.0
     10      8     11     13   5     0.00000     0.00000     2.25936  0.0
     10      8     11     14   5     2.97901    -1.22591     2.79073  0.0
      8     11     14     15   5     2.97901    -1.22591     2.79073  0.0
      8     11     14     16   5     2.97901    -1.22591     2.79073  0.0
      8     11     14     17   5     4.74884    -0.63178     1.67360  0.0
     12     11     14     15   5     0.00000     0.00000     2.25936  0.0
     12     11     14     16   5     0.00000     0.00000     2.25936  0.0
     12     11     14     17   5     0.00000     0.00000     1.25520  0.0
     13     11     14     15   5     0.00000     0.00000     2.25936  0.0
     13     11     14     16   5     0.00000     0.00000     2.25936  0.0
     13     11     14     17   5     0.00000     0.00000     1.25520  0.0
     11     14     17     18   5     0.00000     0.00000     1.25520  0.0
     11     14     17     19   5     0.00000     0.00000     1.25520  0.0
     11     14     17     20   5     4.74884    -0.63178     1.67360  0.0
     15     14     17     18   5     0.00000     0.00000     2.25936  0.0
     15     14     17     19   5     0.00000     0.00000     2.25936  0.0
     15     14     17     20   5     2.97901    -1.22591     2.79073  0.0
     16     14     17     18   5     0.00000     0.00000     2.25936  0.0
     16     14     17     19   5     0.00000     0.00000     2.25936  0.0
     16     14     17     20   5     2.97901    -1.22591     2.79073  0.0
     14     17     20     21   5     2.97901    -1.22591     2.79073  0.0
     14     17     20     22   5     2.97901    -1.22591     2.79073  0.0
     14     17     20     23   5     4.74884    -0.63178     1.67360  0.0
     18     17     20     21   5     0.00000     0.00000     2.25936  0.0
     18     17     20     22   5     0.00000     0.00000     2.25936  0.0
     18     17     20     23   5     0.00000     0.00000     1.25520  0.0
     19     17     20     21   5     0.00000     0.00000     2.25936  0.0
     19     17     20     22   5     0.00000     0.00000     2.25936  0.0
     19     17     20     23   5     0.00000     0.00000     1.25520  0.0
     17     20     23     24   5     0.00000     0.00000     1.25520  0.0
     17     20     23     25   5     0.00000     0.00000     1.25520  0.0
     17     20     23     26   5     4.74884    -0.63178     1.67360  0.0
     21     20     23     24   5     0.00000     0.00000     2.25936  0.0
     21     20     23     25   5     0.00000     0.00000     2.25936  0.0
     21     20     23     26   5     2.97901    -1.22591     2.79073  0.0
     22     20     23     24   5     0.00000     0.00000     2.25936  0.0
     22     20     23     25   5     0.00000     0.00000     2.25936  0.0
     22     20     23     26   5     2.97901    -1.22591     2.79073  0.0
     20     23     26     27   5     2.97901    -1.22591     2.79073  0.0
     20     23     26     28   5     2.97901    -1.22591     2.79073  0.0
     20     23     26     29   5     4.74884    -0.63178     1.67360  0.0
     24     23     26     27   5     0.00000     0.00000     2.25936  0.0
     24     23     26     28   5     0.00000     0.00000     2.25936  0.0
     24     23     26     29   5     0.00000     0.00000     1.25520  0.0
     25     23     26     27   5     0.00000     0.00000     2.25936  0.0
     25     23     26     28   5     0.00000     0.00000     2.25936  0.0
     25     23     26     29   5     0.00000     0.00000     1.25520  0.0
     23     26     29     30   5     0.00000     0.00000     1.25520  0.0
     23     26     29     31   5     0.00000     0.00000     1.25520  0.0
     23     26     29     32   5     4.74884    -0.63178     1.67360  0.0
     27     26     29     30   5     0.00000     0.00000     2.25936  0.0
     27     26     29     31   5     0.00000     0.00000     2.25936  0.0
     27     26     29     32   5     2.97901    -1.22591     2.79073  0.0
     28     26     29     30   5     0.00000     0.00000     2.25936  0.0
     28     26     29     31   5     0.00000     0.00000     2.25936  0.0
     28     26     29     32   5     2.97901    -1.22591     2.79073  0.0
     26     29     32     33   5     2.97901    -1.22591     2.79073  0.0
     26     29     32     34   5     2.97901    -1.22591     2.79073  0.0
     26     29     32     35   5     4.74884    -0.63178     1.67360  0.0
     30     29     32     33   5     0.00000     0.00000     2.25936  0.0
     30     29     32     34   5     0.00000     0.00000     2.25936  0.0
     30     29     32     35   5     0.00000     0.00000     1.25520  0.0
     31     29     32     33   5     0.00000     0.00000     2.25936  0.0
     31     29     32     34   5     0.00000     0.00000     2.25936  0.0
     31     29     32     35   5     0.00000     0.00000     1.25520  0.0
     29     32     35     36   5     0.00000     0.00000     1.25520  0.0
     29     32     35     37   5     0.00000     0.00000     1.25520  0.0
     29     32     35     38   5     4.74884    -0.63178     1.67360  0.0
     33     32     35     36   5     0.00000     0.00000     2.25936  0.0
     33     32     35     37   5     0.00000     0.00000     2.25936  0.0
     33     32     35     38   5     2.97901    -1.22591     2.79073  0.0
     34     32     35     36   5     0.00000     0.00000     2.25936  0.0
     34     32     35     37   5     0.00000     0.00000     2.25936  0.0
     34     32     35     38   5     2.97901    -1.22591     2.79073  0.0
     32     35     38     39   5     2.97901    -1.22591     2.79073  0.0
     32     35     38     40   5     2.97901    -1.22591     2.79073  0.0
     32     35     38     41   5     4.74884    -0.63178     1.67360  0.0
     36     35     38     39   5     0.00000     0.00000     2.25936  0.0
     36     35     38     40   5     0.00000     0.00000     2.25936  0.0
     36     35     38     41   5     0.00000     0.00000     1.25520  0.0
     37     35     38     39   5     0.00000     0.00000     2.25936  0.0
     37     35     38     40   5     0.00000     0.00000     2.25936  0.0
     37     35     38     41   5     0.00000     0.00000     1.25520  0.0
     35     38     41     42   5     0.00000     0.00000     1.25520  0.0
     35     38     41     43   5     0.00000     0.00000     1.25520  0.0
     35     38     41     44   5     4.74884    -0.63178     1.67360  0.0
     39     38     41     42   5     0.00000     0.00000     2.25936  0.0
     39     38     41     43   5     0.00000     0.00000     2.25936  0.0
     39     38     41     44   5     2.97901    -1.22591     2.79073  0.0
     40     38     41     42   5     0.00000     0.00000     2.25936  0.0
     40     38     41     43   5     0.00000     0.00000     2.25936  0.0
     40     38     41     44   5     2.97901    -1.22591     2.79073  0.0
     38     41     44     45   5     2.97901    -1.22591     2.79073  0.0
     38     41     44     46   5     2.97901    -1.22591     2.79073  0.0
     38     41     44     47   5     4.74884    -0.63178     1.67360  0.0
     42     41     44     45   5     0.00000     0.00000     2.25936  0.0
     42     41     44     46   5     0.00000     0.00000     2.25936  0.0
     42     41     44     47   5     0.00000     0.00000     1.25520  0.0
     43     41     44     45   5     0.00000     0.00000     2.25936  0.0
     43     41     44     46   5     0.00000     0.00000     2.25936  0.0
     43     41     44     47   5     0.00000     0.00000     1.25520  0.0
     41     44     47     48   5     0.00000     0.00000     1.25520  0.0
     41     44     47     49   5     0.00000     0.00000     1.25520  0.0
     41     44     47     50   5     4.74884    -0.63178     1.67360  0.0
     45     44     47     48   5     0.00000     0.00000     2.25936  0.0
     45     44     47     49   5     0.00000     0.00000     2.25936  0.0
     45     44     47     50   5     2.97901    -1.22591     2.79073  0.0
     46     44     47     48   5     0.00000     0.00000     2.25936  0.0
     46     44     47     49   5     0.00000     0.00000     2.25936  0.0
     46     44     47     50   5     2.97901    -1.22591     2.79073  0.0
     44     47     50     51   5     2.97901    -1.22591     2.79073  0.0
     44     47     50     52   5     2.97901    -1.22591     2.79073  0.0
     44     47     50     53   5     4.74884    -0.63178     1.67360  0.0
     48     47     50     51   5     0.00000     0.00000     2.25936  0.0
     48     47     50     52   5     0.00000     0.00000     2.25936  0.0
     48     47     50     53   5     0.00000     0.00000     1.25520  0.0
     49     47     50     51   5     0.00000     0.00000     2.25936  0.0
     49     47     50     52   5     0.00000     0.00000     2.25936  0.0
     49     47     50     53   5     0.00000     0.00000     1.25520  0.0
     47     50     53     54   5     0.00000     0.00000     1.25520  0.0
     47     50     53     55   5     0.00000     0.00000     1.25520  0.0
     47     50     53     56   5     4.74884    -0.63178     1.67360  0.0
     51     50     53     54   5     0.00000     0.00000     2.25936  0.0
     51     50     53     55   5     0.00000     0.00000     2.25936  0.0
     51     50     53     56   5     2.97901    -1.22591     2.79073  0.0
     52     50     53     54   5     0.00000     0.00000     2.25936  0.0
     52     50     53     55   5     0.00000     0.00000     2.25936  0.0
     52     50     53     56   5     2.97901    -1.22591     2.79073  0.0
     50     53     56     57   5     2.97901    -1.22591     2.79073  0.0
     50     53     56     58   5     2.97901    -1.22591     2.79073  0.0
     50     53     56     59   5     4.74884    -0.63178     1.67360  0.0
     54     53     56     57   5     0.00000     0.00000     2.25936  0.0
     54     53     56     58   5     0.00000     0.00000     2.25936  0.0
     54     53     56     59   5     0.00000     0.00000     1.25520  0.0
     55     53     56     57   5     0.00000     0.00000     2.25936  0.0
     55     53     56     58   5     0.00000     0.00000     2.25936  0.0
     55     53     56     59   5     0.00000     0.00000     1.25520  0.0
     53     56     59     60   5     0.00000     0.00000     1.25520  0.0
     53     56     59     61   5     0.00000     0.00000     1.25520  0.0
     53     56     59     62   5     4.74884    -0.63178     1.67360  0.0
     57     56     59     60   5     0.00000     0.00000     2.25936  0.0
     57     56     59     61   5     0.00000     0.00000     2.25936  0.0
     57     56     59     62   5     2.97901    -1.22591     2.79073  0.0
     58     56     59     60   5     0.00000     0.00000     2.25936  0.0
     58     56     59     61   5     0.00000     0.00000     2.25936  0.0
     58     56     59     62   5     2.97901    -1.22591     2.79073  0.0
     56     59     62     63   5     2.97901    -1.22591     2.79073  0.0
     56     59     62     64   5     2.97901    -1.22591     2.79073  0.0
     56     59     62     65   5     4.74884    -0.63178     1.67360  0.0
     60     59     62     63   5     0.00000     0.00000     2.25936  0.0
     60     59     62     64   5     0.00000     0.00000     2.25936  0.0
     60     59     62     65   5     0.00000     0.00000     1.25520  0.0
     61     59     62     63   5     0.00000     0.00000     2.25936  0.0
     61     59     62     64   5     0.00000     0.00000     2.25936  0.0
     61     59     62     65   5     0.00000     0.00000     1.25520  0.0
     59     62     65     66   5     0.00000     0.00000     1.25520  0.0
     59     62     65     67   5     0.00000     0.00000     1.25520  0.0
     59     62     65     68   5     4.74884    -0.63178     1.67360  0.0
     63     62     65     66   5     0.00000     0.00000     2.25936  0.0
     63     62     65     67   5     0.00000     0.00000     2.25936  0.0
     63     62     65     68   5     2.97901    -1.22591     2.79073  0.0
     64     62     65     66   5     0.00000     0.00000     2.25936  0.0
     64     62     65     67   5     0.00000     0.00000     2.25936  0.0
     64     62     65     68   5     2.97901    -1.22591     2.79073  0.0
     62     65     68     69   5     2.97901    -1.22591     2.79073  0.0
     62     65     68     70   5     2.97901    -1.22591     2.79073  0.0
     62     65     68     71   5     4.74884    -0.63178     1.67360  0.0
     66     65     68     69   5     0.00000     0.00000     2.25936  0.0
     66     65     68     70   5     0.00000     0.00000     2.25936  0.0
     66     65     68     71   5     0.00000     0.00000     1.25520  0.0
     67     65     68     69   5     0.00000     0.00000     2.25936  0.0
     67     65     68     70   5     0.00000     0.00000     2.25936  0.0
     67     65     68     71   5     0.00000     0.00000     1.25520  0.0
     65     68     71     72   5     0.00000     0.00000     1.25520  0.0
     65     68     71     73   5     0.00000     0.00000     1.25520  0.0
     65     68     71     74   5     4.74884    -0.63178     1.67360  0.0
     69     68     71     72   5     0.00000     0.00000     2.25936  0.0
     69     68     71     73   5     0.00000     0.00000     2.25936  0.0
     69     68     71     74   5     2.97901    -1.22591     2.79073  0.0
     70     68     71     72   5     0.00000     0.00000     2.25936  0.0
     70     68     71     73   5     0.00000     0.00000     2.25936  0.0
     70     68     71     74   5     2.97901    -1.22591     2.79073  0.0
     68     71     74     75   5     2.97901    -1.22591     2.79073  0.0
     68     71     74     76   5     2.97901    -1.22591     2.79073  0.0
     68     71     74     77   5     4.74884    -0.63178     1.67360  0.0
     72     71     74     75   5     0.00000     0.00000     2.25936  0.0
     72     71     74     76   5     0.00000     0.00000     2.25936  0.0
     72     71     74     77   5     0.00000     0.00000     1.25520  0.0
     73     71     74     75   5     0.00000     0.00000     2.25936  0.0
     73     71     74     76   5     0.00000     0.00000     2.25936  0.0
     73     71     74     77   5     0.00000     0.00000     1.25520  0.0
     71     74     77     78   5     0.00000     0.00000     1.25520  0.0
     71     74     77     79   5     0.00000     0.00000     1.25520  0.0
     71     74     77     80   5     4.74884    -0.63178     1.67360  0.0
     75     74     77     78   5     0.00000     0.00000     2.25936  0.0
     75     74     77     79   5     0.00000     0.00000     2.25936  0.0
     75     74     77     80   5     2.97901    -1.22591     2.79073  0.0
     76     74     77     78   5     0.00000     0.00000     2.25936  0.0
     76     74     77     79   5     0.00000     0.00000     2.25936  0.0
     76     74     77     80   5     2.97901    -1.22591     2.79073  0.0
     74     77     80     81   5     2.97901    -1.22591     2.79073  0.0
     74     77     80     82   5     2.97901    -1.22591     2.79073  0.0
     74     77     80     83   5     4.74884    -0.63178     1.67360  0.0
     78     77     80     81   5     0.00000     0.00000     2.25936  0.0
     78     77     80     82   5     0.00000     0.00000     2.25936  0.0
     78     77     80     83   5     0.00000     0.00000     1.25520  0.0
     79     77     80     81   5     0.00000     0.00000     2.25936  0.0
     79     77     80     82   5     0.00000     0.00000     2.25936  0.0
     79     77     80     83   5     0.00000     0.00000     1.25520  0.0
     77     80     83     84   5     0.00000     0.00000     1.25520  0.0
     77     80     83     85   5     0.00000     0.00000     1.25520  0.0
     77     80     83     86   5     4.74884    -0.63178     1.67360  0.0
     81     80     83     84   5     0.00000     0.00000     2.25936  0.0
     81     80     83     85   5     0.00000     0.00000     2.25936  0.0
     81     80     83     86   5     2.97901    -1.22591     2.79073  0.0
     82     80     83     84   5     0.00000     0.00000     2.25936  0.0
     82     80     83     85   5     0.00000     0.00000     2.25936  0.0
     82     80     83     86   5     2.97901    -1.22591     2.79073  0.0
     80     83     86     87   5     2.97901    -1.22591     2.79073  0.0
     80     83     86     88   5     2.97901    -1.22591     2.79073  0.0
     80     83     86     89   5     4.74884    -0.63178     1.67360  0.0
     84     83     86     87   5     0.00000     0.00000     2.25936  0.0
     84     83     86     88   5     0.00000     0.00000     2.25936  0.0
     84     83     86     89   5     0.00000     0.00000     1.25520  0.0
     85     83     86     87   5     0.00000     0.00000     2.25936  0.0
     85     83     86     88   5     0.00000     0.00000     2.25936  0.0
     85     83     86     89   5     0.00000     0.00000     1.25520  0.0
     83     86     89     90   5     0.00000     0.00000     1.25520  0.0
     83     86     89     91   5     0.00000     0.00000     1.25520  0.0
     83     86     89     92   5     4.74884    -0.63178     1.67360  0.0
     87     86     89     90   5     0.00000     0.00000     2.25936  0.0
     87     86     89     91   5     0.00000     0.00000     2.25936  0.0
     87     86     89     92   5     2.97901    -1.22591     2.79073  0.0
     88     86     89     90   5     0.00000     0.00000     2.25936  0.0
     88     86     89     91   5     0.00000     0.00000     2.25936  0.0
     88     86     89     92   5     2.97901    -1.22591     2.79073  0.0
     86     89     92     93   5     2.97901    -1.22591     2.79073  0.0
     86     89     92     94   5     2.97901    -1.22591     2.79073  0.0
     86     89     92     95   5     4.74884    -0.63178     1.67360  0.0
     90     89     92     93   5     0.00000     0.00000     2.25936  0.0
     90     89     92     94   5     0.00000     0.00000     2.25936  0.0
     90     89     92     95   5     0.00000     0.00000     1.25520  0.0
     91     89     92     93   5     0.00000     0.00000     2.25936  0.0
     91     89     92     94   5     0.00000     0.00000     2.25936  0.0
     91     89     92     95   5     0.00000     0.00000     1.25520  0.0
     89     92     95     96   5     0.00000     0.00000     1.25520  0.0
     89     92     95     97   5     0.00000     0.00000     1.25520  0.0
     89     92     95     98   5     4.74884    -0.63178     1.67360  0.0
     93     92     95     96   5     0.00000     0.00000     2.25936  0.0
     93     92     95     97   5     0.00000     0.00000     2.25936  0.0
     93     92     95     98   5     2.97901    -1.22591     2.79073  0.0
     94     92     95     96   5     0.00000     0.00000     2.25936  0.0
     94     92     95     97   5     0.00000     0.00000     2.25936  0.0
     94     92     95     98   5     2.97901    -1.22591     2.79073  0.0
     92     95     98     99   5     2.97901    -1.22591     2.79073  0.0
     92     95     98    100   5     2.97901    -1.22591     2.79073  0.0
     92     95     98    101   5     4.74884    -0.63178     1.67360  0.0
     96     95     98     99   5     0.00000     0.00000     2.25936  0.0
     96     95     98    100   5     0.00000     0.00000     2.25936  0.0
     96     95     98    101   5     0.00000     0.00000     1.25520  0.0
     97     95     98     99   5     0.00000     0.00000     2.25936  0.0
     97     95     98    100   5     0.00000     0.00000     2.25936  0.0
     97     95     98    101   5     0.00000     0.00000     1.25520  0.0
     95     98    101    102   5     0.00000     0.00000     1.25520  0.0
     95     98    101    103   5     0.00000     0.00000     1.25520  0.0
     95     98    101    104   5     4.74884    -0.63178     1.67360  0.0
     99     98    101    102   5     0.00000     0.00000     2.25936  0.0
     99     98    101    103   5     0.00000     0.00000     2.25936  0.0
     99     98    101    104   5     2.97901    -1.22591     2.79073  0.0
    100     98    101    102   5     0.00000     0.00000     2.25936  0.0
    100     98    101    103   5     0.00000     0.00000     2.25936  0.0
    100     98    101    104   5     2.97901    -1.22591     2.79073  0.0
     98    101    104    105   5     2.97901    -1.22591     2.79073  0.0
     98    101    104    106   5     2.97901    -1.22591     2.79073  0.0
     98    101    104    107   5     4.74884    -0.63178     1.67360  0.0
    102    101    104    105   5     0.00000     0.00000     2.25936  0.0
    102    101    104    106   5     0.00000     0.00000     2.25936  0.0
    102    101    104    107   5     0.00000     0.00000     1.25520  0.0
    103    101    104    105   5     0.00000     0.00000     2.25936  0.0
    103    101    104    106   5     0.00000     0.00000     2.25936  0.0
    103    101    104    107   5     0.00000     0.00000     1.25520  0.0
    101    104    107    108   5     0.00000     0.00000     1.25520  0.0
    101    104    107    109   5     0.00000     0.00000     1.25520  0.0
    101    104    107    110   5     4.74884    -0.63178     1.67360  0.0
    105    104    107    108   5     0.00000     0.00000     2.25936  0.0
    105    104    107    109   5     0.00000     0.00000     2.25936  0.0
    105    104    107    110   5     2.97901    -1.22591     2.79073  0.0
    106    104    107    108   5     0.00000     0.00000     2.25936  0.0
    106    104    107    109   5     0.00000     0.00000     2.25936  0.0
    106    104    107    110   5     2.97901    -1.22591     2.79073  0.0
    104    107    110    111   5     2.97901    -1.22591     2.79073  0.0
    104    107    110    112   5     2.97901    -1.22591     2.79073  0.0
    104    107    110    113   5     4.74884    -0.63178     1.67360  0.0
    108    107    110    111   5     0.00000     0.00000     2.25936  0.0
    108    107    110    112   5     0.00000     0.00000     2.25936  0.0
    108    107    110    113   5     0.00000     0.00000     1.25520  0.0
    109    107    110    111   5     0.00000     0.00000     2.25936  0.0
    109    107    110    112   5     0.00000     0.00000     2.25936  0.0
    109    107    110    113   5     0.00000     0.00000     1.25520  0.0
    107    110    113    114   5     0.00000     0.00000     1.25520  0.0
    107    110    113    115   5     0.00000     0.00000     1.25520  0.0
    107    110    113    116   5     4.74884    -0.63178     1.67360  0.0
    111    110    113    114   5     0.00000     0.00000     2.25936  0.0
    111    110    113    115   5     0.00000     0.00000     2.25936  0.0
    111    110    113    116   5     2.97901    -1.22591     2.79073  0.0
    112    110    113    114   5     0.00000     0.00000     2.25936  0.0
    112    110    113    115   5     0.00000     0.00000     2.25936  0.0
    112    110    113    116   5     2.97901    -1.22591     2.79073  0.0
    110    113    116    117   5     2.97901    -1.22591     2.79073  0.0
    110    113    116    118   5     2.97901    -1.22591     2.79073  0.0
    110    113    116    119   5     4.74884    -0.63178     1.67360  0.0
    114    113    116    117   5     0.00000     0.00000     2.25936  0.0
    114    113    116    118   5     0.00000     0.00000     2.25936  0.0
    114    113    116    119   5     0.00000     0.00000     1.25520  0.0
    115    113    116    117   5     0.00000     0.00000     2.25936  0.0
    115    113    116    118   5     0.00000     0.00000     2.25936  0.0
    115    113    116    119   5     0.00000     0.00000     1.25520  0.0
    113    116    119    120   5     0.00000     0.00000     1.25520  0.0
    113    116    119    121   5     0.00000     0.00000     1.25520  0.0
    113    116    119    122   5     0.00000     0.00000     1.25520  0.0
    117    116    119    120   5     0.00000     0.00000     2.25936  0.0
    117    116    119    121   5     0.00000     0.00000     2.25936  0.0
    117    116    119    122   5     0.00000     0.00000     2.25936  0.0
    118    116    119    120   5     0.00000     0.00000     2.25936  0.0
    118    116    119    121   5     0.00000     0.00000     2.25936  0.0
    118    116    119    122   5     0.00000     0.00000     2.25936  0.0
