Control file title. For DL_FIELD 4.10
49898
    1MOL     C1    1   0.498   1.349   4.166 -0.1908 -0.2364 -0.2058
    1MOL    Cl2    2   0.454   1.403   4.012  0.2566 -0.0761  0.2000
    1MOL    Cl3    3   0.594   1.197   4.142  0.0855  0.0626 -0.2184
    1MOL     C4    4   0.582   1.454   4.246 -0.6651 -0.6537  0.4885
    1MOL     H5    5   0.660   1.491   4.180 -0.9439 -0.7381  0.1133
    1MOL     H6    6   0.523   1.545   4.255  2.6170  1.7146 -0.8043
    1MOL     H7    7   0.404   1.327   4.217 -0.3827 -0.9853 -0.8734
    1MOL     C8    8   0.639   1.433   4.385  0.0254  0.4337 -0.1234
    1MOL    Cl9    9   0.763   1.306   4.394 -0.1655  0.0375 -0.1982
    1MOL   Cl10   10   0.505   1.397   4.493 -0.0248  0.1150  0.1624
    1MOL    C11   11   0.691   1.567   4.445 -0.3435 -0.0555 -0.0904
    1MOL    H12   12   0.601   1.624   4.468 -1.5991 -0.3817 -3.8264
    1MOL    H13   13   0.727   1.539   4.544  0.3960 -0.9714 -0.6095
    1MOL    C14   14   0.780   1.664   4.359  0.3486  0.1352 -0.4775
    1MOL   Cl15   15   0.675   1.757   4.254  0.0255 -0.0389  0.0335
    1MOL   Cl16   16   0.907   1.583   4.256  0.2282 -0.0017 -0.3903
    1MOL    C17   17   0.862   1.765   4.440 -0.1375 -0.2000  0.2681
    1MOL    H18   18   0.932   1.809   4.369 -0.4418  0.3761  0.3198
    1MOL    H19   19   0.793   1.845   4.470  1.4044  1.0607  0.5631
    1MOL    C20   20   0.939   1.724   4.564 -0.1222  0.2739  0.1836
    1MOL   Cl21   21   1.017   1.564   4.550 -0.1081 -0.3468  0.3426
    1MOL   Cl22   22   0.824   1.711   4.699 -0.0659 -0.0616  0.0126
    1MOL    C23   23   1.059   1.821   4.594  0.4361 -0.2410  0.0199
    1MOL    H24   24   1.123   1.782   4.674  0.9540 -0.8848 -0.7006
    1MOL    H25   25   1.129   1.824   4.511  1.7089  1.8010  1.1256
    1MOL    C26   26   1.020   1.968   4.638 -0.0294 -0.1513  0.2998
    1MOL   Cl27   27   0.930   1.956   4.790 -0.0670 -0.0168 -0.1528
    1MOL   Cl28   28   0.916   2.056   4.521 -0.1174 -0.0815  0.1241
    1MOL    C29   29   1.150   2.052   4.665  0.1097  0.0915  0.1251
    1MOL    H30   30   1.121   2.130   4.735  0.4244  1.5233 -1.3090
    1MOL    H31   31   1.207   1.984   4.728 -0.5515  0.2347  0.8878
    1MOL    C32   32   1.231   2.130   4.551  0.0290 -0.1832 -0.4673
    1MOL   Cl33   33   1.141   2.283   4.507 -0.3251  0.2136  0.3146
    1MOL   Cl34   34   1.256   2.039   4.393 -0.2896 -0.2984 -0.0132
    1MOL    C35   35   1.365   2.194   4.596 -0.0020  0.2123 -0.0726
    1MOL    H36   36   1.403   2.230   4.500 -2.0259  1.5094 -0.4366
    1MOL    H37   37   1.348   2.287   4.649  2.0588  1.7479 -2.0143
    1MOL    C38   38   1.459   2.102   4.682  0.3545  0.6683  0.2216
    1MOL   Cl39   39   1.448   1.929   4.640 -0.0665  0.0735 -0.1375
    1MOL   Cl40   40   1.413   2.114   4.852 -0.1078  0.1969  0.4366
    1MOL    C41   41   1.609   2.153   4.667  0.2276 -0.5988 -0.4606
    1MOL    H42   42   1.672   2.076   4.712 -0.5663  0.6574  3.0146
    1MOL    H43   43   1.636   2.151   4.562 -0.0711 -2.5006 -0.5086
    1MOL    C44   44   1.661   2.295   4.726 -1.0062 -0.1486  0.2303
    1MOL   Cl45   45   1.557   2.433   4.659  0.2280  0.1690  0.2760
    1MOL   Cl46   46   1.830   2.323   4.655  0.1825 -0.1497  0.1578
    1MOL    C47   47   1.674   2.310   4.882 -0.1626 -0.7456 -0.3772
    1MOL    H48   48   1.700   2.415   4.885 -1.2112 -0.4870 -0.3927
    1MOL    H49   49   1.577   2.314   4.930 -0.0521 -2.7311  0.0697
    1MOL    C50   50   1.776   2.224   4.970  0.1599 -0.1433 -0.1680
    1MOL   Cl51   51   1.732   2.048   4.955 -0.0563 -0.0192  0.3142
    1MOL   Cl52   52   1.743   2.274   5.143 -0.2404 -0.3420 -0.0115
    1MOL    C53   53   1.929   2.250   4.952 -0.2982  0.9936  0.1382
    1MOL    H54   54   1.953   2.192   4.863 -2.7326  2.6313 -1.6677
    1MOL    H55   55   1.948   2.350   4.915  0.8604  1.4343  1.8442
    1MOL    C56   56   2.037   2.211   5.053 -0.1479 -0.0802 -0.6305
    1MOL   Cl57   57   2.194   2.210   4.964  0.3541 -0.1067  0.1078
    1MOL   Cl58   58   2.012   2.039   5.101  0.2465 -0.2018 -0.0391
    1MOL    C59   59   2.058   2.294   5.185  0.5399  0.5840 -0.1422
    1MOL    H60   60   1.968   2.274   5.243  0.9274 -0.3423  0.1372
    1MOL    H61   61   2.143   2.246   5.232  1.0783  0.7551 -0.9375
    1MOL    C62   62   2.079   2.451   5.181  0.1877 -0.9313  0.6537
    1MOL   Cl63   63   1.953   2.534   5.081 -0.0968  0.2125  0.3127
    1MOL   Cl64   64   2.235   2.482   5.097 -0.0553  0.2885 -0.3680
    1MOL    C65   65   2.073   2.508   5.327  0.0086  0.0679 -0.6161
    1MOL    H66   66   2.035   2.611   5.323  3.0571  1.3157  0.9809
    1MOL    H67   67   1.997   2.454   5.382 -0.5323 -0.0797 -1.4941
    1MOL    C68   68   2.200   2.522   5.407  0.2124 -0.4942  0.2120
    1MOL   Cl69   69   2.295   2.374   5.404  0.1712  0.2976  0.1899
    1MOL   Cl70   70   2.146   2.540   5.574  0.2343 -0.1076  0.3468
    1MOL    C71   71   2.299   2.647   5.373 -0.0255  0.2823 -0.0796
    1MOL    H72   72   2.355   2.660   5.466 -1.5510  0.0017  0.8904
    1MOL    H73   73   2.361   2.603   5.295  2.7273  0.3666  1.9697
    1MOL    C74   74   2.255   2.787   5.319  0.4172 -0.6234  0.6537
    1MOL   Cl75   75   2.130   2.842   5.437  0.2347 -0.3209  0.3567
    1MOL   Cl76   76   2.179   2.768   5.163  0.0732  0.0030  0.3936
    1MOL    C77   77   2.373   2.885   5.308  0.1261  0.1683  0.3954
    1MOL    H78   78   2.339   2.988   5.303  1.4116  0.5222 -1.1281
    1MOL    H79   79   2.424   2.898   5.404 -0.0234 -1.3178  0.6901
    1MOL    C80   80   2.486   2.864   5.194  0.6264 -0.4713 -0.5283
    1MOL   Cl81   81   2.570   2.717   5.202 -0.0494  0.2530 -0.0065
    1MOL   Cl82   82   2.604   2.987   5.240  0.2948 -0.1712  0.2831
    1MOL    C83   83   2.436   2.884   5.044 -0.2924 -0.3275 -0.5667
    1MOL    H84   84   2.385   2.792   5.015 -0.0725 -0.6551  0.0702
    1MOL    H85   85   2.363   2.964   5.038 -2.2747 -2.1917 -2.1189
    1MOL    C86   86   2.526   2.918   4.922  0.0701  1.1954 -0.4993
    1MOL   Cl87   87   2.584   3.086   4.952 -0.0778 -0.2160  0.2855
    1MOL   Cl88   88   2.431   2.927   4.768 -0.2792 -0.0632  0.2636
    1MOL    C89   89   2.652   2.822   4.902 -0.2726  0.0788  0.0291
    1MOL    H90   90   2.715   2.882   4.837 -2.5361 -0.8865 -3.2111
    1MOL    H91   91   2.713   2.815   4.992  0.0735 -1.6634 -0.3261
    1MOL    C92   92   2.632   2.668   4.851  0.3764 -0.0541  0.1220
    1MOL   Cl93   93   2.647   2.689   4.678  0.2603  0.3184  0.3392
    1MOL   Cl94   94   2.471   2.596   4.880  0.0870  0.0692  0.1855
    1MOL    C95   95   2.744   2.579   4.920  0.3860 -0.3190 -0.2301
    1MOL    H96   96   2.835   2.633   4.945 -0.1881 -0.9914  3.6688
    1MOL    H97   97   2.693   2.559   5.014 -0.2332 -0.2105 -0.5352
    1MOL    C98   98   2.790   2.450   4.843 -1.1172 -0.9318  0.3046
    1MOL   Cl99   99   2.897   2.504   4.716  0.2771 -0.0128 -0.0949
    1MOL  Cl100  100   2.653   2.358   4.771  0.0959 -0.1865 -0.3740
    1MOL   C101  101   2.857   2.334   4.933  0.2312  0.4593 -0.2127
    1MOL   H102  102   2.774   2.279   4.978  1.1368 -0.3703  0.5000
    1MOL   H103  103   2.900   2.266   4.860 -0.5720 -1.4458  1.0188
    1MOL   C104  104   2.973   2.366   5.041 -0.3211  0.5191 -0.0772
    1MOL  Cl105  105   2.911   2.483   5.164  0.2801 -0.0306  0.1779
    1MOL  Cl106  106   3.124   2.441   4.961 -0.3767  0.0145  0.3395
    1MOL   C107  107   3.020   2.236   5.115  0.4810  0.1065  0.6604
    1MOL   H108  108   3.093   2.180   5.057  0.1346 -1.6351  1.8474
    1MOL   H109  109   3.074   2.266   5.205 -1.4514 -0.4205  2.0264
    1MOL   C110  110   2.921   2.116   5.153  0.2116 -0.0475  0.3117
    1MOL  Cl111  111   2.870   2.006   5.019  0.1908 -0.3477  0.2936
    1MOL  Cl112  112   2.777   2.209   5.219  0.1487  0.1532 -0.1796
    1MOL   C113  113   2.983   2.032   5.275 -0.0021  0.4750 -0.4857
    1MOL   H114  114   3.089   2.008   5.267 -0.4522 -2.1943  0.9927
    1MOL   H115  115   2.997   2.105   5.354 -0.4810  1.4682 -1.3158
    1MOL   C116  116   2.923   1.903   5.332  0.0229 -0.6453 -0.0776
    1MOL  Cl117  117   2.947   1.777   5.216  0.2295  0.2434 -0.2624
    1MOL  Cl118  118   2.748   1.922   5.354 -0.4169 -0.3082 -0.1564
    1MOL   C119  119   3.004   1.869   5.461 -0.3160 -0.5475  0.6485
    1MOL   H120  120   3.111   1.851   5.451 -0.6229 -2.0647  0.0683
    1MOL   H121  121   2.989   1.951   5.532 -3.5616 -0.2170 -0.3294
    1MOL   H122  122   2.959   1.787   5.517 -1.5226 -0.9020 -0.8040
    2MOL     C1  123   8.032   0.126   6.786  0.4651 -0.2788 -0.5570
    2MOL    Cl2  124   8.163   0.181   6.680  0.2088  0.1341 -0.0855
    2MOL    Cl3  125   8.019   9.130   6.781 -0.1772  0.0347  0.5845
    2MOL     C4  126   8.067   0.171   6.932 -1.0008  0.2465  0.3496
    2MOL     H5  127   8.017   0.102   6.999  1.2894 -2.9331 -1.0747
    2MOL     H6  128   8.172   0.148   6.949 -0.9660  0.8130  0.9066
    2MOL     H7  129   7.936   0.163   6.750 -0.5805 -0.2386  2.0894
    2MOL     C8  130   8.033   0.319   6.978  0.2956  0.1711  0.7114
    2MOL    Cl9  131   7.856   0.327   6.957  0.0249 -0.2196 -0.0120
    2MOL   Cl10  132   8.102   0.452   6.872 -0.1175 -0.3748  0.3004
    2MOL    C11  133   8.039   0.348   7.132  0.8398 -0.0646 -0.0489
    2MOL    H12  134   8.013   0.454   7.143 -1.1620 -0.4255 -1.0471
    2MOL    H13  135   7.955   0.298   7.179 -0.9862  1.3621 -1.6637
    2MOL    C14  136   8.175   0.319   7.210 -1.0321  0.0839  0.5897
    2MOL   Cl15  137   8.199   0.143   7.230  0.0973  0.1423  0.0899
    2MOL   Cl16  138   8.143   0.382   7.379  0.2851  0.0301 -0.2586
    2MOL    C17  139   8.296   0.402   7.141  0.5438  0.0106 -0.1056
    2MOL    H18  140   8.315   0.346   7.049 -0.2771  0.4364 -0.5401
    2MOL    H19  141   8.258   0.499   7.109 -1.2062 -0.0442  1.7431
    2MOL    C20  142   8.425   0.447   7.213  0.0636  0.3076  0.3153
    2MOL   Cl21  143   8.387   0.581   7.325 -0.0528  0.0816  0.0043
    2MOL   Cl22  144   8.542   0.526   7.102  0.2020  0.2052 -0.0219
    2MOL    C23  145   8.511   0.342   7.290 -0.7051  0.0287 -0.2046
    2MOL    H24  146   8.569   0.396   7.364 -1.7586  1.8714 -0.7018
    2MOL    H25  147   8.431   0.293   7.345  0.3878 -0.7856  0.6792
    2MOL    C26  148   8.595   0.238   7.223  0.0643 -0.0612  0.0627
    2MOL   Cl27  149   8.509   0.162   7.090 -0.0156  0.1177 -0.0240
    2MOL   Cl28  150   8.611   0.117   7.349 -0.0611  0.2019 -0.0298
    2MOL    C29  151   8.737   0.288   7.177  0.3962 -1.0595  0.1270
    2MOL    H30  152   8.721   0.349   7.089  0.2846 -1.4641 -0.1319
    2MOL    H31  153   8.764   0.370   7.245 -2.9430 -1.4654  2.0723
    2MOL    C32  154   8.865   0.208   7.141 -0.5012 -0.0489 -0.4955
    2MOL   Cl33  155   8.992   0.323   7.090 -0.2131  0.3360 -0.0810
    2MOL   Cl34  156   8.818   0.114   6.998 -0.6441 -0.2206 -0.2531
    2MOL    C35  157   8.914   0.116   7.253  0.2436 -0.3086  0.5440
    2MOL    H36  158   8.870   0.155   7.344 -2.7980 -0.9252 -0.5993
    2MOL    H37  159   8.881   0.014   7.238 -0.1193 -0.1585  0.2963
    2MOL    C38  160   9.065   0.096   7.273  0.0722  0.5343 -0.7748
    2MOL   Cl39  161   9.062   9.173   7.421  0.2628  0.3080 -0.1676
    2MOL   Cl40  162   9.135   0.246   7.334 -0.3059 -0.0761  0.0845
    2MOL    C41  163   9.140   0.027   7.151  0.8062  0.4672  0.7404
    2MOL    H42  164   9.077   9.121   7.127  1.8101 -0.6496  2.0059
    2MOL    H43  165   9.120   0.090   7.064  0.0775 -0.1031  0.4841
    2MOL    C44  166   0.113   9.167   7.160 -0.0410 -0.8565  0.1979
    2MOL   Cl45  167   0.170   9.137   6.996 -0.2977  0.3746  0.1512
    2MOL   Cl46  168   0.128   9.020   7.262  0.6454  0.4800  0.2306
    2MOL    C47  169   0.210   0.096   7.221 -0.0261 -0.1121 -0.5308
    2MOL    H48  170   0.180   0.189   7.174  1.5971  1.0351  0.6737
    2MOL    H49  171   0.186   0.106   7.327 -2.2911  0.1294 -1.0339
    2MOL    C50  172   0.366   0.086   7.216  0.5455 -1.4966  0.3765
    2MOL   Cl51  173   0.422   0.231   7.316  0.1904  0.1256 -0.1396
    2MOL   Cl52  174   0.416   0.128   7.050 -0.2111  0.1485 -0.2366
    2MOL    C53  175   0.421   9.129   7.271 -0.6062 -0.7502  0.2004
    2MOL    H54  176   0.394   9.126   7.376 -3.3595 -0.0061 -0.4547
    2MOL    H55  177   0.378   9.046   7.214  0.4748 -0.4734 -1.0667
    2MOL    C56  178   0.574   9.090   7.257  0.5395 -0.0236  0.3395
    2MOL   Cl57  179   0.688   0.047   7.308  0.3738 -0.0223 -0.1218
    2MOL   Cl58  180   0.617   9.060   7.092 -0.2036  0.2400 -0.1830
    2MOL    C59  181   0.608   8.957   7.335  0.7021 -0.2545  0.4034
    2MOL    H60  182   0.714   8.945   7.312  0.7951 -0.7103  1.0766
    2MOL    H61  183   0.597   8.976   7.442 -1.3376  0.1060  0.1515
    2MOL    C62  184   0.543   8.820   7.308 -0.5296  0.1862  0.3569
    2MOL   Cl63  185   0.386   8.828   7.386 -0.1328  0.2621 -0.0612
    2MOL   Cl64  186   0.648   8.714   7.399 -0.1709  0.0095  0.0913
    2MOL    C65  187   0.520   8.778   7.167 -0.3966 -0.3647  0.2964
    2MOL    H66  188   0.431   8.715   7.163 -0.8853  0.0635  3.1571
    2MOL    H67  189   0.484   8.860   7.105  0.2867 -0.8656 -0.7796
    2MOL    C68  190   0.634   8.701   7.092  0.2026  0.0465  0.4324
    2MOL   Cl69  191   0.794   8.787   7.082 -0.0258 -0.1814  0.0816
    2MOL   Cl70  192   0.570   8.713   6.926  0.0212  0.1439  0.0582
    2MOL    C71  193   0.671   8.549   7.123  0.2227 -0.2832  0.9065
    2MOL    H72  194   0.739   8.514   7.045 -0.9488  3.1856 -1.8382
    2MOL    H73  195   0.718   8.543   7.221 -1.3281 -0.5223  1.6481
    2MOL    C74  196   0.560   8.437   7.118  0.1170  0.4873 -0.4143
    2MOL   Cl75  197   0.514   8.421   6.950  0.2226  0.0311  0.2201
    2MOL   Cl76  198   0.421   8.467   7.223 -0.0918  0.4542  0.4159
    2MOL    C77  199   0.624   8.306   7.172 -0.7024 -0.0879  0.0267
    2MOL    H78  200   0.702   8.284   7.099 -1.2515  1.1289 -0.9388
    2MOL    H79  201   0.693   8.332   7.253 -1.1173  0.5999  0.1591
    2MOL    C80  202   0.549   8.172   7.203  0.9343 -1.1012  0.2143
    2MOL   Cl81  203   0.485   8.173   7.376  0.3958  0.1604  0.2350
    2MOL   Cl82  204   0.682   8.052   7.195 -0.1734 -0.1501 -0.0288
    2MOL    C83  205   0.443   8.141   7.092  1.0717 -0.0480  0.2184
    2MOL    H84  206   0.363   8.207   7.126  0.9034 -1.7167  3.2287
    2MOL    H85  207   0.475   8.177   6.994  3.2293 -0.2526  0.8304
    2MOL    C86  208   0.385   7.995   7.069 -0.4327  0.2457  0.1724
    2MOL   Cl87  209   0.378   7.887   7.214 -0.5879  0.1385 -0.0096
    2MOL   Cl88  210   0.500   7.908   6.959 -0.3121  0.1508  0.3510
    2MOL    C89  211   0.243   8.003   6.980 -0.0475 -0.2306  0.1850
    2MOL    H90  212   0.277   8.032   6.881 -0.1595  1.3599  0.5955
    2MOL    H91  213   0.211   7.900   6.966 -0.9508 -0.1356  1.3773
    2MOL    C92  214   0.124   8.097   7.016  0.6227 -0.3228 -0.5494
    2MOL   Cl93  215   0.167   8.255   6.955 -0.0853 -0.0577 -0.0698
    2MOL   Cl94  216   0.100   8.109   7.189  0.4404 -0.3618  0.3078
    2MOL    C95  217   9.177   8.046   6.947 -0.1312 -0.5534 -0.1271
    2MOL    H96  218   9.111   8.126   6.914 -2.1837 -0.5491  3.7099
    2MOL    H97  219   0.022   8.016   6.845 -0.9474 -1.3585 -0.1017
    2MOL    C98  220   9.086   7.937   7.003 -0.4274  0.0500  0.1921
    2MOL   Cl99  221   9.177   7.789   7.049  0.2892 -0.1227 -0.3788
    2MOL  Cl100  222   8.979   7.877   6.863  0.2540  0.0779 -0.3348
    2MOL   C101  223   9.004   7.966   7.139  0.0432  0.1829  0.2161
    2MOL   H102  224   8.947   7.878   7.167 -1.3313  1.0351  0.1589
    2MOL   H103  225   9.067   7.985   7.226  0.5685 -1.2123  0.1411
    2MOL   C104  226   8.902   8.082   7.147  0.0553  0.0060 -0.0927
    2MOL  Cl105  227   8.755   8.044   7.049  0.4316 -0.0971  0.1439
    2MOL  Cl106  228   8.968   8.242   7.094 -0.4647 -0.1729  0.0678
    2MOL   C107  229   8.849   8.117   7.294  0.5834  0.4285 -0.2444
    2MOL   H108  230   8.920   8.177   7.352 -0.0891  3.2016 -2.2024
    2MOL   H109  231   8.772   8.193   7.281 -0.0410  0.0301  1.0759
    2MOL   C110  232   8.807   8.012   7.399 -0.3272  0.0593 -0.1149
    2MOL  Cl111  233   8.947   7.931   7.471 -0.0559  0.1426  0.0677
    2MOL  Cl112  234   8.727   7.879   7.321  0.2594  0.0763 -0.0648
    2MOL   C113  235   8.703   8.052   7.511  0.2672  0.1529 -0.1095
    2MOL   H114  236   8.602   8.075   7.477 -0.0476 -0.6475  0.2759
    2MOL   H115  237   8.675   7.956   7.553  0.5414 -0.6299 -1.6753
    2MOL   C116  238   8.743   8.156   7.625 -0.1439  0.1611  0.1093
    2MOL  Cl117  239   8.608   8.160   7.743 -0.1185  0.1830  0.3260
    2MOL  Cl118  240   8.748   8.318   7.554 -0.3615  0.1009 -0.1645
    2MOL   C119  241   8.881   8.142   7.686 -0.5555  0.5462  0.1446
    2MOL   H120  242   8.891   8.211   7.770 -0.3182 -0.0188  0.5786
    2MOL   H121  243   8.905   8.043   7.722 -0.3583  0.4785 -0.1729
    2MOL   H122  244   8.950   8.171   7.606 -0.4265  1.3620  0.5477
    3MOL     C1  245   3.061   0.654   3.024  0.5876 -0.1075 -0.0245
    3MOL    Cl2  246   2.906   0.704   3.089  0.0312 -0.0454  0.3628
    3MOL    Cl3  247   3.175   0.650   3.167  0.0899  0.6436 -0.2352
    3MOL     C4  248   3.041   0.511   2.969 -0.4376 -0.7242 -0.1296
    3MOL     H5  249   3.012   0.442   3.049 -1.1576 -0.3573 -0.0745
    3MOL     H6  250   2.964   0.507   2.893  0.7621  1.3645 -1.4958
    3MOL     H7  251   3.086   0.725   2.946  1.1846 -0.6463 -0.3276
    3MOL     C8  252   3.162   0.454   2.881 -0.7448  0.6131  0.5438
    3MOL    Cl9  253   3.183   0.578   2.743  0.0803  0.0646 -0.0652
    3MOL   Cl10  254   3.101   0.304   2.803  0.0932 -0.5293  0.6975
    3MOL    C11  255   3.301   0.435   2.954  0.5910 -0.3542  0.1434
    3MOL    H12  256   3.326   0.539   2.977 -1.2663  0.1376 -0.0095
    3MOL    H13  257   3.274   0.391   3.050 -1.3901 -1.8183 -1.0607
    3MOL    C14  258   3.420   0.368   2.891  0.0588 -0.2175 -0.6866
    3MOL   Cl15  259   3.559   0.432   2.969  0.0670 -0.0511  0.1281
    3MOL   Cl16  260   3.432   0.397   2.713 -0.0893 -0.2355 -0.1842
    3MOL    C17  261   3.411   0.213   2.914  0.3537 -0.0636  0.3057
    3MOL    H18  262   3.425   0.200   3.021  1.5191  1.0566  0.2988
    3MOL    H19  263   3.308   0.178   2.902  0.6755 -0.9986  0.2575
    3MOL    C20  264   3.495   0.113   2.823 -0.0735  0.5633 -0.3771
    3MOL   Cl21  265   3.665   0.174   2.792 -0.5392  0.1096  0.0898
    3MOL   Cl22  266   3.431   0.079   2.652 -0.1095  0.4619 -0.1470
    3MOL    C23  267   3.502   9.157   2.891 -0.1011  0.4138 -0.8672
    3MOL    H24  268   3.571   9.100   2.829  0.3122  0.0567 -0.0981
    3MOL    H25  269   3.573   9.172   2.973  1.5780  0.3921 -2.2877
    3MOL    C26  270   3.388   9.076   2.950  0.1188  0.6124  0.2061
    3MOL   Cl27  271   3.260   9.073   2.828 -0.4179  0.3312  0.4632
    3MOL   Cl28  272   3.320   9.141   3.098 -0.2597 -0.2502  0.3697
    3MOL    C29  273   3.415   8.918   2.966 -0.3198 -0.5024  0.5186
    3MOL    H30  274   3.318   8.875   2.989 -1.2786  1.5353  0.3564
    3MOL    H31  275   3.451   8.885   2.869 -0.5788 -2.0569  0.9406
    3MOL    C32  276   3.521   8.868   3.064 -0.1539  0.0382  0.1794
    3MOL   Cl33  277   3.501   8.938   3.225  0.4230  0.1597 -0.2976
    3MOL   Cl34  278   3.688   8.911   2.997 -0.0012 -0.0624  0.1755
    3MOL    C35  279   3.520   8.710   3.098  0.7164 -0.3945 -0.0607
    3MOL    H36  280   3.616   8.678   3.138  1.1393  2.2832  1.2296
    3MOL    H37  281   3.458   8.695   3.186  0.2606 -3.0157 -0.7941
    3MOL    C38  282   3.482   8.600   3.002  0.1880 -0.2287  0.3150
    3MOL   Cl39  283   3.578   8.642   2.853 -0.5609 -0.1162  0.0968
    3MOL   Cl40  284   3.309   8.607   2.968 -0.2884 -0.0799  0.1037
    3MOL    C41  285   3.525   8.459   3.047 -0.4786  0.1570 -0.1853
    3MOL    H42  286   3.481   8.388   2.977  2.2411 -1.2469 -0.5549
    3MOL    H43  287   3.633   8.452   3.031 -0.7573 -2.0072 -1.2665
    3MOL    C44  288   3.505   8.403   3.194  0.2305 -0.3577 -0.1524
    3MOL   Cl45  289   3.345   8.446   3.268  0.4427  0.0307  0.1483
    3MOL   Cl46  290   3.636   8.483   3.305 -0.0813  0.3697 -0.1777
    3MOL    C47  291   3.525   8.253   3.206  0.1071  0.2260  0.6003
    3MOL    H48  292   3.631   8.228   3.203 -0.1746 -1.0299  0.9989
    3MOL    H49  293   3.496   8.235   3.310  3.5272 -0.2725  1.5172
    3MOL    C50  294   3.465   8.150   3.110 -0.1201 -0.1706  0.0104
    3MOL   Cl51  295   3.495   8.005   3.190  0.0269 -0.0833  0.0119
    3MOL   Cl52  296   3.575   8.162   2.963  0.2447 -0.0782  0.3127
    3MOL    C53  297   3.310   8.164   3.087 -0.0200  0.8382 -0.2066
    3MOL    H54  298   3.270   8.137   3.185 -1.1073  1.7944 -0.3668
    3MOL    H55  299   3.283   8.269   3.071 -0.8216  0.8957  1.3522
    3MOL    C56  300   3.242   8.082   2.970 -0.1321 -0.3120 -0.0120
    3MOL   Cl57  301   3.286   7.916   2.970  0.0643  0.0124 -0.2096
    3MOL   Cl58  302   3.285   8.147   2.811  0.1602  0.2600  0.1464
    3MOL    C59  303   3.086   8.093   2.978  0.0500 -0.0301 -0.1171
    3MOL    H60  304   3.048   8.035   2.894 -0.6168  0.2361 -0.0062
    3MOL    H61  305   3.067   8.025   3.060 -1.2535  0.0437 -0.3373
    3MOL    C62  306   3.006   8.224   2.992  0.2949 -0.5713  0.3787
    3MOL   Cl63  307   3.075   8.350   2.889 -0.1685  0.1313  0.3170
    3MOL   Cl64  308   3.025   8.282   3.162  0.3406  0.3069 -0.0014
    3MOL    C65  309   2.859   8.206   2.951  0.1050 -0.1578  0.1317
    3MOL    H66  310   2.797   8.291   2.981 -1.1172 -1.3450  1.0485
    3MOL    H67  311   2.857   8.216   2.842 -0.7020  2.3900  0.3464
    3MOL    C68  312   2.769   8.085   2.998 -0.3657  0.0435 -0.2305
    3MOL   Cl69  313   2.775   8.080   3.176 -0.2893 -0.2478  0.0623
    3MOL   Cl70  314   2.822   7.921   2.937 -0.6072 -0.0690 -0.0152
    3MOL    C71  315   2.617   8.103   2.967  0.5189 -0.6001  0.1290
    3MOL    H72  316   2.555   8.024   3.010  1.6783  0.4555  3.8843
    3MOL    H73  317   2.589   8.190   3.026 -3.0989 -0.9625 -0.9202
    3MOL    C74  318   2.568   8.146   2.821  0.2989 -0.2135  0.4186
    3MOL   Cl75  319   2.663   8.061   2.699 -0.2786  0.0365  0.8241
    3MOL   Cl76  320   2.605   8.320   2.795  0.1368 -0.3602 -0.0781
    3MOL    C77  321   2.423   8.104   2.791 -0.5764 -0.4817 -0.5157
    3MOL    H78  322   2.416   8.109   2.682 -0.1237 -0.9345 -0.5724
    3MOL    H79  323   2.409   7.999   2.819 -1.3128 -0.8693 -2.2842
    3MOL    C80  324   2.312   8.204   2.840 -0.0813 -0.7557  0.5425
    3MOL   Cl81  325   2.300   8.347   2.722 -0.1854 -0.4838 -0.2232
    3MOL   Cl82  326   2.337   8.253   3.002  0.2689 -0.1781 -0.2676
    3MOL    C83  327   2.166   8.141   2.856 -0.5125 -0.7578  0.8055
    3MOL    H84  328   2.168   8.078   2.945  1.4309  1.2594  2.2447
    3MOL    H85  329   2.099   8.224   2.880 -1.0665 -1.0276  0.2264
    3MOL    C86  330   2.090   8.051   2.748  0.1275  0.2892  0.1716
    3MOL   Cl87  331   2.194   7.910   2.726  0.0432 -0.0481  0.1076
    3MOL   Cl88  332   2.081   8.137   2.591 -0.1898  0.1904 -0.0816
    3MOL    C89  333   1.949   8.025   2.798  0.5732  0.5028 -0.0440
    3MOL    H90  334   1.956   7.995   2.902  0.7706 -1.6008 -0.6534
    3MOL    H91  335   1.907   8.126   2.807  0.5057  0.3479  1.5536
    3MOL    C92  336   1.856   7.928   2.747  0.2556  0.3165  0.6527
    3MOL   Cl93  337   1.695   7.938   2.824  0.1625 -0.0084  0.1676
    3MOL   Cl94  338   1.927   7.766   2.782  0.0334 -0.0744  0.2601
    3MOL    C95  339   1.831   7.922   2.597 -0.4855 -0.9920 -0.0498
    3MOL    H96  340   1.930   7.918   2.552 -0.0680  0.6157  0.7161
    3MOL    H97  341   1.794   7.821   2.580  0.2968 -1.3990  0.6158
    3MOL    C98  342   1.742   8.022   2.511 -0.6221 -0.2441 -0.8599
    3MOL   Cl99  343   1.744   8.186   2.586 -0.1816 -0.3971  0.1806
    3MOL  Cl100  344   1.574   7.962   2.506 -0.1781 -0.1775 -0.2549
    3MOL   C101  345   1.795   8.015   2.362  0.2964  0.2810  0.4557
    3MOL   H102  346   1.902   8.035   2.358  0.1663  1.3527  1.9078
    3MOL   H103  347   1.792   7.915   2.318  0.5614  0.6645 -0.4647
    3MOL   C104  348   1.749   8.113   2.242  0.2852 -0.4330  0.2178
    3MOL  Cl105  349   1.580   8.083   2.200 -0.3151  0.2067 -0.1080
    3MOL  Cl106  350   1.833   8.071   2.090  0.0909  0.1608  0.0670
    3MOL   C107  351   1.775   8.263   2.280  0.1285  0.1472 -0.6743
    3MOL   H108  352   1.690   8.294   2.340  0.8828 -0.5866  0.7981
    3MOL   H109  353   1.858   8.280   2.348  0.4621 -1.0521 -0.7733
    3MOL   C110  354   1.773   8.372   2.170  1.0280 -0.6172 -1.2871
    3MOL  Cl111  355   1.929   8.368   2.078  0.2202 -0.0045  0.0785
    3MOL  Cl112  356   1.762   8.522   2.267 -0.0621  0.0632 -0.1007
    3MOL   C113  357   1.656   8.357   2.071  0.1618 -0.2341 -0.4508
    3MOL   H114  358   1.668   8.266   2.013  0.1681  0.0874 -0.9631
    3MOL   H115  359   1.562   8.343   2.124 -0.2546  0.5372 -0.9670
    3MOL   C116  360   1.613   8.468   1.967  0.5573 -0.1061 -0.0985
    3MOL  Cl117  361   1.453   8.418   1.905  0.0596 -0.1274  0.0218
    3MOL  Cl118  362   1.735   8.457   1.842 -0.0902  0.1280  0.1872
    3MOL   C119  363   1.597   8.612   2.019 -0.4262  0.5250  0.4716
    3MOL   H120  364   1.533   8.609   2.107 -1.3999  1.3128 -0.2021
    3MOL   H121  365   1.685   8.671   2.047  0.0298 -0.4838  1.2306
    3MOL   H122  366   1.553   8.662   1.934  1.8254  1.4494 -0.1981
    4MOL     C1  367   4.244   3.148   3.578 -0.1795  0.5909 -0.0735
    4MOL    Cl2  368   4.161   3.112   3.730  0.2904  0.2447 -0.0480
    4MOL    Cl3  369   4.228   3.313   3.526 -0.2812  0.3441 -0.1269
    4MOL     C4  370   4.398   3.103   3.598  0.0344  0.4076 -0.6175
    4MOL     H5  371   4.444   3.188   3.648  0.9891 -1.6490  2.1106
    4MOL     H6  372   4.404   3.021   3.670  1.5163 -0.1116 -1.3170
    4MOL     H7  373   4.198   3.078   3.508 -0.9646  1.0174  0.0154
    4MOL     C8  374   4.481   3.068   3.469 -0.1622 -0.1794 -0.3646
    4MOL    Cl9  375   4.384   2.945   3.388 -0.2517  0.3577 -0.3534
    4MOL   Cl10  376   4.638   3.006   3.519 -0.2462 -0.0953  0.2089
    4MOL    C11  377   4.491   3.189   3.369 -0.0622  0.0508  0.0479
    4MOL    H12  378   4.394   3.188   3.320 -0.5448 -2.0034  1.0074
    4MOL    H13  379   4.499   3.286   3.419 -1.3425  0.5020 -0.6060
    4MOL    C14  380   4.594   3.205   3.255  0.5460  0.0698 -0.0329
    4MOL   Cl15  381   4.539   3.333   3.136  0.4248  0.1940 -0.2390
    4MOL   Cl16  382   4.604   3.058   3.158  0.0039 -0.2436  0.1044
    4MOL    C17  383   4.740   3.237   3.288 -0.5920 -0.4517  0.3864
    4MOL    H18  384   4.784   3.142   3.318  0.1700 -1.2581 -3.0332
    4MOL    H19  385   4.790   3.272   3.198 -0.7709 -3.0971 -0.8035
    4MOL    C20  386   4.788   3.349   3.387 -0.1124 -0.0788 -0.8013
    4MOL   Cl21  387   4.757   3.315   3.557 -0.0083 -0.0541 -0.0277
    4MOL   Cl22  388   4.700   3.502   3.347 -0.1631 -0.3177 -0.0040
    4MOL    C23  389   4.943   3.390   3.380  0.7280  0.8707 -0.0830
    4MOL    H24  390   4.964   3.449   3.291 -0.0554 -2.4985 -2.5939
    4MOL    H25  391   4.956   3.463   3.460 -1.9465  1.9609 -0.6022
    4MOL    C26  392   5.054   3.276   3.380 -0.3680 -0.0486 -0.5165
    4MOL   Cl27  393   5.057   3.196   3.223  0.2046  0.0406 -0.4074
    4MOL   Cl28  394   5.025   3.138   3.492  0.3510 -0.1841 -0.2319
    4MOL    C29  395   5.199   3.327   3.391  0.4618 -0.3663 -0.7229
    4MOL    H30  396   5.269   3.246   3.414  2.3254  1.6663  0.9448
    4MOL    H31  397   5.224   3.371   3.295 -0.7955  0.8678 -0.4966
    4MOL    C32  398   5.239   3.454   3.474  0.0375  0.1415 -0.1314
    4MOL   Cl33  399   5.191   3.432   3.644 -0.2004  0.1410 -0.0730
    4MOL   Cl34  400   5.177   3.616   3.407  0.0019  0.1459 -0.1177
    4MOL    C35  401   5.393   3.474   3.497 -0.2611  0.0376 -0.0738
    4MOL    H36  402   5.398   3.561   3.564 -0.4572  0.0356 -0.0550
    4MOL    H37  403   5.426   3.390   3.557  2.5583  0.2564 -1.2457
    4MOL    C38  404   5.496   3.504   3.375  0.3606  0.5279  0.7689
    4MOL   Cl39  405   5.459   3.659   3.299  0.0151 -0.2201  0.5409
    4MOL   Cl40  406   5.484   3.376   3.250 -0.4171  0.1313 -0.3681
    4MOL    C41  407   5.644   3.512   3.419 -0.5912 -0.0374  0.1592
    4MOL    H42  408   5.703   3.489   3.330 -1.9145  0.5032 -0.8870
    4MOL    H43  409   5.664   3.614   3.450 -0.8538 -0.1219  0.6014
    4MOL    C44  410   5.705   3.427   3.541 -0.5491 -0.4246 -0.1534
    4MOL   Cl45  411   5.636   3.495   3.685 -0.4256  0.0333 -0.1867
    4MOL   Cl46  412   5.879   3.459   3.547  0.2941  0.1988  0.5299
    4MOL    C47  413   5.670   3.276   3.526 -0.2647  0.3445 -0.2208
    4MOL    H48  414   5.573   3.272   3.477 -0.2259  1.0962 -0.3740
    4MOL    H49  415   5.739   3.241   3.450 -0.3743  0.4776 -0.3787
    4MOL    C50  416   5.663   3.185   3.653 -0.1683  0.8717 -0.3826
    4MOL   Cl51  417   5.509   3.218   3.734  0.3612 -0.4947 -0.1386
    4MOL   Cl52  418   5.800   3.216   3.763  0.0497 -0.0813  0.4366
    4MOL    C53  419   5.666   3.044   3.610  0.3775  0.8175 -0.8489
    4MOL    H54  420   5.594   3.038   3.528 -1.1339 -0.1298  0.5019
    4MOL    H55  421   5.768   3.033   3.572 -0.2898  0.5145 -2.6354
    4MOL    C56  422   5.637   2.927   3.715  0.2123 -0.3673 -0.3848
    4MOL   Cl57  423   5.463   2.910   3.724 -0.0008  0.1789  0.1561
    4MOL   Cl58  424   5.691   2.961   3.883  0.2754 -0.0964 -0.0643
    4MOL    C59  425   5.696   2.791   3.678 -0.3875  0.0414  0.2976
    4MOL    H60  426   5.799   2.783   3.712 -1.0217 -3.0491  1.6025
    4MOL    H61  427   5.649   2.720   3.745  1.8167 -0.0137  1.8114
    4MOL    C62  428   5.685   2.732   3.530  0.0372 -0.6649  0.4333
    4MOL   Cl63  429   5.777   2.834   3.406 -0.0322  0.6092 -0.3980
    4MOL   Cl64  430   5.515   2.716   3.474  0.3000  0.1660  0.1419
    4MOL    C65  431   5.760   2.598   3.529  0.3801  0.3380 -0.0181
    4MOL    H66  432   5.866   2.623   3.523 -0.3076  2.7097 -4.3910
    4MOL    H67  433   5.745   2.548   3.625  1.8641 -0.0646  0.0104
    4MOL    C68  434   5.737   2.495   3.414 -0.1908  0.5003 -0.4009
    4MOL   Cl69  435   5.590   2.416   3.466 -0.3495  0.2767  0.0720
    4MOL   Cl70  436   5.871   2.375   3.442  0.3934 -0.2392 -0.0726
    4MOL    C71  437   5.744   2.550   3.269  0.1760 -0.1892 -0.0459
    4MOL    H72  438   5.672   2.631   3.274 -1.0650 -1.3684  1.4346
    4MOL    H73  439   5.842   2.599   3.264 -0.0255  0.2594  0.3811
    4MOL    C74  440   5.721   2.472   3.138 -0.1202  0.6375 -0.8221
    4MOL   Cl75  441   5.552   2.424   3.132 -0.2925 -0.7686  0.5962
    4MOL   Cl76  442   5.828   2.324   3.139  0.0094  0.1546 -0.1513
    4MOL    C77  443   5.752   2.563   3.022 -0.0998 -0.0786 -0.3113
    4MOL    H78  444   5.669   2.634   3.023 -0.2342 -0.2456  0.2238
    4MOL    H79  445   5.834   2.625   3.056  0.0908 -1.1432  1.2376
    4MOL    C80  446   5.782   2.516   2.875  0.3496 -0.7916 -0.4448
    4MOL   Cl81  447   5.798   2.662   2.792  0.1739  0.1365  0.2325
    4MOL   Cl82  448   5.643   2.426   2.807 -0.6496  0.0018  0.1298
    4MOL    C83  449   5.912   2.437   2.856  0.6736 -0.1595  0.2330
    4MOL    H84  450   5.993   2.467   2.922  1.0701  1.0672 -0.8011
    4MOL    H85  451   5.885   2.335   2.882 -1.4952  0.5993  1.0528
    4MOL    C86  452   5.969   2.442   2.706 -0.7443  0.3969  0.3953
    4MOL   Cl87  453   6.078   2.582   2.667 -0.4692 -0.0440  0.3525
    4MOL   Cl88  454   5.849   2.442   2.582  0.0102  0.0903 -0.0794
    4MOL    C89  455   6.037   2.303   2.679 -0.5995 -0.0726 -0.5012
    4MOL    H90  456   5.962   2.224   2.681  0.1577 -0.8076 -0.4384
    4MOL    H91  457   6.073   2.314   2.577  0.2316  0.7206 -0.1216
    4MOL    C92  458   6.157   2.251   2.767 -0.7355 -0.5742 -0.3371
    4MOL   Cl93  459   6.112   2.204   2.943 -0.0256  0.1996 -0.0150
    4MOL   Cl94  460   6.289   2.372   2.784 -0.0365 -0.4454 -0.1090
    4MOL    C95  461   6.235   2.142   2.698 -0.9141 -0.2294 -0.8353
    4MOL    H96  462   6.290   2.188   2.617 -0.1930 -2.8496 -1.8818
    4MOL    H97  463   6.313   2.118   2.770 -2.6400 -2.4908  0.3768
    4MOL    C98  464   6.179   2.004   2.653  0.3030 -0.0875  0.3062
    4MOL   Cl99  465   6.036   2.000   2.542 -0.1785  0.3999 -0.4113
    4MOL  Cl100  466   6.114   1.909   2.788  0.0617 -0.3170  0.0289
    4MOL   C101  467   6.290   1.916   2.599 -0.1227  0.7935 -0.1443
    4MOL   H102  468   6.364   1.897   2.677 -2.0365  3.4015  2.4188
    4MOL   H103  469   6.241   1.821   2.577 -1.3132  1.4970 -0.5075
    4MOL   C104  470   6.378   1.958   2.476 -0.2892  0.3522 -0.6765
    4MOL  Cl105  471   6.523   2.043   2.532  0.2741 -0.2423 -0.3235
    4MOL  Cl106  472   6.297   2.075   2.368  0.1813  0.3716  0.7063
    4MOL   C107  473   6.436   1.838   2.387  0.0968  0.6309 -0.6320
    4MOL   H108  474   6.367   1.797   2.313 -0.8710  1.2821 -0.1109
    4MOL   H109  475   6.507   1.880   2.315 -0.2123  0.9466 -0.7556
    4MOL   C110  476   6.493   1.709   2.443 -0.2297  0.8290  0.2408
    4MOL  Cl111  477   6.605   1.740   2.582  0.0472 -0.0395  0.0672
    4MOL  Cl112  478   6.610   1.656   2.317  0.1738 -0.1653 -0.0541
    4MOL   C113  479   6.400   1.588   2.477 -0.6325 -0.6240  0.3925
    4MOL   H114  480   6.466   1.507   2.509 -0.7048 -1.4473 -1.4901
    4MOL   H115  481   6.344   1.612   2.567  1.0585  4.3077  0.2794
    4MOL   C116  482   6.306   1.523   2.372  0.3608 -0.1087  0.0233
    4MOL  Cl117  483   6.157   1.619   2.342 -0.2698  0.0821 -0.3312
    4MOL  Cl118  484   6.250   1.372   2.458 -0.3368  0.1550 -0.1901
    4MOL   C119  485   6.357   1.478   2.240 -0.3263  0.2831 -0.1526
    4MOL   H120  486   6.377   1.562   2.174 -0.7060 -0.4865 -1.2595
    4MOL   H121  487   6.441   1.409   2.240 -1.3597 -1.0563  1.9432
    4MOL   H122  488   6.279   1.420   2.190 -0.0347  0.1622 -0.4656
    5MOL     C1  489   6.370   4.987   2.151 -0.2043  0.6925  0.7241
    5MOL    Cl2  490   6.293   4.995   1.988 -0.0772 -0.2677  0.1206
    5MOL    Cl3  491   6.362   5.145   2.232  0.1782 -0.0577  0.2733
    5MOL     C4  492   6.307   4.875   2.237  0.1199 -0.3223  0.1285
    5MOL     H5  493   6.308   4.905   2.341 -0.0670 -1.9490  0.6103
    5MOL     H6  494   6.199   4.868   2.219  0.2187 -0.6996 -0.3400
    5MOL     H7  495   6.476   4.972   2.129 -0.7959 -1.4573 -0.9062
    5MOL     C8  496   6.357   4.729   2.223 -0.0513 -0.0635  0.3471
    5MOL    Cl9  497   6.279   4.636   2.349 -0.0168  0.1128  0.9074
    5MOL   Cl10  498   6.533   4.733   2.260 -0.1872  0.0827  0.0207
    5MOL    C11  499   6.340   4.669   2.080  0.7668 -0.3037 -0.1317
    5MOL    H12  500   6.256   4.712   2.026  0.8407  0.5495  0.4315
    5MOL    H13  501   6.431   4.700   2.029  0.4573 -1.1643 -1.2263
    5MOL    C14  502   6.315   4.514   2.067  0.2265  0.5700  0.6538
    5MOL   Cl15  503   6.344   4.477   1.891  0.0931  0.2624  0.5430
    5MOL   Cl16  504   6.146   4.480   2.089  0.2197  0.1056  0.0053
    5MOL    C17  505   6.406   4.424   2.161  0.7191  0.2207  0.2430
    5MOL    H18  506   6.498   4.477   2.183  1.0289 -0.3403  0.3175
    5MOL    H19  507   6.352   4.410   2.255  2.5802  1.2106  1.4843
    5MOL    C20  508   6.426   4.271   2.121  0.1876  0.1725  0.3570
    5MOL   Cl21  509   6.508   4.222   2.266  0.0571 -0.0280 -0.1438
    5MOL   Cl22  510   6.552   4.262   2.002 -0.4551  0.3652 -0.1504
    5MOL    C23  511   6.304   4.177   2.080 -0.2841 -0.0343 -0.3052
    5MOL    H24  512   6.221   4.203   2.146  0.2137 -1.4588  0.9144
    5MOL    H25  513   6.265   4.210   1.984 -0.2597  1.8491  0.3084
    5MOL    C26  514   6.306   4.019   2.086 -0.3466 -0.5120 -0.0871
    5MOL   Cl27  515   6.158   3.970   1.999  0.0179 -0.3946 -0.2054
    5MOL   Cl28  516   6.293   3.972   2.261  0.3115 -0.0890 -0.2317
    5MOL    C29  517   6.434   3.955   2.018 -0.4476  0.2246 -0.4911
    5MOL    H30  518   6.450   4.005   1.923 -1.2924 -0.0833 -0.8092
    5MOL    H31  519   6.512   3.986   2.087 -0.7941 -0.1701  0.0895
    5MOL    C32  520   6.454   3.805   1.988 -0.1935  0.7782 -0.4134
    5MOL   Cl33  521   6.329   3.753   1.869 -0.0638  0.3388 -0.1500
    5MOL   Cl34  522   6.418   3.719   2.136 -0.2277 -0.3087 -0.1066
    5MOL    C35  523   6.585   3.756   1.924 -0.7700  0.2221  0.0775
    5MOL    H36  524   6.571   3.649   1.913  1.6247 -0.2658  1.4970
    5MOL    H37  525   6.590   3.800   1.825 -1.4797  1.7596  0.6970
    5MOL    C38  526   6.724   3.792   1.988 -0.3543 -0.4990  0.2842
    5MOL   Cl39  527   6.748   3.966   1.988  0.2377  0.3605  0.0552
    5MOL   Cl40  528   6.848   3.722   1.880  0.5204  0.1573 -0.4599
    5MOL    C41  529   6.742   3.723   2.128  0.7381  0.1030 -0.1907
    5MOL    H42  530   6.679   3.786   2.191 -1.7757 -1.3142 -1.1940
    5MOL    H43  531   6.691   3.627   2.129  0.3958  0.2903  0.6890
    5MOL    C44  532   6.876   3.709   2.203 -0.0790  0.5158 -0.1833
    5MOL   Cl45  533   6.955   3.559   2.141 -0.0133  0.2220  0.1794
    5MOL   Cl46  534   6.832   3.664   2.368  0.5323 -0.2004 -0.1156
    5MOL    C47  535   6.980   3.831   2.189 -0.4432  0.1231 -0.3560
    5MOL    H48  536   7.085   3.806   2.174 -1.1631 -1.9286 -2.1448
    5MOL    H49  537   6.958   3.857   2.086  0.7075 -2.0319 -1.1692
    5MOL    C50  538   6.968   3.953   2.290 -0.8180 -0.2930  0.1692
    5MOL   Cl51  539   7.071   3.899   2.431 -0.1682 -0.0522 -0.0360
    5MOL   Cl52  540   6.796   3.995   2.330  0.1584  0.2188  0.0927
    5MOL    C53  541   7.040   4.073   2.226  0.0936  0.0707  0.1765
    5MOL    H54  542   7.142   4.041   2.207  0.3273  0.1161  1.2880
    5MOL    H55  543   6.997   4.082   2.126 -2.8883  1.7756  1.5239
    5MOL    C56  544   7.039   4.211   2.294 -0.3952 -0.4374  0.0575
    5MOL   Cl57  545   7.176   4.289   2.217 -0.2027  0.2068  0.0299
    5MOL   Cl58  546   7.084   4.201   2.464  0.4861 -0.1726  0.2250
    5MOL    C59  547   6.910   4.296   2.271 -0.0520  0.1328  0.1646
    5MOL    H60  548   6.900   4.289   2.163 -0.7260  0.8847  0.1722
    5MOL    H61  549   6.824   4.255   2.324  0.3608  0.7599  1.3383
    5MOL    C62  550   6.900   4.452   2.299  0.3028 -0.8323  0.4936
    5MOL   Cl63  551   6.855   4.478   2.470  0.2149 -0.1910  0.3499
    5MOL   Cl64  552   6.760   4.513   2.202  0.3479 -0.2724 -0.3448
    5MOL    C65  553   7.015   4.546   2.248 -0.0049  0.2329  0.0733
    5MOL    H66  554   7.116   4.521   2.280 -0.5754  0.9150  2.5402
    5MOL    H67  555   7.007   4.539   2.139 -1.7903  0.9616  0.1449
    5MOL    C68  556   7.025   4.697   2.298 -0.8070 -0.1693  0.3885
    5MOL   Cl69  557   7.160   4.768   2.199  0.2005  0.1468  0.2090
    5MOL   Cl70  558   7.087   4.685   2.465  0.2929  0.3127  0.1011
    5MOL    C71  559   6.899   4.784   2.299 -0.3255 -0.8205 -0.1792
    5MOL    H72  560   6.841   4.775   2.207 -0.0328  0.9108 -0.5602
    5MOL    H73  561   6.832   4.744   2.376  0.4316 -1.8878 -0.0713
    5MOL    C74  562   6.918   4.941   2.294  0.4433 -0.4536 -0.1381
    5MOL   Cl75  563   6.760   5.016   2.326 -0.2277 -0.0994 -0.0286
    5MOL   Cl76  564   6.958   4.984   2.122  0.1694  0.0098 -0.2010
    5MOL    C77  565   7.022   4.993   2.399 -0.0221  0.0877 -0.3953
    5MOL    H78  566   6.980   4.969   2.496  0.5054 -1.3558 -0.5207
    5MOL    H79  567   7.112   4.932   2.392 -1.0246 -1.7999  2.4071
    5MOL    C80  568   7.080   5.140   2.393 -0.1527 -0.4846  0.7662
    5MOL   Cl81  569   7.183   5.158   2.249  0.4409  0.0020  0.0158
    5MOL   Cl82  570   7.181   5.164   2.538 -0.1646  0.2224 -0.2080
    5MOL    C83  571   6.977   5.255   2.376 -0.6317 -0.0293 -0.6387
    5MOL    H84  572   7.026   5.339   2.328 -0.5798  0.2171 -0.1621
    5MOL    H85  573   6.911   5.224   2.296 -1.7997 -0.9009  0.6280
    5MOL    C86  574   6.891   5.320   2.493 -0.8576  0.5801 -0.6169
    5MOL   Cl87  575   6.849   5.184   2.604 -0.4833  0.3861 -0.2687
    5MOL   Cl88  576   6.747   5.388   2.409 -0.5020 -0.4873 -0.2530
    5MOL    C89  577   6.974   5.430   2.572 -0.8196 -0.1868  0.0622
    5MOL    H90  578   7.061   5.377   2.611  1.3068  3.8629  1.2052
    5MOL    H91  579   7.014   5.498   2.496 -2.1035 -0.2803 -0.7156
    5MOL    C92  580   6.916   5.513   2.696  0.0532  0.1356  0.2317
    5MOL   Cl93  581   6.782   5.624   2.640 -0.4170  0.1665  0.2242
    5MOL   Cl94  582   7.061   5.616   2.748 -0.3932  0.2717  0.4132
    5MOL    C95  583   6.876   5.425   2.822 -0.0568 -0.4713 -0.3883
    5MOL    H96  584   6.796   5.354   2.800 -1.4024  0.4209  1.4531
    5MOL    H97  585   6.968   5.377   2.856  2.1279  3.5454 -0.3460
    5MOL    C98  586   6.827   5.500   2.955  0.3987  0.1978 -0.4810
    5MOL   Cl99  587   6.697   5.626   2.937  0.4351  0.0991 -0.0726
    5MOL  Cl100  588   6.965   5.585   3.039  0.3025 -0.0527 -0.4437
    5MOL   C101  589   6.788   5.389   3.060  0.8696  0.3535  0.4142
    5MOL   H102  590   6.878   5.339   3.096  0.6475  0.4632  1.1411
    5MOL   H103  591   6.758   5.449   3.147 -0.6564  0.1564  0.0436
    5MOL   C104  592   6.673   5.283   3.028 -0.0529 -0.1802 -0.2198
    5MOL  Cl105  593   6.749   5.153   2.932  0.6831  0.2442  0.1796
    5MOL  Cl106  594   6.532   5.355   2.947 -0.0821 -0.6929 -0.0716
    5MOL   C107  595   6.628   5.200   3.150  0.1522  0.3394 -0.0104
    5MOL   H108  596   6.546   5.137   3.114 -0.1728  1.8463 -1.9462
    5MOL   H109  597   6.719   5.146   3.179 -0.0225  0.7676  1.3724
    5MOL   C110  598   6.570   5.263   3.288  0.0512 -0.4288 -0.2069
    5MOL  Cl111  599   6.701   5.363   3.369  0.0674 -0.0882 -0.0980
    5MOL  Cl112  600   6.546   5.122   3.393 -0.0019 -0.1371 -0.3339
    5MOL   C113  601   6.440   5.353   3.266  0.3171  0.2557  0.3765
    5MOL   H114  602   6.469   5.437   3.202  0.4578  0.2327  0.4081
    5MOL   H115  603   6.376   5.285   3.210 -0.8712  1.9880 -0.3992
    5MOL   C116  604   6.359   5.410   3.393  0.6175 -0.4278  0.4266
    5MOL  Cl117  605   6.277   5.283   3.484 -0.3725  0.1024  0.2394
    5MOL  Cl118  606   6.224   5.516   3.333 -0.3650  0.1184 -0.2348
    5MOL   C119  607   6.440   5.498   3.485  0.2313  0.0810 -0.0128
    5MOL   H120  608   6.527   5.446   3.525  1.2312  1.5746 -0.2102
    5MOL   H121  609   6.488   5.584   3.438  1.6195  0.7216  2.5089
    5MOL   H122  610   6.387   5.539   3.571 -0.4840 -0.6580 -0.1010
    6MOL     C1  611   6.071   5.383   5.725 -0.0964  1.2697  0.7320
    6MOL    Cl2  612   6.217   5.471   5.664  0.1000 -0.0594 -0.4485
    6MOL    Cl3  613   6.136   5.240   5.810  0.4181 -0.3724  0.1165
    6MOL     C4  614   5.993   5.466   5.831 -0.1315  0.4719  0.8008
    6MOL     H5  615   5.922   5.398   5.879  0.6131  0.3047  1.6810
    6MOL     H6  616   6.049   5.506   5.915  0.3959 -0.0785  0.7163
    6MOL     H7  617   6.009   5.346   5.643  1.9369  1.5008 -0.9440
    6MOL     C8  618   5.898   5.576   5.778 -0.7261 -0.6990 -0.4025
    6MOL    Cl9  619   5.749   5.505   5.700  0.0544 -0.1025 -0.4275
    6MOL   Cl10  620   5.975   5.679   5.655  0.4158 -0.0921  0.1346
    6MOL    C11  621   5.854   5.684   5.884  0.6027  0.6950  0.4492
    6MOL    H12  622   5.944   5.729   5.926  0.4115  1.7206 -0.2147
    6MOL    H13  623   5.800   5.767   5.838  0.9630 -0.1919 -1.6449
    6MOL    C14  624   5.764   5.653   6.009 -0.2693  0.3530  0.5563
    6MOL   Cl15  625   5.832   5.510   6.109 -0.2035  0.2328  0.1625
    6MOL   Cl16  626   5.597   5.615   5.954  0.1239  0.1465 -0.0473
    6MOL    C17  627   5.768   5.779   6.101  0.2321 -0.0141 -0.3748
    6MOL    H18  628   5.872   5.788   6.129  0.0146 -0.9604  0.7526
    6MOL    H19  629   5.749   5.864   6.035 -0.3254 -0.2517 -0.5239
    6MOL    C20  630   5.661   5.792   6.214 -0.1792 -0.6030  0.3867
    6MOL   Cl21  631   5.508   5.839   6.147  0.1031 -0.3002  0.4850
    6MOL   Cl22  632   5.713   5.927   6.318 -0.1541 -0.4742 -0.0133
    6MOL    C23  633   5.635   5.664   6.302  0.2301  0.1732 -0.0444
    6MOL    H24  634   5.537   5.683   6.348  0.9583  0.0695  1.5775
    6MOL    H25  635   5.619   5.575   6.242  0.6257 -0.4691  0.7944
    6MOL    C26  636   5.733   5.628   6.416 -0.0584 -0.3127  0.2404
    6MOL   Cl27  637   5.674   5.721   6.557  0.3742 -0.0696 -0.1061
    6MOL   Cl28  638   5.911   5.665   6.395  0.2457  0.0915  0.0133
    6MOL    C29  639   5.741   5.478   6.465  0.0705  0.4353 -0.0622
    6MOL    H30  640   5.808   5.415   6.407 -1.9345 -0.7110 -1.1850
    6MOL    H31  641   5.801   5.483   6.556  1.1367  1.7599 -0.8256
    6MOL    C32  642   5.609   5.388   6.495 -0.9221 -0.9895 -0.8301
    6MOL   Cl33  643   5.539   5.339   6.342 -0.0534 -0.0420 -0.2740
    6MOL   Cl34  644   5.488   5.480   6.579  0.1523 -0.1839  0.0140
    6MOL    C35  645   5.637   5.261   6.581  0.5112 -0.0678 -0.2966
    6MOL    H36  646   5.541   5.231   6.622  0.8073 -0.3956  0.1714
    6MOL    H37  647   5.674   5.183   6.514  3.6677  0.9213  0.2017
    6MOL    C38  648   5.728   5.269   6.712 -0.6475  0.2539 -0.0531
    6MOL   Cl39  649   5.701   5.426   6.804 -0.0712  0.2091 -0.3766
    6MOL   Cl40  650   5.897   5.262   6.652  0.3652  0.2287  0.1807
    6MOL    C41  651   5.709   5.155   6.816 -0.3480 -0.5021 -0.3400
    6MOL    H42  652   5.611   5.165   6.862 -0.3642 -1.2703 -0.1985
    6MOL    H43  653   5.700   5.066   6.753  0.3059  0.7361 -2.2117
    6MOL    C44  654   5.813   5.112   6.927 -0.0991  0.2983 -0.2974
    6MOL   Cl45  655   5.932   5.003   6.849 -0.0545 -0.2393 -0.0940
    6MOL   Cl46  656   5.728   5.024   7.064 -0.3548 -0.5602  0.0347
    6MOL    C47  657   5.889   5.239   6.980  0.0826  0.6959  0.0091
    6MOL    H48  658   5.924   5.298   6.895  1.2192 -0.2697 -0.2019
    6MOL    H49  659   5.804   5.301   7.008 -1.0193 -1.6443  2.0421
    6MOL    C50  660   6.009   5.245   7.085 -0.4542 -0.0591 -0.5241
    6MOL   Cl51  661   6.129   5.130   7.037  0.2961 -0.4868  0.1815
    6MOL   Cl52  662   5.952   5.186   7.249 -0.3271  0.3107  0.1585
    6MOL    C53  663   6.084   5.381   7.102 -0.4453  0.0217  0.0896
    6MOL    H54  664   6.177   5.351   7.150  0.5407 -0.0962 -1.8611
    6MOL    H55  665   6.107   5.400   6.997  2.3345 -2.3403  0.2201
    6MOL    C56  666   6.023   5.500   7.185 -0.2273  0.4545  0.3098
    6MOL   Cl57  667   6.056   5.469   7.360 -0.0555 -0.0711  0.4446
    6MOL   Cl58  668   5.845   5.505   7.168  0.2549 -0.3947  0.1235
    6MOL    C59  669   6.080   5.640   7.143  0.5152 -0.3297  0.2693
    6MOL    H60  670   6.029   5.675   7.054  0.8046 -3.4300 -1.1724
    6MOL    H61  671   6.056   5.705   7.228 -0.3059  0.8848 -0.8795
    6MOL    C62  672   6.237   5.656   7.119 -0.7630 -0.0374 -0.0834
    6MOL   Cl63  673   6.321   5.572   7.253  0.1320 -0.3236 -0.0023
    6MOL   Cl64  674   6.264   5.836   7.128  0.0074  0.2144 -0.1163
    6MOL    C65  675   6.309   5.601   6.993  0.2433  0.6042  0.3021
    6MOL    H66  676   6.417   5.609   7.000  0.6181 -3.4810  0.3475
    6MOL    H67  677   6.294   5.493   6.991 -0.4119  0.7108 -0.8355
    6MOL    C68  678   6.270   5.645   6.848 -1.3231 -0.0286  0.0356
    6MOL   Cl69  679   6.099   5.613   6.789  0.0901  0.3406 -0.1209
    6MOL   Cl70  680   6.372   5.531   6.747 -0.1940  0.2542 -0.2895
    6MOL    C71  681   6.326   5.789   6.818 -0.6213  0.1084 -0.1539
    6MOL    H72  682   6.252   5.860   6.854 -0.4454 -0.2717  0.9977
    6MOL    H73  683   6.420   5.805   6.871  0.2538 -0.6543 -1.4591
    6MOL    C74  684   6.342   5.846   6.673 -0.4330 -0.0741 -0.5278
    6MOL   Cl75  685   6.197   5.825   6.569 -0.0249 -0.1963 -0.0471
    6MOL   Cl76  686   6.473   5.771   6.580 -0.3332  0.1505  0.0154
    6MOL    C77  687   6.358   6.005   6.680  0.6882 -0.2046 -0.1156
    6MOL    H78  688   6.363   6.037   6.576  2.3120 -0.9208 -0.2692
    6MOL    H79  689   6.268   6.057   6.715 -0.7940 -2.8970  0.2385
    6MOL    C80  690   6.470   6.080   6.753  0.0098 -0.3429 -0.1825
    6MOL   Cl81  691   6.624   6.005   6.721  0.1615 -0.1327  0.1593
    6MOL   Cl82  692   6.456   6.077   6.932  0.0321  0.4334  0.2100
    6MOL    C83  693   6.486   6.229   6.713 -0.6749  0.3202 -0.3169
    6MOL    H84  694   6.562   6.267   6.782  0.5450  0.4019 -1.6680
    6MOL    H85  695   6.538   6.234   6.617 -3.2049 -0.0501 -1.7548
    6MOL    C86  696   6.375   6.333   6.710  0.4594 -0.3837 -0.4164
    6MOL   Cl87  697   6.274   6.341   6.857 -0.3067  0.0174  0.0415
    6MOL   Cl88  698   6.270   6.291   6.576  0.1560  0.3807 -0.1763
    6MOL    C89  699   6.434   6.479   6.683 -0.3687 -0.3974  0.4629
    6MOL    H90  700   6.464   6.516   6.781 -1.8783  2.0441  0.0660
    6MOL    H91  701   6.524   6.468   6.623 -1.4781  0.0022 -1.3321
    6MOL    C92  702   6.355   6.600   6.628  0.7557 -0.0084  0.3046
    6MOL   Cl93  703   6.317   6.568   6.456  0.6773  0.1188  0.2704
    6MOL   Cl94  704   6.478   6.734   6.653  0.2478 -0.3545 -0.0013
    6MOL    C95  705   6.224   6.626   6.703 -0.2253 -0.0134 -0.3696
    6MOL    H96  706   6.166   6.534   6.703  2.4646 -1.7504 -0.9564
    6MOL    H97  707   6.255   6.657   6.803 -1.3348 -1.2948  0.3911
    6MOL    C98  708   6.126   6.747   6.675  0.1616  0.2028  0.4923
    6MOL   Cl99  709   6.057   6.738   6.511  0.0188 -0.0693 -0.1549
    6MOL  Cl100  710   6.227   6.897   6.691  0.2793  0.0925 -0.1008
    6MOL   C101  711   6.011   6.756   6.787 -0.5896 -0.5486 -0.8245
    6MOL   H102  712   5.969   6.657   6.803  1.7224 -1.7605 -1.9340
    6MOL   H103  713   6.056   6.785   6.882 -1.2006 -1.5633 -0.2091
    6MOL   C104  714   5.897   6.858   6.767  0.2140 -0.1944 -0.1879
    6MOL  Cl105  715   5.766   6.779   6.674 -0.0402 -0.0957 -0.0577
    6MOL  Cl106  716   5.949   7.013   6.693  0.0800  0.1100  0.1075
    6MOL   C107  717   5.827   6.902   6.906 -0.0771  0.5609 -0.4343
    6MOL   H108  718   5.908   6.961   6.950 -0.1868  1.0157 -0.8327
    6MOL   H109  719   5.760   6.984   6.880  0.5002  1.1652 -0.0292
    6MOL   C110  720   5.759   6.811   7.005  0.9449  0.0596 -0.1026
    6MOL  Cl111  721   5.892   6.730   7.082  0.0476 -0.1144 -0.5728
    6MOL  Cl112  722   5.654   6.684   6.941 -0.4595  0.0171  0.4717
    6MOL   C113  723   5.681   6.900   7.117  0.3589  0.4911  0.4445
    6MOL   H114  724   5.742   6.983   7.152  2.6169 -0.3679 -1.3232
    6MOL   H115  725   5.604   6.950   7.058  0.3725  1.8238  1.5405
    6MOL   C116  726   5.602   6.834   7.233  0.9335  0.1254 -0.1721
    6MOL  Cl117  727   5.520   6.968   7.312 -0.0643 -0.3846  0.2102
    6MOL  Cl118  728   5.706   6.740   7.337 -0.1740 -0.0921 -0.2218
    6MOL   C119  729   5.487   6.745   7.189 -0.7158 -0.8028 -0.4195
    6MOL   H120  730   5.403   6.748   7.258  0.5033 -1.4127  1.1417
    6MOL   H121  731   5.436   6.790   7.104  0.7755  0.7339 -0.5444
    6MOL   H122  732   5.516   6.640   7.183 -0.0138 -0.6432  0.1072
    7MOL     C1  733   2.733   4.534   0.637  0.2822  0.7168 -0.1661
    7MOL    Cl2  734   2.844   4.630   0.538 -0.6627  0.4183  0.2762
    7MOL    Cl3  735   2.576   4.623   0.641 -0.2673 -0.3130  0.1875
    7MOL     C4  736   2.711   4.398   0.571 -0.1339  0.3942  0.4852
    7MOL     H5  737   2.614   4.369   0.611 -0.0839  1.0404  1.0769
    7MOL     H6  738   2.696   4.412   0.464  0.0258 -0.0970  0.3948
    7MOL     H7  739   2.775   4.533   0.738  0.8681  2.0452 -0.3891
    7MOL     C8  740   2.820   4.286   0.584  0.3253 -0.6440 -0.0246
    7MOL    Cl9  741   2.835   4.259   0.765  0.1830  0.1475 -0.2279
    7MOL   Cl10  742   2.978   4.345   0.523 -0.1114  0.4002  0.3045
    7MOL    C11  743   2.770   4.156   0.506 -0.1695 -0.0403  0.5782
    7MOL    H12  744   2.686   4.122   0.567 -0.6280  1.6308  0.9078
    7MOL    H13  745   2.724   4.178   0.410 -0.5382  0.4045  0.8523
    7MOL    C14  746   2.858   4.037   0.470 -0.2651  0.0601  0.8468
    7MOL   Cl15  747   2.966   4.082   0.332 -0.3950 -0.4976  0.1090
    7MOL   Cl16  748   2.742   3.909   0.419 -0.4477  0.6281  0.0432
    7MOL    C17  749   2.931   3.982   0.594  0.5053  0.2187  0.6803
    7MOL    H18  750   3.005   4.060   0.611  0.9339  0.2647 -1.2167
    7MOL    H19  751   2.865   3.996   0.679  0.8881 -0.4221  1.0842
    7MOL    C20  752   3.005   3.843   0.609  0.1360  0.2774  0.1467
    7MOL   Cl21  753   2.888   3.707   0.613 -0.0879 -0.0197  0.1831
    7MOL   Cl22  754   3.074   3.858   0.768 -0.3026  0.1008 -0.2788
    7MOL    C23  755   3.115   3.832   0.500  0.1143 -0.6815  0.0501
    7MOL    H24  756   3.064   3.845   0.405  0.2657  0.2790  0.0929
    7MOL    H25  757   3.185   3.915   0.510  0.1404 -0.6387 -0.4460
    7MOL    C26  758   3.192   3.696   0.473  0.3330  0.2296 -0.3695
    7MOL   Cl27  759   3.101   3.585   0.377 -0.1734 -0.0381  0.2153
    7MOL   Cl28  760   3.239   3.616   0.631 -0.1121 -0.2298  0.2906
    7MOL    C29  761   3.333   3.716   0.403 -0.2378  1.0816 -0.7059
    7MOL    H30  762   3.391   3.781   0.469 -1.8006  0.3128  1.4690
    7MOL    H31  763   3.381   3.619   0.402 -1.2552  0.5475  1.0389
    7MOL    C32  764   3.344   3.760   0.251 -0.0310  0.6617  0.7896
    7MOL   Cl33  765   3.236   3.896   0.214 -0.1886 -0.0142 -0.0783
    7MOL   Cl34  766   3.289   3.621   0.149 -0.1683  0.1481 -0.2343
    7MOL    C35  767   3.492   3.791   0.218 -0.1427 -0.8192 -0.0836
    7MOL    H36  768   3.525   3.845   0.307 -1.9542  0.4786 -0.1699
    7MOL    H37  769   3.540   3.694   0.230 -0.2599 -0.4723  3.8029
    7MOL    C38  770   3.542   3.871   0.092  0.3379  0.3431  0.1112
    7MOL   Cl39  771   3.715   3.830   0.078  0.2886 -0.0721 -0.3471
    7MOL   Cl40  772   3.511   4.050   0.118 -0.6173 -0.2690 -0.4424
    7MOL    C41  773   3.465   3.822   9.144 -0.4271 -0.4743 -0.6904
    7MOL    H42  774   3.513   3.727   9.120 -1.2276 -1.4360  1.4021
    7MOL    H43  775   3.358   3.821   9.164 -0.3680  1.2243 -0.1904
    7MOL    C44  776   3.472   3.895   9.007 -0.2532  0.2533  0.4337
    7MOL   Cl45  777   3.371   4.035   9.020 -0.0204  0.1078 -0.2484
    7MOL   Cl46  778   3.392   3.781   8.893  0.1356  0.4936  0.2589
    7MOL    C47  779   3.611   3.940   8.966 -0.1712  0.0904  0.4780
    7MOL    H48  780   3.644   4.009   9.043  1.4371  0.3598 -0.4426
    7MOL    H49  781   3.677   3.854   8.979 -0.7593 -0.2274  1.4769
    7MOL    C50  782   3.644   4.014   8.832  0.2312 -0.4621  1.5760
    7MOL   Cl51  783   3.826   4.037   8.843 -0.0839 -0.2329  0.0475
    7MOL   Cl52  784   3.571   4.182   8.832  0.6543  0.0021 -0.1331
    7MOL    C53  785   3.605   3.943   8.702 -0.6147  0.0507  0.0194
    7MOL    H54  786   3.637   3.841   8.721 -0.2511  0.9242  4.8286
    7MOL    H55  787   3.498   3.935   8.685 -0.2274  2.0967 -4.0753
    7MOL    C56  788   3.653   3.982   8.558 -0.2042  0.3722 -0.1874
    7MOL   Cl57  789   3.560   3.872   8.451 -0.0433  0.8050  0.1312
    7MOL   Cl58  790   3.822   3.934   8.547  0.0650 -0.2403 -0.1028
    7MOL    C59  791   3.637   4.134   8.525 -0.0478  0.4948 -0.0163
    7MOL    H60  792   3.538   4.162   8.559 -0.6266 -1.5320 -0.0077
    7MOL    H61  793   3.704   4.195   8.585 -1.8657  1.6557  0.8701
    7MOL    C62  794   3.653   4.180   8.374  0.6421  0.5517 -0.4723
    7MOL   Cl63  795   3.514   4.123   8.280  0.2291  0.2990 -0.4097
    7MOL   Cl64  796   3.803   4.121   8.295 -0.0781 -0.2302  0.3347
    7MOL    C65  797   3.650   4.340   8.363 -0.2140 -0.0751  0.3228
    7MOL    H66  798   3.646   4.374   8.260  1.8954  1.4236  0.7151
    7MOL    H67  799   3.554   4.373   8.403  0.1063  1.3668 -0.0635
    7MOL    C68  800   3.747   4.429   8.449  0.1597  0.1990 -0.0878
    7MOL   Cl69  801   3.685   4.438   8.618  0.0436  0.5950  0.2446
    7MOL   Cl70  802   3.731   4.601   8.389 -0.0034 -0.1248 -0.3242
    7MOL    C71  803   3.899   4.379   8.445 -0.6284  0.0611  0.1692
    7MOL    H72  804   3.898   4.279   8.486  0.2300  0.1907  0.5024
    7MOL    H73  805   3.927   4.368   8.340 -0.4565  0.1461  0.2036
    7MOL    C74  806   4.025   4.448   8.518  0.2882 -0.1119 -0.4302
    7MOL   Cl75  807   4.057   4.598   8.421 -0.4467  0.4441  0.1244
    7MOL   Cl76  808   4.157   4.325   8.484 -0.5626 -0.1717 -0.0984
    7MOL    C77  809   4.012   4.489   8.667  0.4680 -0.0338 -0.2506
    7MOL    H78  810   3.940   4.571   8.666  0.9544  0.3952 -0.8716
    7MOL    H79  811   3.956   4.408   8.713  0.0346  0.2191 -0.3331
    7MOL    C80  812   4.140   4.533   8.755  0.2819 -0.5735 -0.8262
    7MOL   Cl81  813   4.217   4.677   8.691  0.0684 -0.3007 -0.2721
    7MOL   Cl82  814   4.257   4.401   8.783  0.1839  0.0326  0.0808
    7MOL    C83  815   4.093   4.580   8.901  0.5065 -0.4097 -0.3270
    7MOL    H84  816   4.182   4.579   8.965 -1.0417  0.3525  1.8884
    7MOL    H85  817   4.067   4.686   8.890 -1.4117 -0.9871 -1.5169
    7MOL    C86  818   3.985   4.500   8.985  0.0702 -0.5066 -0.3206
    7MOL   Cl87  819   4.031   4.327   8.980  0.1666 -0.6620 -0.1981
    7MOL   Cl88  820   3.821   4.513   8.910  0.0098  0.3741 -0.2069
    7MOL    C89  821   3.976   4.525   9.141  0.4578  0.0253  0.2933
    7MOL    H90  822   3.893   4.458   9.161 -0.5111  1.1252 -0.0139
    7MOL    H91  823   4.068   4.486   0.005  0.8291  1.1904  0.5579
    7MOL    C92  824   3.952   4.670   0.013 -0.7823  0.0691 -0.1682
    7MOL   Cl93  825   3.833   4.765   9.109  0.4630  0.1696 -0.1637
    7MOL   Cl94  826   4.102   4.756   9.155  0.1790 -0.1200 -0.0476
    7MOL    C95  827   3.923   4.675   0.164 -0.1520 -0.2826  0.6112
    7MOL    H96  828   4.015   4.629   0.203  1.1225  1.5898 -0.1347
    7MOL    H97  829   3.936   4.778   0.195 -3.4564  0.1901  0.5460
    7MOL    C98  830   3.809   4.603   0.244 -0.7825 -0.2991  0.1103
    7MOL   Cl99  831   3.860   4.653   0.405 -0.1827  0.3957  0.1002
    7MOL  Cl100  832   3.835   4.425   0.234 -0.0998  0.3759 -0.1109
    7MOL   C101  833   3.666   4.668   0.212 -1.0902  0.6167 -0.3799
    7MOL   H102  834   3.636   4.706   0.310 -1.7282  1.0201 -0.7294
    7MOL   H103  835   3.680   4.759   0.154 -0.6974  0.6393 -0.2467
    7MOL   C104  836   3.552   4.587   0.161  0.2211  0.6416  0.2546
    7MOL  Cl105  837   3.519   4.446   0.262 -0.3002 -0.0679 -0.6222
    7MOL  Cl106  838   3.565   4.540   9.164  0.2289 -0.3781  0.0224
    7MOL   C107  839   3.425   4.679   0.179 -0.6720 -0.3516 -0.3996
    7MOL   H108  840   3.333   4.623   0.162 -0.6415  0.1052 -2.1234
    7MOL   H109  841   3.408   4.698   0.285 -5.7638 -0.7790 -1.0256
    7MOL   C110  842   3.393   4.810   0.093 -0.1798  0.8470  0.1715
    7MOL  Cl111  843   3.506   4.937   0.131 -0.4961 -0.2248 -0.0221
    7MOL  Cl112  844   3.231   4.852   0.159 -0.0135 -0.3370 -0.0161
    7MOL   C113  845   3.385   4.792   9.116  0.8219  0.3894  0.1237
    7MOL   H114  846   3.484   4.796   9.072  2.1135 -0.9507  2.8391
    7MOL   H115  847   3.359   4.690   9.088 -1.5372  0.4267  1.9988
    7MOL   C116  848   3.291   4.885   9.025 -0.0044  0.2729  0.0646
    7MOL  Cl117  849   3.133   4.812   9.027 -0.3496  0.0349 -0.1463
    7MOL  Cl118  850   3.362   4.878   8.859 -0.1879  0.2092  0.2829
    7MOL   C119  851   3.283   5.033   9.070 -0.6910  0.1689 -0.0144
    7MOL   H120  852   3.380   5.079   9.047  0.1177 -2.0465 -1.2788
    7MOL   H121  853   3.221   5.083   8.995  1.9093  2.3792 -0.7748
    7MOL   H122  854   3.239   5.040   9.169  0.0285  0.3189  0.2951
    8MOL     C1  855   5.227   4.896   0.790  0.5571  0.1260 -0.0340
    8MOL    Cl2  856   5.407   4.871   0.828 -0.3135  0.0893  0.0509
    8MOL    Cl3  857   5.215   5.043   0.691  0.0815  0.5503 -0.2528
    8MOL     C4  858   5.156   4.783   0.718  0.1849 -0.2385  0.4256
    8MOL     H5  859   5.176   4.789   0.611 -1.3115 -1.8429  0.0288
    8MOL     H6  860   5.206   4.691   0.749  0.9130  0.3155  0.9123
    8MOL     H7  861   5.166   4.909   0.880  0.0240 -2.7710  0.0765
    8MOL     C8  862   5.005   4.770   0.750 -0.3722  0.1370 -0.8169
    8MOL    Cl9  863   4.900   4.912   0.716  0.0722 -0.1579 -0.0390
    8MOL   Cl10  864   4.985   4.726   0.923  0.2678  0.1097 -0.0954
    8MOL    C11  865   4.944   4.640   0.692  0.3232  0.0562  0.6102
    8MOL    H12  866   4.998   4.558   0.738 -1.4629 -0.4098  1.9551
    8MOL    H13  867   4.844   4.620   0.732  1.0134 -0.5592  2.0472
    8MOL    C14  868   4.960   4.597   0.540 -0.0323  0.2144  0.2450
    8MOL   Cl15  869   5.128   4.539   0.518 -0.2885 -0.1896  0.1469
    8MOL   Cl16  870   4.941   4.735   0.436 -0.2048 -0.1051  0.2806
    8MOL    C17  871   4.865   4.479   0.503  0.2957  0.8399  0.1497
    8MOL    H18  872   4.920   4.422   0.428  1.3918  0.1801  1.4363
    8MOL    H19  873   4.873   4.401   0.579 -0.5233 -1.3043 -1.8865
    8MOL    C20  874   4.710   4.486   0.463  0.1855 -0.2343 -0.6852
    8MOL   Cl21  875   4.628   4.587   0.587  0.2429 -0.0709 -0.2816
    8MOL   Cl22  876   4.638   4.323   0.485  0.4630  0.0806  0.2484
    8MOL    C23  877   4.664   4.531   0.327  0.1456 -0.2181  0.6632
    8MOL    H24  878   4.560   4.499   0.315  0.1992  0.3603 -1.5680
    8MOL    H25  879   4.651   4.640   0.324 -2.2219 -0.5177 -1.6015
    8MOL    C26  880   4.739   4.487   0.200 -0.0539  0.0167  0.2798
    8MOL   Cl27  881   4.779   4.310   0.202 -0.2413  0.2446 -0.1509
    8MOL   Cl28  882   4.888   4.573   0.179 -0.5919 -0.0333 -0.3301
    8MOL    C29  883   4.661   4.487   0.060 -0.1598 -0.2749 -0.2193
    8MOL    H30  884   4.734   4.461   9.164 -0.3613  0.6424 -0.7231
    8MOL    H31  885   4.587   4.409   0.044  0.8397 -0.7279 -2.7519
    8MOL    C32  886   4.588   4.613   0.012  0.6438 -0.1962  0.4209
    8MOL   Cl33  887   4.685   4.760   0.042  0.1841  0.2708 -0.3084
    8MOL   Cl34  888   4.427   4.626   0.093  0.2679  0.2857 -0.1044
    8MOL    C35  889   4.559   4.623   9.039 -0.4294 -0.1285  0.0656
    8MOL    H36  890   4.470   4.561   9.026  0.3812 -1.2788 -0.1972
    8MOL    H37  891   4.516   4.719   9.011 -0.3030  0.3026  1.3435
    8MOL    C38  892   4.654   4.575   8.923 -0.0920 -0.4447  0.0033
    8MOL   Cl39  893   4.638   4.395   8.912 -0.2573 -0.2401  0.0668
    8MOL   Cl40  894   4.819   4.631   8.968 -0.2693 -0.2762  0.1207
    8MOL    C41  895   4.602   4.639   8.785  0.1655  0.8315 -0.1645
    8MOL    H42  896   4.505   4.596   8.761 -0.1562  1.4584 -0.0104
    8MOL    H43  897   4.573   4.744   8.791 -1.9060  0.4842 -2.7991
    8MOL    C44  898   4.696   4.638   8.659 -0.0442  0.4498 -0.4028
    8MOL   Cl45  899   4.793   4.488   8.638 -0.2949 -0.0099  0.0751
    8MOL   Cl46  900   4.810   4.772   8.678  0.3459 -0.6086  0.1708
    8MOL    C47  901   4.600   4.670   8.533  0.1980 -0.4725  0.1913
    8MOL    H48  902   4.505   4.626   8.563 -0.9150  2.7894  1.7327
    8MOL    H49  903   4.578   4.776   8.534 -0.0826 -0.4616 -2.5320
    8MOL    C50  904   4.634   4.622   8.388  0.0593 -0.3990  0.7302
    8MOL   Cl51  905   4.506   4.685   8.273  0.3617 -0.0072 -0.1467
    8MOL   Cl52  906   4.617   4.444   8.380 -0.0356  0.2987 -0.0905
    8MOL    C53  907   4.779   4.655   8.343 -1.2621 -0.0686 -0.0029
    8MOL    H54  908   4.793   4.756   8.381 -1.2049 -0.0870  0.0261
    8MOL    H55  909   4.846   4.590   8.400 -2.0279 -1.2091 -0.3852
    8MOL    C56  910   4.827   4.656   8.200 -1.3308  0.2634  0.3556
    8MOL   Cl57  911   5.006   4.642   8.213  0.4385  0.0408  0.1752
    8MOL   Cl58  912   4.782   4.821   8.117 -0.1808  0.2616 -0.0710
    8MOL    C59  913   4.775   4.538   8.110  0.1723 -0.6983 -0.2027
    8MOL    H60  914   4.801   4.441   8.154  2.3815  0.3426  0.8878
    8MOL    H61  915   4.667   4.544   8.125  0.2126  0.2355 -0.2535
    8MOL    C62  916   4.808   4.525   7.959 -0.3728  0.3443 -0.0960
    8MOL   Cl63  917   4.987   4.522   7.938 -0.0065  0.2366  0.0389
    8MOL   Cl64  918   4.762   4.661   7.850  0.1997  0.4182 -0.2552
    8MOL    C65  919   4.762   4.383   7.901 -0.2503  0.0262 -0.4905
    8MOL    H66  920   4.782   4.385   7.793 -3.2374  0.3905 -1.1015
    8MOL    H67  921   4.826   4.309   7.950 -2.5845 -1.8141 -0.0832
    8MOL    C68  922   4.620   4.331   7.924  0.4212  0.3014  0.3649
    8MOL   Cl69  923   4.513   4.457   7.864  0.3261  0.2178 -0.6069
    8MOL   Cl70  924   4.579   4.296   8.088 -0.1897  0.2235 -0.0792
    8MOL    C71  925   4.589   4.186   7.858  0.3360  0.3926 -0.2053
    8MOL    H72  926   4.631   4.106   7.919  2.2460  0.4479 -1.4156
    8MOL    H73  927   4.481   4.176   7.865  0.4188 -0.9276 -0.7838
    8MOL    C74  928   4.638   4.151   7.716  0.3927 -0.1685  0.1273
    8MOL   Cl75  929   4.810   4.142   7.712 -0.1602  0.0327 -0.2492
    8MOL   Cl76  930   4.590   4.291   7.608  0.4080 -0.2213 -0.0557
    8MOL    C77  931   4.578   4.022   7.645  0.3203 -0.1404 -0.7452
    8MOL    H78  932   4.484   4.039   7.593  0.7595 -0.8178 -1.7809
    8MOL    H79  933   4.651   3.989   7.571  2.0401 -0.4229  1.0469
    8MOL    C80  934   4.561   3.892   7.726 -0.6162 -0.3597 -0.1070
    8MOL   Cl81  935   4.425   3.901   7.833 -0.0109  0.3862  0.0448
    8MOL   Cl82  936   4.716   3.858   7.811  0.2666 -0.0727 -0.2074
    8MOL    C83  937   4.531   3.766   7.640 -0.2492  0.1409 -0.4503
    8MOL    H84  938   4.627   3.735   7.599 -0.0107  1.7203 -1.0832
    8MOL    H85  939   4.510   3.691   7.717 -0.8305 -0.3923 -1.1164
    8MOL    C86  940   4.422   3.764   7.524 -0.3185 -0.1701  0.2160
    8MOL   Cl87  941   4.503   3.849   7.385  0.0955  0.2559 -0.1244
    8MOL   Cl88  942   4.265   3.848   7.568  0.3872  0.1680 -0.0058
    8MOL    C89  943   4.392   3.613   7.504  0.4992  0.2493 -0.0794
    8MOL    H90  944   4.485   3.556   7.502 -0.4799 -1.3711 -1.7077
    8MOL    H91  945   4.341   3.594   7.598  1.5378 -0.4284  0.3573
    8MOL    C92  946   4.304   3.548   7.385  0.1527 -0.3007 -0.3804
    8MOL   Cl93  947   4.296   3.377   7.421 -0.1322  0.0612 -0.0319
    8MOL   Cl94  948   4.400   3.587   7.238  0.2905 -0.1403 -0.0126
    8MOL    C95  949   4.160   3.592   7.382 -0.4271 -0.1157 -0.7350
    8MOL    H96  950   4.122   3.577   7.483 -0.6908  0.0558 -0.8080
    8MOL    H97  951   4.160   3.701   7.372 -0.0895 -0.1729 -1.3856
    8MOL    C98  952   4.057   3.546   7.275  0.1715 -0.1017 -0.1422
    8MOL   Cl99  953   4.043   3.365   7.283  0.1475  0.0027  0.1719
    8MOL  Cl100  954   4.110   3.575   7.106 -0.2921 -0.2246 -0.3570
    8MOL   C101  955   3.908   3.602   7.286  0.2921 -0.7212  0.3125
    8MOL   H102  956   3.862   3.569   7.193 -1.0670 -0.7743  1.0021
    8MOL   H103  957   3.861   3.568   7.379 -2.7340  2.3779 -0.0178
    8MOL   C104  958   3.872   3.750   7.297  0.9185 -0.6590  0.2591
    8MOL  Cl105  959   3.958   3.862   7.191 -0.2281 -0.1543  0.0732
    8MOL  Cl106  960   3.908   3.790   7.467 -0.0559  0.1459 -0.0745
    8MOL   C107  961   3.713   3.784   7.290  0.3634  0.4671  0.0073
    8MOL   H108  962   3.656   3.732   7.367 -1.2369  0.8049 -0.9175
    8MOL   H109  963   3.712   3.892   7.304 -2.6933  0.2997  1.4368
    8MOL   C110  964   3.629   3.748   7.168  0.0694 -0.3281 -0.3610
    8MOL  Cl111  965   3.469   3.813   7.194  0.2405 -0.4990  0.5672
    8MOL  Cl112  966   3.608   3.573   7.166 -0.7923  0.1237 -0.0006
    8MOL   C113  967   3.677   3.785   7.025 -0.2723  0.8531 -0.1504
    8MOL   H114  968   3.779   3.747   7.028 -0.1163  1.3052  0.4658
    8MOL   H115  969   3.628   3.721   6.953  0.6208  0.7175 -0.6551
    8MOL   C116  970   3.658   3.931   6.985  0.3062 -0.0682 -0.4325
    8MOL  Cl117  971   3.679   4.053   7.111  0.7715  0.0465  0.3238
    8MOL  Cl118  972   3.500   3.951   6.905  0.1431  0.1216  0.6462
    8MOL   C119  973   3.756   3.985   6.881 -0.0360  0.3961  0.4780
    8MOL   H120  974   3.858   4.000   6.916  0.9788  0.6488 -2.3987
    8MOL   H121  975   3.765   3.924   6.791 -0.0579 -0.2693  0.9227
    8MOL   H122  976   3.719   4.081   6.845 -0.8307  0.0348  0.3182
    9MOL     C1  977   0.322   6.133   0.146 -0.2898  0.1035  0.1512
    9MOL    Cl2  978   0.172   6.097   0.054 -0.0868 -0.1671 -0.3333
    9MOL    Cl3  979   0.383   6.282   0.065 -0.3021 -0.2433 -0.1850
    9MOL     C4  980   0.293   6.154   0.298 -0.4742 -0.3389  0.1161
    9MOL     H5  981   0.257   6.256   0.309 -0.9470 -0.4440 -0.4794
    9MOL     H6  982   0.209   6.093   0.330 -0.2071  0.2948  2.1036
    9MOL     H7  983   0.392   6.051   0.130 -0.7821  0.0838 -1.9506
    9MOL     C8  984   0.402   6.122   0.413 -0.5503 -0.3227 -1.0469
    9MOL    Cl9  985   0.428   5.947   0.423  0.0161  0.2556 -0.1403
    9MOL   Cl10  986   0.334   6.156   0.575 -0.0174 -0.1540 -0.1889
    9MOL    C11  987   0.543   6.188   0.404 -0.3784 -0.2483  0.0710
    9MOL    H12  988   0.599   6.116   0.463  0.4304  0.7546  0.5367
    9MOL    H13  989   0.579   6.166   0.303  0.1535  1.3071 -0.0855
    9MOL    C14  990   0.573   6.330   0.446 -0.1885  0.7245 -0.3550
    9MOL   Cl15  991   0.596   6.338   0.614 -0.0342 -0.7375 -0.2337
    9MOL   Cl16  992   0.445   6.450   0.402 -0.5180 -0.1206  0.1513
    9MOL    C17  993   0.702   6.388   0.383  0.6744  0.5640  0.6679
    9MOL    H18  994   0.678   6.401   0.277  0.9778  1.8458  0.7470
    9MOL    H19  995   0.716   6.484   0.431  1.9208  0.0309  1.3902
    9MOL    C20  996   0.838   6.314   0.386 -0.3429 -0.9878 -0.4769
    9MOL   Cl21  997   0.832   6.154   0.317 -0.2100  0.0059 -0.2258
    9MOL   Cl22  998   0.898   6.293   0.560  0.0037 -0.0841  0.1915
    9MOL    C23  999   0.951   6.383   0.300 -0.0462 -0.2198 -0.4222
    9MOL    H24 1000   1.047   6.357   0.347 -0.0778 -0.8045 -0.6791
    9MOL    H25 1001   0.948   6.344   0.198 -0.1270 -3.2427  0.6635
    9MOL    C26 1002   0.969   6.537   0.293  0.6562 -0.5905 -0.4113
    9MOL   Cl27 1003   0.943   6.598   0.457 -0.0681  0.0093  0.2441
    9MOL   Cl28 1004   0.840   6.601   0.188 -0.1504  0.0617 -0.0008
    9MOL    C29 1005   1.107   6.580   0.245  0.4353 -0.0847  0.8009
    9MOL    H30 1006   1.105   6.689   0.240 -1.5825 -0.1711 -0.9235
    9MOL    H31 1007   1.170   6.556   0.331  0.3052 -0.8904  0.6755
    9MOL    C32 1008   1.177   6.518   0.119 -0.2309  0.0751 -0.1423
    9MOL   Cl33 1009   1.071   6.534   9.154 -0.1540 -0.3811  0.0372
    9MOL   Cl34 1010   1.196   6.338   0.133 -0.1562 -0.2730 -0.3033
    9MOL    C35 1011   1.301   6.597   0.081 -0.3697  0.8006  0.5074
    9MOL    H36 1012   1.328   6.552   9.166  2.3354  1.7835  0.7619
    9MOL    H37 1013   1.268   6.695   0.047 -1.4537  0.9459  1.9171
    9MOL    C38 1014   1.418   6.615   0.175 -0.6133 -0.0481 -0.4513
    9MOL   Cl39 1015   1.474   6.465   0.257 -0.1841 -0.0989  0.2412
    9MOL   Cl40 1016   1.380   6.724   0.306 -0.0032 -0.0784  0.0874
    9MOL    C41 1017   1.547   6.659   0.101  0.9167  0.3911  0.3926
    9MOL    H42 1018   1.624   6.664   0.177  0.9425 -1.5824  0.5344
    9MOL    H43 1019   1.576   6.580   0.032 -0.2868 -0.2922  0.6555
    9MOL    C44 1020   1.568   6.790   0.014  0.1626  0.3853  1.4024
    9MOL   Cl45 1021   1.507   6.939   0.096 -0.2545 -0.0010  0.3728
    9MOL   Cl46 1022   1.470   6.779   9.049  0.2269 -0.0895  0.4104
    9MOL    C47 1023   1.714   6.804   9.144  1.0732  0.8503 -0.1964
    9MOL    H48 1024   1.733   6.739   9.059  0.2290  0.0522  0.2186
    9MOL    H49 1025   1.718   6.900   9.092 -0.3704  1.3485  0.5915
    9MOL    C50 1026   1.839   6.803   0.061 -0.6713  0.6411  0.0232
    9MOL   Cl51 1027   1.985   6.837   9.142 -0.0141 -0.5488  0.0886
    9MOL   Cl52 1028   1.862   6.635   0.130 -0.1192  0.1419 -0.1892
    9MOL    C53 1029   1.819   6.912   0.177 -0.0334  0.5506 -0.5064
    9MOL    H54 1030   1.784   7.002   0.126 -0.6188  0.6266  0.0263
    9MOL    H55 1031   1.733   6.882   0.236 -0.5359  1.3652 -0.8143
    9MOL    C56 1032   1.933   6.965   0.262 -0.4366 -0.1478 -0.3077
    9MOL   Cl57 1033   1.870   7.083   0.385  0.2979  0.1173  0.3325
    9MOL   Cl58 1034   2.034   7.070   0.161 -0.0557 -0.4168 -0.5055
    9MOL    C59 1035   1.997   6.853   0.344  0.9763 -0.4721 -0.1100
    9MOL    H60 1036   1.927   6.830   0.425  1.1845  1.6909  0.6994
    9MOL    H61 1037   2.009   6.759   0.289  0.7146  1.4206 -3.5092
    9MOL    C62 1038   2.135   6.862   0.402  0.0300  0.5637  0.2364
    9MOL   Cl63 1039   2.143   6.719   0.512  0.1041 -0.0198 -0.4555
    9MOL   Cl64 1040   2.126   7.003   0.511  0.4591 -0.0255 -0.0891
    9MOL    C65 1041   2.242   6.854   0.298 -0.0584  0.5116 -0.1391
    9MOL    H66 1042   2.248   6.753   0.257  0.6921  1.1381 -1.5886
    9MOL    H67 1043   2.219   6.925   0.219 -0.6273 -1.0490 -1.4057
    9MOL    C68 1044   2.381   6.910   0.333  0.0311  0.0220  0.4005
    9MOL   Cl69 1045   2.447   6.831   0.487  0.2158 -0.2332  0.1224
    9MOL   Cl70 1046   2.376   7.086   0.345  0.0262 -0.2423 -0.0663
    9MOL    C71 1047   2.494   6.888   0.226  0.2666 -0.2065  0.1332
    9MOL    H72 1048   2.577   6.955   0.245  1.6681 -1.6231 -0.8526
    9MOL    H73 1049   2.543   6.791   0.240  0.0421 -0.3668 -0.1834
    9MOL    C74 1050   2.458   6.899   0.076 -0.0950 -0.2856  1.3798
    9MOL   Cl75 1051   2.373   7.049   0.025  0.1706 -0.0087 -0.1381
    9MOL   Cl76 1052   2.351   6.762   0.029  0.1368 -0.1980 -0.0936
    9MOL    C77 1053   2.600   6.890   0.000 -0.3554 -0.0729 -0.6986
    9MOL    H78 1054   2.666   6.968   0.038  0.2364 -1.1120  0.4697
    9MOL    H79 1055   2.640   6.799   0.045  0.6659 -0.2777 -2.0172
    9MOL    C80 1056   2.619   6.901   9.020  0.3251 -0.4778 -0.9161
    9MOL   Cl81 1057   2.480   6.830   8.933  0.1934  0.1085 -0.1756
    9MOL   Cl82 1058   2.754   6.789   8.976  0.2505 -0.3817 -0.0840
    9MOL    C83 1059   2.636   7.049   8.978 -0.2212  0.0026 -0.6045
    9MOL    H84 1060   2.609   7.034   8.874 -0.0897 -2.4515 -0.3055
    9MOL    H85 1061   2.557   7.114   9.017  0.0751  1.7143 -2.7831
    9MOL    C86 1062   2.773   7.122   8.984 -0.2111  0.0897  0.0179
    9MOL   Cl87 1063   2.862   7.079   8.834  0.1759  0.1367  0.0027
    9MOL   Cl88 1064   2.877   7.076   9.120 -0.5033  0.0544 -0.0916
    9MOL    C89 1065   2.750   7.280   8.972 -0.1177 -0.7274 -0.3206
    9MOL    H90 1066   2.722   7.303   8.869 -1.0146  2.1665  0.5307
    9MOL    H91 1067   2.658   7.315   9.020 -0.8173 -0.0974 -2.0505
    9MOL    C92 1068   2.853   7.382   9.028  0.7038 -0.0235  0.3355
    9MOL   Cl93 1069   2.830   7.385   0.026  0.0639 -0.1799  0.0784
    9MOL   Cl94 1070   2.799   7.547   8.979  0.1109 -0.3052  0.0279
    9MOL    C95 1071   3.000   7.356   8.978 -0.1489  0.2234  0.1268
    9MOL    H96 1072   3.033   7.253   8.962  0.2874  0.5969 -1.4752
    9MOL    H97 1073   3.001   7.387   8.873  0.6938 -1.4536 -0.3935
    9MOL    C98 1074   3.128   7.419   9.043  0.1409  0.4191 -0.0004
    9MOL   Cl99 1075   3.272   7.370   8.943 -0.0174  0.1934 -0.2016
    9MOL  Cl100 1076   3.156   7.339   0.019 -0.3260  0.1615 -0.1281
    9MOL   C101 1077   3.123   7.577   9.061 -0.3329 -0.1265  0.4515
    9MOL   H102 1078   3.083   7.609   8.965  0.7724  2.2819  0.7574
    9MOL   H103 1079   3.039   7.599   9.128  0.2367  1.4233  0.6673
    9MOL   C104 1080   3.243   7.656   9.126 -0.0617 -0.2102  0.1668
    9MOL  Cl105 1081   3.383   7.661   9.015  0.2248  0.0096  0.2456
    9MOL  Cl106 1082   3.300   7.587   0.104  0.0992  0.0403  0.3072
    9MOL   C107 1083   3.217   7.807   9.166 -0.8459  0.8303 -0.4138
    9MOL   H108 1084   3.167   7.802   0.082  0.9466  1.6460  0.5971
    9MOL   H109 1085   3.314   7.857   9.176 -0.5123  0.5324 -1.9461
    9MOL   C110 1086   3.123   7.891   9.079  0.9033 -0.4134  0.3790
    9MOL  Cl111 1087   2.952   7.830   9.078  0.1092  0.4815 -0.2503
    9MOL  Cl112 1088   3.193   7.885   8.916  0.3757  0.5319  0.1791
    9MOL   C113 1089   3.127   8.035   9.138  0.1729 -0.4008 -0.0627
    9MOL   H114 1090   3.105   8.032   0.065  3.8839  0.2280  0.7872
    9MOL   H115 1091   3.222   8.083   9.116 -0.1428  1.6157  2.7177
    9MOL   C116 1092   3.022   8.145   9.101 -0.5018  0.3340  0.0055
    9MOL  Cl117 1093   3.086   8.303   9.165  0.0085 -0.4802  0.2610
    9MOL  Cl118 1094   2.859   8.116   9.164 -0.0602 -0.5897  0.2478
    9MOL   C119 1095   3.010   8.160   8.947 -0.1344 -0.0885 -0.5831
    9MOL   H120 1096   2.935   8.232   8.914 -0.0135  0.4979  0.3847
    9MOL   H121 1097   3.103   8.204   8.911 -0.0159  0.7856  0.7615
    9MOL   H122 1098   2.993   8.068   8.891 -0.4065 -0.0518 -0.5645
   10MOL     C1 1099   8.457   1.799   3.183  0.5717  0.1217 -0.0784
   10MOL    Cl2 1100   8.405   1.634   3.155 -0.1047 -0.1683  0.0023
   10MOL    Cl3 1101   8.303   1.892   3.217  0.0962  0.2350  0.0332
   10MOL     C4 1102   8.558   1.800   3.300 -0.1899 -0.6018 -0.1076
   10MOL     H5 1103   8.504   1.760   3.386  0.3647 -2.3163 -0.5300
   10MOL     H6 1104   8.640   1.734   3.271 -0.5504 -1.8506  1.6152
   10MOL     H7 1105   8.500   1.832   3.088 -2.1973  0.3930 -1.2760
   10MOL     C8 1106   8.634   1.933   3.334  0.2111  0.3102 -0.4269
   10MOL    Cl9 1107   8.524   2.067   3.374 -0.1229  0.0433 -0.2912
   10MOL   Cl10 1108   8.715   1.972   3.184  0.0052  0.0901 -0.3450
   10MOL    C11 1109   8.747   1.938   3.438 -0.0406 -0.0967 -0.3493
   10MOL    H12 1110   8.837   1.883   3.409 -0.7081 -0.7378 -1.2475
   10MOL    H13 1111   8.784   2.040   3.444 -0.1116 -0.1370  0.8254
   10MOL    C14 1112   8.715   1.889   3.584  0.9546  0.5570  0.4363
   10MOL   Cl15 1113   8.859   1.937   3.668  0.3196 -0.1874 -0.0201
   10MOL   Cl16 1114   8.710   1.710   3.593 -0.0058  0.4217 -0.0643
   10MOL    C17 1115   8.596   1.968   3.658 -0.5659 -0.3921 -0.1374
   10MOL    H18 1116   8.602   2.075   3.636 -0.3967 -0.7368 -1.8409
   10MOL    H19 1117   8.508   1.937   3.602  0.1594 -1.5569 -0.6424
   10MOL    C20 1118   8.554   1.958   3.808  0.2856  0.2088  0.3246
   10MOL   Cl21 1119   8.414   2.068   3.815 -0.1402 -0.1517 -0.3630
   10MOL   Cl22 1120   8.696   2.013   3.908 -0.4446 -0.1007  0.2459
   10MOL    C23 1121   8.524   1.810   3.841 -0.6151  0.3867 -0.3713
   10MOL    H24 1122   8.498   1.765   3.745 -1.1756 -0.4851  0.1808
   10MOL    H25 1123   8.624   1.771   3.862 -0.0473  2.6070  1.2720
   10MOL    C26 1124   8.425   1.766   3.951  0.0989 -0.6749  0.9464
   10MOL   Cl27 1125   8.258   1.805   3.898  0.0689 -0.1133 -0.2688
   10MOL   Cl28 1126   8.475   1.867   4.093 -0.0316 -0.2876  0.0832
   10MOL    C29 1127   8.433   1.615   4.000 -0.2192  0.8782 -0.1521
   10MOL    H30 1128   8.540   1.594   4.003 -0.2302  0.4406 -2.3947
   10MOL    H31 1129   8.413   1.624   4.107  0.4194  0.1473  0.0371
   10MOL    C32 1130   8.350   1.496   3.933  0.1234  0.2906  0.3996
   10MOL   Cl33 1131   8.445   1.354   3.983  0.5231  0.1760 -0.4143
   10MOL   Cl34 1132   8.384   1.534   3.760 -0.2170  0.2294 -0.3794
   10MOL    C35 1133   8.196   1.466   3.959  0.0945 -0.0558  0.2363
   10MOL    H36 1134   8.129   1.514   3.887 -1.0107 -0.7950  0.7487
   10MOL    H37 1135   8.176   1.361   3.934  0.9661 -0.2103  0.1955
   10MOL    C38 1136   8.127   1.482   4.101  0.2170 -1.2586  0.4701
   10MOL   Cl39 1137   8.131   1.658   4.158 -0.0613  0.1468  0.1218
   10MOL   Cl40 1138   8.214   1.391   4.224 -0.3933  0.0005 -0.2256
   10MOL    C41 1139   7.979   1.432   4.121  0.3000  0.0707  0.1280
   10MOL    H42 1140   7.962   1.449   4.228 -0.0722 -3.0510  0.6068
   10MOL    H43 1141   7.922   1.503   4.062 -0.7783 -1.0325 -0.1763
   10MOL    C44 1142   7.940   1.294   4.058 -0.4156 -0.0249  0.1545
   10MOL   Cl45 1143   8.058   1.165   4.073  0.2778  0.2740  0.4486
   10MOL   Cl46 1144   7.906   1.317   3.886 -0.1359  0.2033 -0.0041
   10MOL    C47 1145   7.805   1.236   4.117  0.4966  0.3738 -0.3951
   10MOL    H48 1146   7.724   1.292   4.071  1.5524  2.4913  0.2759
   10MOL    H49 1147   7.795   1.134   4.078 -0.1765  0.0348  0.6546
   10MOL    C50 1148   7.770   1.239   4.273 -0.2860 -0.2260  0.0544
   10MOL   Cl51 1149   7.611   1.160   4.298  0.1924  0.1320  0.1223
   10MOL   Cl52 1150   7.722   1.406   4.319 -0.0065 -0.2751  0.1890
   10MOL    C53 1151   7.888   1.188   4.359 -0.1766  0.3608  0.4978
   10MOL    H54 1152   7.924   1.092   4.322 -0.3425  0.6840 -0.5016
   10MOL    H55 1153   7.976   1.251   4.351  0.6474 -0.9025 -0.3735
   10MOL    C56 1154   7.865   1.165   4.512  0.1730 -0.4655 -0.2181
   10MOL   Cl57 1155   7.798   1.308   4.595  0.2298  0.3615 -0.2129
   10MOL   Cl58 1156   8.026   1.145   4.595  0.1783 -0.0681  0.2101
   10MOL    C59 1157   7.781   1.044   4.554 -0.5385  0.3646  0.8643
   10MOL    H60 1158   7.790   1.042   4.663 -2.2446 -0.2270  1.0055
   10MOL    H61 1159   7.677   1.064   4.531  0.4826  1.5646 -3.0350
   10MOL    C62 1160   7.805   0.892   4.505  0.0178  0.0454 -0.1063
   10MOL   Cl63 1161   7.969   0.832   4.532  0.0830 -0.1211 -0.2625
   10MOL   Cl64 1162   7.771   0.888   4.326  0.0745  0.6028  0.0657
   10MOL    C65 1163   7.697   0.798   4.577 -0.0309  0.4454 -0.1394
   10MOL    H66 1164   7.697   0.823   4.683  2.0311  0.5800 -0.1687
   10MOL    H67 1165   7.597   0.816   4.537 -0.0948 -1.0400 -0.6976
   10MOL    C68 1166   7.712   0.644   4.586 -0.4836  0.5232 -0.2858
   10MOL   Cl69 1167   7.559   0.588   4.669  0.3443  0.5246  0.2919
   10MOL   Cl70 1168   7.835   0.593   4.703 -0.2807 -0.3014  0.1025
   10MOL    C71 1169   7.743   0.576   4.450 -1.1279 -0.1722 -0.5314
   10MOL    H72 1170   7.799   0.652   4.394 -1.5955 -0.3603 -1.2586
   10MOL    H73 1171   7.814   0.496   4.469 -1.9206 -0.4937  1.0775
   10MOL    C74 1172   7.631   0.535   4.353 -0.3814  0.1258  0.6566
   10MOL   Cl75 1173   7.507   0.663   4.329 -0.0309 -0.1214  0.0175
   10MOL   Cl76 1174   7.563   0.387   4.401  0.1089 -0.0033  0.2106
   10MOL    C77 1175   7.689   0.515   4.204  0.1481  0.5071 -0.3657
   10MOL    H78 1176   7.599   0.481   4.153  0.0800  1.0495 -0.6099
   10MOL    H79 1177   7.714   0.618   4.180  4.3507 -0.2542  0.3593
   10MOL    C80 1178   7.823   0.443   4.164 -0.4505  0.1446  0.5190
   10MOL   Cl81 1179   7.849   0.285   4.257  0.0035  0.1988 -0.3285
   10MOL   Cl82 1180   7.967   0.548   4.197 -0.2800  0.2400  0.2923
   10MOL    C83 1181   7.837   0.407   4.009  0.7999 -0.2497  1.3869
   10MOL    H84 1182   7.881   0.492   3.956 -4.5434  2.1600  0.4691
   10MOL    H85 1183   7.907   0.324   4.004  1.1242  0.1135 -0.8740
   10MOL    C86 1184   7.715   0.364   3.923  0.2694  0.3763 -0.5407
   10MOL   Cl87 1185   7.776   0.312   3.765  0.3408  0.1236  0.4668
   10MOL   Cl88 1186   7.624   0.519   3.892  0.0790 -0.4382  0.1447
   10MOL    C89 1187   7.636   0.255   4.001  0.3923 -0.3078  0.5836
   10MOL    H90 1188   7.691   0.164   3.977  2.7220  0.9783  0.8850
   10MOL    H91 1189   7.625   0.264   4.109  2.1036  1.6419  0.6283
   10MOL    C92 1190   7.485   0.228   3.966  0.0048 -0.6005 -0.2019
   10MOL   Cl93 1191   7.477   0.224   3.782 -0.0982 -0.3511 -0.1510
   10MOL   Cl94 1192   7.386   0.361   4.027 -0.1998 -0.0790  0.4244
   10MOL    C95 1193   7.425   0.094   4.021 -1.1849 -0.8336  0.2925
   10MOL    H96 1194   7.409   0.112   4.128  2.3930 -2.0508  1.1330
   10MOL    H97 1195   7.324   0.079   3.984 -0.5180 -2.8008 -0.7699
   10MOL    C98 1196   7.504   9.142   4.011 -0.1533  0.3388  0.3279
   10MOL   Cl99 1197   7.638   9.129   4.125  0.2395  0.2971 -0.0485
   10MOL  Cl100 1198   7.569   9.120   3.853 -0.0404  0.3298  0.2197
   10MOL   C101 1199   7.410   9.021   4.034  0.3314 -0.7527 -0.1445
   10MOL   H102 1200   7.338   9.023   3.952  0.9051  1.3813 -0.6146
   10MOL   H103 1201   7.462   8.929   4.007  2.0318 -0.1499  0.9981
   10MOL   C104 1202   7.339   8.987   4.174 -0.2841 -1.0710 -0.6368
   10MOL  Cl105 1203   7.215   8.863   4.138  0.2067 -0.3901  0.0458
   10MOL  Cl106 1204   7.242   9.131   4.227 -0.1821 -0.0949  0.0236
   10MOL   C107 1205   7.442   8.939   4.280  0.2879  0.3006  0.0309
   10MOL   H108 1206   7.536   8.910   4.234  1.0986  1.5314  0.8959
   10MOL   H109 1207   7.467   9.028   4.338 -1.7532  0.8388  0.1428
   10MOL   C110 1208   7.413   8.823   4.390 -0.1548  0.8008  0.4283
   10MOL  Cl111 1209   7.395   8.662   4.321 -0.3047 -0.1261  0.2410
   10MOL  Cl112 1210   7.258   8.864   4.469  0.0229  0.2289  0.3199
   10MOL   C113 1211   7.517   8.826   4.505 -0.2007 -0.1170 -0.1473
   10MOL   H114 1212   7.509   8.912   4.572 -1.7261 -0.3627  0.0129
   10MOL   H115 1213   7.486   8.738   4.562 -1.4494  0.7346  0.5235
   10MOL   C116 1214   7.668   8.805   4.463  0.7090 -0.0247 -0.4618
   10MOL  Cl117 1215   7.753   8.740   4.612 -0.2032  0.0728  0.3210
   10MOL  Cl118 1216   7.728   8.971   4.436  0.0272  0.3022 -0.3256
   10MOL   C119 1217   7.727   8.721   4.347 -0.1274  0.6806  0.0960
   10MOL   H120 1218   7.703   8.739   4.242  1.7869 -0.7831 -0.6226
   10MOL   H121 1219   7.834   8.739   4.342  0.1789 -1.2821 -0.7842
   10MOL   H122 1220   7.707   8.615   4.360 -1.9564  0.9308 -0.4588
   11MOL     C1 1221   0.266   4.656   6.016  0.2993 -0.7681 -0.0243
   11MOL    Cl2 1222   0.317   4.762   6.149  0.0305  0.5903 -0.0431
   11MOL    Cl3 1223   0.420   4.591   5.935 -0.2627 -0.1465  0.3850
   11MOL     C4 1224   0.171   4.552   6.072  0.1242  0.3197 -0.2918
   11MOL     H5 1225   0.191   4.466   6.007 -0.0550  0.3307 -0.3635
   11MOL     H6 1226   0.208   4.533   6.172 -0.9146 -0.5979 -0.0680
   11MOL     H7 1227   0.214   4.730   5.954  0.4800 -0.0268  0.6973
   11MOL     C8 1228   0.014   4.570   6.072 -0.2736 -1.2515 -0.0603
   11MOL    Cl9 1229   9.146   4.599   5.901 -0.3391 -0.1530  0.1550
   11MOL   Cl10 1230   9.132   4.707   6.168 -0.0272 -0.2244 -0.1701
   11MOL    C11 1231   9.116   4.454   6.142 -0.2729  0.3501 -0.1813
   11MOL    H12 1232   9.106   4.467   6.250 -0.5653  0.8780 -0.2703
   11MOL    H13 1233   9.015   4.462   6.101 -0.2194  0.8950 -0.2078
   11MOL    C14 1234   9.166   4.310   6.118  0.3280  0.4018 -0.4949
   11MOL   Cl15 1235   0.133   4.273   6.201  0.3814  0.3755  0.1971
   11MOL   Cl16 1236   9.175   4.271   5.939 -0.0990  0.6846 -0.1632
   11MOL    C17 1237   9.059   4.197   6.159  0.8782  0.2626  0.3272
   11MOL    H18 1238   8.985   4.189   6.079  0.8933  3.6186 -0.0755
   11MOL    H19 1239   9.118   4.107   6.142  0.8198  0.3169 -0.1681
   11MOL    C20 1240   8.996   4.187   6.299 -0.4070 -0.5532 -0.2122
   11MOL   Cl21 1241   8.877   4.320   6.321  0.0131 -0.2425 -0.1435
   11MOL   Cl22 1242   9.120   4.195   6.431  0.0591 -0.1095 -0.4406
   11MOL    C23 1243   8.927   4.052   6.307 -0.4555  0.4946  0.2011
   11MOL    H24 1244   8.843   4.066   6.239 -0.4638 -0.3757  0.0300
   11MOL    H25 1245   8.996   3.979   6.265 -2.5612 -0.9585 -0.7734
   11MOL    C26 1246   8.881   3.984   6.440 -0.3598 -0.7550 -0.6754
   11MOL   Cl27 1247   9.021   3.898   6.514  0.1631 -0.5862 -0.0976
   11MOL   Cl28 1248   8.760   3.868   6.391 -0.1691  0.1394 -0.0354
   11MOL    C29 1249   8.810   4.076   6.544  0.0928 -0.3113 -0.1292
   11MOL    H30 1250   8.885   4.151   6.570  0.5838 -0.7423 -0.2857
   11MOL    H31 1251   8.740   4.132   6.482  0.2113 -0.3604 -0.3066
   11MOL    C32 1252   8.737   4.025   6.671 -0.4463  0.0289  0.3181
   11MOL   Cl33 1253   8.840   3.908   6.756 -0.3636 -0.4376  0.0150
   11MOL   Cl34 1254   8.578   3.947   6.634 -0.5603  0.0552  0.4009
   11MOL    C35 1255   8.708   4.154   6.751  0.2874  0.4665 -0.3253
   11MOL    H36 1256   8.800   4.213   6.749  0.7149 -0.1844 -0.0703
   11MOL    H37 1257   8.639   4.221   6.699  0.3648  0.6825 -0.1488
   11MOL    C38 1258   8.671   4.138   6.898 -0.1635  0.2789 -0.1250
   11MOL   Cl39 1259   8.603   4.299   6.927 -0.0336 -0.2529 -0.1935
   11MOL   Cl40 1260   8.827   4.122   6.992 -0.0405  0.4112  0.4078
   11MOL    C41 1261   8.581   4.023   6.934  0.3706 -0.4178 -0.0511
   11MOL    H42 1262   8.501   4.010   6.861 -2.0958  0.2707  2.4090
   11MOL    H43 1263   8.640   3.931   6.929  1.3809  0.2387 -0.2075
   11MOL    C44 1264   8.500   4.011   7.065 -0.1557 -1.0172  0.3467
   11MOL   Cl45 1265   8.366   4.119   7.063 -0.3510  0.3316  0.6033
   11MOL   Cl46 1266   8.600   4.073   7.197 -0.0929  0.1133 -0.5245
   11MOL    C47 1267   8.467   3.860   7.099 -0.3675 -0.3229 -0.4514
   11MOL    H48 1268   8.557   3.810   7.133  0.4100  0.4574 -1.3258
   11MOL    H49 1269   8.407   3.864   7.189 -0.5879 -2.1022 -0.5126
   11MOL    C50 1270   8.390   3.763   7.002 -0.2747  0.1200  0.0222
   11MOL   Cl51 1271   8.356   3.620   7.108 -0.2446 -0.2640 -0.1486
   11MOL   Cl52 1272   8.495   3.707   6.865 -0.1483 -0.1114 -0.0167
   11MOL    C53 1273   8.259   3.823   6.940  0.3010 -0.1361 -0.3000
   11MOL    H54 1274   8.290   3.914   6.889  0.6471 -0.3994 -0.5645
   11MOL    H55 1275   8.227   3.759   6.857  1.7290  0.4224 -1.2982
   11MOL    C56 1276   8.122   3.832   7.020 -0.5894  0.3646 -0.4136
   11MOL   Cl57 1277   8.149   3.857   7.197 -0.4910 -0.2147  0.3274
   11MOL   Cl58 1278   8.054   3.666   7.005  0.1742  0.1582  0.0336
   11MOL    C59 1279   8.028   3.940   6.956 -0.6283 -0.1235 -0.6429
   11MOL    H60 1280   8.083   4.033   6.967  1.8861 -1.6260  0.1322
   11MOL    H61 1281   8.032   3.925   6.848  0.6974  2.2801 -0.9482
   11MOL    C62 1282   7.880   3.955   7.001 -0.6819 -1.0609 -0.0241
   11MOL   Cl63 1283   7.797   3.810   6.940 -0.0862  0.5381 -0.0189
   11MOL   Cl64 1284   7.812   4.090   6.916 -0.0472 -0.1405 -0.6540
   11MOL    C65 1285   7.873   3.976   7.161  0.5745 -0.8826  0.7690
   11MOL    H66 1286   7.909   3.887   7.211  1.1121  0.3284  2.5981
   11MOL    H67 1287   7.935   4.061   7.190 -0.8732  0.6328 -0.4522
   11MOL    C68 1288   7.735   4.009   7.239 -1.2293 -0.7627 -0.8935
   11MOL   Cl69 1289   7.717   4.184   7.231 -0.1492  0.6115  0.0387
   11MOL   Cl70 1290   7.765   3.973   7.407 -0.1601  0.3462 -0.0064
   11MOL    C71 1291   7.610   3.933   7.177  0.2435  0.1565  0.1452
   11MOL    H72 1292   7.608   3.965   7.072  1.7476 -1.0784 -0.2795
   11MOL    H73 1293   7.646   3.831   7.162 -2.5974 -1.2294  2.3689
   11MOL    C74 1294   7.470   3.927   7.235  0.0236  0.0556  0.8467
   11MOL   Cl75 1295   7.464   3.794   7.354  0.1012 -0.1323  0.4526
   11MOL   Cl76 1296   7.385   3.877   7.083 -0.1029  0.3029 -0.1746
   11MOL    C77 1297   7.414   4.061   7.288  0.3262  0.0801 -0.3732
   11MOL    H78 1298   7.488   4.113   7.349  1.0641 -2.3937  0.9021
   11MOL    H79 1299   7.398   4.126   7.202 -1.1413 -0.6834 -0.6796
   11MOL    C80 1300   7.285   4.061   7.383  0.6961  0.5892 -0.0829
   11MOL   Cl81 1301   7.326   4.000   7.542 -0.5281  0.2748  0.0736
   11MOL   Cl82 1302   7.157   3.965   7.308 -0.1087 -0.2784 -0.1873
   11MOL    C83 1303   7.228   4.206   7.392  0.8814  0.1236  0.8462
   11MOL    H84 1304   7.182   4.242   7.299  2.0353 -0.2459  0.1212
   11MOL    H85 1305   7.147   4.207   7.464 -0.1226  0.0228 -0.2717
   11MOL    C86 1306   7.315   4.333   7.436  0.2943  0.3660  0.2871
   11MOL   Cl87 1307   7.420   4.386   7.306 -0.4701  0.0183  0.0252
   11MOL   Cl88 1308   7.417   4.300   7.581 -0.4301 -0.1404  0.3621
   11MOL    C89 1309   7.229   4.457   7.485 -0.1329  0.1337  0.1799
   11MOL    H90 1310   7.179   4.406   7.566  3.4080 -1.0414  1.7315
   11MOL    H91 1311   7.304   4.525   7.527 -0.2820  2.0972 -2.5388
   11MOL    C92 1312   7.139   4.541   7.396  0.5263  0.2781  0.4536
   11MOL   Cl93 1313   6.998   4.441   7.339 -0.1814 -0.3688 -0.3132
   11MOL   Cl94 1314   7.223   4.604   7.250 -0.1942  0.1787  0.0007
   11MOL    C95 1315   7.074   4.658   7.464  0.4138 -0.3073  0.2848
   11MOL    H96 1316   7.043   4.724   7.383  1.0409 -0.8236 -0.3856
   11MOL    H97 1317   6.980   4.627   7.510 -0.5095  3.7542  1.2890
   11MOL    C98 1318   7.147   4.736   7.580  0.6627  0.9113  0.0956
   11MOL   Cl99 1319   7.315   4.760   7.545  0.2963 -0.1521  0.1592
   11MOL  Cl100 1320   7.140   4.635   7.726  0.0497  0.3321 -0.1154
   11MOL   C101 1321   7.084   4.878   7.610  0.1598  0.4891  0.1082
   11MOL   H102 1322   7.122   4.903   7.709  1.3465 -0.4615 -0.0916
   11MOL   H103 1323   7.101   4.954   7.534 -1.1200  0.7720  0.0896
   11MOL   C104 1324   6.936   4.898   7.648 -0.3575  0.2820  0.1048
   11MOL  Cl105 1325   6.869   4.774   7.756  0.4596  0.0861  0.4094
   11MOL  Cl106 1326   6.833   4.885   7.506  0.3261  0.0847 -0.4260
   11MOL   C107 1327   6.903   5.035   7.719 -0.0587  0.3522  0.2612
   11MOL   H108 1328   6.795   5.043   7.728  0.0503  0.6106  1.3626
   11MOL   H109 1329   6.932   5.021   7.823 -0.0735 -2.9764 -0.1225
   11MOL   C110 1330   6.956   5.173   7.676  0.1227  0.8578  0.1355
   11MOL  Cl111 1331   6.936   5.184   7.501  0.1877  0.3045 -0.2743
   11MOL  Cl112 1332   7.125   5.188   7.705 -0.1239 -0.5625  0.3311
   11MOL   C113 1333   6.858   5.283   7.745  0.3535  0.5004 -0.3527
   11MOL   H114 1334   6.756   5.272   7.706  1.4883 -1.5637 -2.9362
   11MOL   H115 1335   6.845   5.260   7.850 -0.6812  1.7903 -0.1830
   11MOL   C116 1336   6.910   5.424   7.758  0.2738  0.2501  0.3588
   11MOL  Cl117 1337   6.960   5.490   7.593 -0.3567  0.4121  0.2473
   11MOL  Cl118 1338   7.054   5.429   7.865 -0.3942 -0.0526 -0.0107
   11MOL   C119 1339   6.811   5.521   7.818 -0.0523  0.2012 -0.2267
   11MOL   H120 1340   6.723   5.535   7.755  1.3442  1.1404 -2.0095
   11MOL   H121 1341   6.778   5.483   7.914 -3.8672  3.3454 -0.1709
   11MOL   H122 1342   6.855   5.620   7.831  1.8989 -0.7410  0.5330
   12MOL     C1 1343   9.056   3.750   4.741  0.5727  0.5194 -0.4675
   12MOL    Cl2 1344   9.049   3.697   4.907 -0.0783  0.1021  0.5997
   12MOL    Cl3 1345   8.940   3.659   4.645 -0.0605  0.1098  0.1251
   12MOL     C4 1346   9.012   3.895   4.733 -0.4760  0.1294 -0.4533
   12MOL     H5 1347   8.976   3.921   4.633  2.1184  0.2404 -1.3879
   12MOL     H6 1348   8.922   3.912   4.791  0.3553  1.5490  0.4599
   12MOL     H7 1349   9.156   3.730   4.704  0.5757 -0.4872  0.0729
   12MOL     C8 1350   9.111   4.005   4.772 -0.1755  0.2821  0.6708
   12MOL    Cl9 1351   9.179   3.981   4.936  0.0103  0.1075  0.3276
   12MOL   Cl10 1352   9.006   4.149   4.758 -0.0565  1.0112  0.0732
   12MOL    C11 1353   0.057   4.021   4.683  0.3111 -0.9662  0.4557
   12MOL    H12 1354   0.100   4.117   4.713  1.8602 -1.6095  0.3430
   12MOL    H13 1355   0.137   3.949   4.701 -0.8639 -2.3557  0.1759
   12MOL    C14 1356   0.053   4.009   4.528 -0.5326 -0.0664  0.4918
   12MOL   Cl15 1357   9.094   4.108   4.474  0.0867  0.0941 -0.0337
   12MOL   Cl16 1358   0.023   3.841   4.467 -0.1332  0.2056  0.2219
   12MOL    C17 1359   0.181   4.060   4.454 -0.2053 -0.8917  0.3128
   12MOL    H18 1360   0.177   4.012   4.356 -1.2419  1.7503 -0.9947
   12MOL    H19 1361   0.172   4.168   4.442 -1.1138 -1.1421 -1.5105
   12MOL    C20 1362   0.322   4.029   4.510  1.1537  0.0022  0.1904
   12MOL   Cl21 1363   0.335   3.859   4.575 -0.3128  0.3957 -0.2481
   12MOL   Cl22 1364   0.355   4.142   4.647 -0.0283 -0.1285 -0.1690
   12MOL    C23 1365   0.433   4.042   4.398 -0.4257 -0.2371 -0.2576
   12MOL    H24 1366   0.428   3.950   4.340  0.7781 -0.1361 -0.5237
   12MOL    H25 1367   0.393   4.119   4.332 -1.4285 -1.0235 -0.5841
   12MOL    C26 1368   0.585   4.078   4.429  0.0134 -0.5072  0.4103
   12MOL   Cl27 1369   0.586   4.245   4.462  0.1940  0.5050 -0.2444
   12MOL   Cl28 1370   0.667   4.047   4.276  0.3264  0.2528  0.2440
   12MOL    C29 1371   0.643   3.978   4.531  0.0927 -0.2314  0.3223
   12MOL    H30 1372   0.573   3.957   4.612 -0.3469  0.4959  0.1283
   12MOL    H31 1373   0.638   3.877   4.490 -1.1869 -0.2083  0.4140
   12MOL    C32 1374   0.769   4.006   4.614  0.3145 -0.0945 -0.5682
   12MOL   Cl33 1375   0.775   4.167   4.685 -0.1379  0.0876 -0.0062
   12MOL   Cl34 1376   0.907   4.012   4.509  0.3598  0.3902  0.4563
   12MOL    C35 1377   0.806   3.894   4.712 -0.4627  0.2727 -0.0841
   12MOL    H36 1378   0.845   3.801   4.671 -0.8957 -0.3234  0.8470
   12MOL    H37 1379   0.893   3.938   4.761 -0.3523 -0.9901  0.8866
   12MOL    C38 1380   0.713   3.853   4.829  0.6879  0.1206 -1.0141
   12MOL   Cl39 1381   0.824   3.789   4.951 -0.2841 -0.1344  0.0568
   12MOL   Cl40 1382   0.591   3.735   4.766  0.0787 -0.0687  0.1279
   12MOL    C41 1383   0.641   3.973   4.900 -0.1963 -0.0301  0.5188
   12MOL    H42 1384   0.721   4.016   4.960 -1.4794  2.5528  0.4293
   12MOL    H43 1385   0.611   4.046   4.825  0.1273 -1.6369 -1.2205
   12MOL    C44 1386   0.519   3.952   4.994  0.6937  0.4711  0.7947
   12MOL   Cl45 1387   0.372   3.905   4.904 -0.3498 -0.5818 -0.0602
   12MOL   Cl46 1388   0.493   4.106   5.076  0.1442 -0.0966 -0.0216
   12MOL    C47 1389   0.538   3.846   5.109  0.2300  0.0309  0.3182
   12MOL    H48 1390   0.585   3.759   5.063 -0.3566  0.0371 -0.3047
   12MOL    H49 1391   0.609   3.878   5.185 -0.3908  0.4764  0.7161
   12MOL    C50 1392   0.421   3.783   5.190 -0.6060  0.2603  0.6307
   12MOL   Cl51 1393   0.494   3.711   5.337 -0.3843 -0.3514  0.5180
   12MOL   Cl52 1394   0.344   3.654   5.091 -0.1174  0.0418 -0.3795
   12MOL    C53 1395   0.317   3.890   5.239  0.3622 -0.1559  0.0917
   12MOL    H54 1396   0.382   3.958   5.293 -0.2512  1.0859 -0.7054
   12MOL    H55 1397   0.281   3.942   5.150 -1.2795 -1.6231 -0.1430
   12MOL    C56 1398   0.192   3.851   5.323  0.7548 -0.0384 -0.0337
   12MOL   Cl57 1399   0.097   4.004   5.335 -0.0535 -0.0332  0.0348
   12MOL   Cl58 1400   0.259   3.831   5.494  0.0308  0.2778  0.4439
   12MOL    C59 1401   0.111   3.728   5.279 -0.2391 -0.0876 -0.5319
   12MOL    H60 1402   0.094   3.727   5.171  1.1633  1.3694 -0.7972
   12MOL    H61 1403   0.175   3.643   5.302  0.3954  0.6670  0.5448
   12MOL    C62 1404   9.159   3.694   5.343  0.6406  1.0443 -0.3864
   12MOL   Cl63 1405   9.027   3.764   5.254  0.0492 -0.1283 -0.3335
   12MOL   Cl64 1406   9.139   3.743   5.518 -0.2852  0.3557  0.2117
   12MOL    C65 1407   9.132   3.540   5.335 -0.2223  0.1255  0.8073
   12MOL    H66 1408   9.025   3.530   5.313  0.0843 -0.0108 -0.6866
   12MOL    H67 1409   9.158   3.506   5.235  0.5053  0.4409  0.8881
   12MOL    C68 1410   9.164   3.440   5.450  0.4504  0.0281  0.6254
   12MOL   Cl69 1411   0.149   3.469   5.496  0.2607  0.0226 -0.0441
   12MOL   Cl70 1412   9.164   3.275   5.375  0.0208  0.0601  0.0757
   12MOL    C71 1413   9.052   3.432   5.560 -0.6259  0.1948 -0.2213
   12MOL    H72 1414   9.007   3.531   5.572  0.1430  0.4555  0.5773
   12MOL    H73 1415   8.969   3.375   5.517 -0.6154 -0.6678  0.8922
   12MOL    C74 1416   9.085   3.397   5.709  0.0858 -0.0083 -0.5552
   12MOL   Cl75 1417   8.937   3.375   5.809 -0.0750  0.0473  0.2561
   12MOL   Cl76 1418   0.012   3.525   5.776  0.0230  0.0972  0.1595
   12MOL    C77 1419   9.164   3.267   5.708  0.3527  0.1284 -0.5836
   12MOL    H78 1420   9.127   3.195   5.635  1.4099 -1.2783  0.2292
   12MOL    H79 1421   0.078   3.292   5.660 -0.4000 -0.1253 -2.2469
   12MOL    C80 1422   0.008   3.179   5.842 -0.3260 -0.5318 -0.2483
   12MOL   Cl81 1423   0.125   3.062   5.787 -0.0754  0.1171  0.5033
   12MOL   Cl82 1424   9.049   3.083   5.863 -0.0485  0.1372  0.0768
   12MOL    C83 1425   0.061   3.251   5.967  0.1121 -1.0738  0.1386
   12MOL    H84 1426   0.151   3.302   5.933  1.0880 -2.7203  0.2435
   12MOL    H85 1427   9.163   3.326   5.980 -0.4647 -1.5661 -0.4787
   12MOL    C86 1428   0.080   3.174   6.100  0.0676  0.1850  0.6384
   12MOL   Cl87 1429   0.181   3.031   6.082 -0.1928  0.0666 -0.3709
   12MOL   Cl88 1430   9.110   3.126   6.173  0.3043 -0.1937  0.3686
   12MOL    C89 1431   0.158   3.264   6.198  0.2757 -0.3835  0.2156
   12MOL    H90 1432   0.170   3.215   6.295  1.9232 -0.6404 -0.1018
   12MOL    H91 1433   0.256   3.279   6.155 -1.2210  0.1322 -3.1292
   12MOL    C92 1434   0.111   3.411   6.236 -0.0437  0.3232 -0.4832
   12MOL   Cl93 1435   0.147   3.518   6.095 -0.0873  0.2797 -0.0779
   12MOL   Cl94 1436   0.232   3.454   6.364  0.4614 -0.3198 -0.0147
   12MOL    C95 1437   9.146   3.424   6.290 -0.5651 -0.0158  1.0591
   12MOL    H96 1438   9.093   3.392   6.200  0.0580 -0.8738  0.9880
   12MOL    H97 1439   9.148   3.341   6.362 -1.1435  0.8013  2.0341
   12MOL    C98 1440   9.090   3.559   6.348  0.0796  0.0554  0.2564
   12MOL   Cl99 1441   9.092   3.679   6.214  0.0782  0.2531  0.3798
   12MOL  Cl100 1442   0.016   3.628   6.483 -0.1290 -0.2259  0.1499
   12MOL   C101 1443   8.951   3.543   6.416 -0.2971  0.2273 -0.6724
   12MOL   H102 1444   8.962   3.505   6.518 -1.6026  2.2459  0.2506
   12MOL   H103 1445   8.917   3.646   6.421  0.8740  0.6743 -1.8256
   12MOL   C104 1446   8.840   3.462   6.344 -0.4170  0.1700 -0.3782
   12MOL  Cl105 1447   8.848   3.290   6.386  0.3396 -0.1392  0.4705
   12MOL  Cl106 1448   8.852   3.475   6.162  0.0910 -0.0976 -0.0465
   12MOL   C107 1449   8.698   3.516   6.374  0.1576  0.1739  0.7296
   12MOL   H108 1450   8.687   3.615   6.330  0.3297 -0.5873 -1.0760
   12MOL   H109 1451   8.634   3.451   6.314  0.7605  0.5413 -0.3171
   12MOL   C110 1452   8.640   3.509   6.515  0.3366  0.2680  0.9659
   12MOL  Cl111 1453   8.749   3.571   6.639 -0.1722 -0.1587  0.4039
   12MOL  Cl112 1454   8.580   3.347   6.577 -0.1144  0.0647  0.0298
   12MOL   C113 1455   8.513   3.603   6.523 -0.5014 -0.0545  0.7259
   12MOL   H114 1456   8.490   3.609   6.629  1.3170  0.4020  1.0997
   12MOL   H115 1457   8.554   3.700   6.497  0.9742 -0.8445 -0.0020
   12MOL   C116 1458   8.382   3.585   6.441  0.6748 -0.3587 -0.2155
   12MOL  Cl117 1459   8.312   3.416   6.448 -0.5494  0.0675 -0.0813
   12MOL  Cl118 1460   8.420   3.639   6.276  0.0590  0.0089  0.1869
   12MOL   C119 1461   8.280   3.688   6.488 -0.5606 -0.1794 -0.1937
   12MOL   H120 1462   8.202   3.698   6.413 -0.1510 -0.6643 -0.6914
   12MOL   H121 1463   8.245   3.666   6.588  0.7780  0.5509  0.4526
   12MOL   H122 1464   8.316   3.789   6.508  0.4405 -1.0867  2.7960
   13MOL     C1 1465   0.869   1.895   5.177 -0.4912  0.6172 -0.2530
   13MOL    Cl2 1466   1.010   1.992   5.200  0.1174  0.2370  0.1445
   13MOL    Cl3 1467   0.917   1.728   5.141  0.3014 -0.3739  0.0058
   13MOL     C4 1468   0.773   1.928   5.296 -0.0430 -0.0986 -0.4704
   13MOL     H5 1469   0.824   1.926   5.393  0.2403  0.0845 -0.6144
   13MOL     H6 1470   0.762   2.036   5.284 -0.3237 -0.2197 -1.3727
   13MOL     H7 1471   0.829   1.937   5.084  0.4791 -2.3512 -2.0598
   13MOL     C8 1472   0.635   1.859   5.302  0.0724  0.3477 -0.1425
   13MOL    Cl9 1473   0.556   1.887   5.143  0.2807  0.2046 -0.4246
   13MOL   Cl10 1474   0.539   1.964   5.411 -0.5004 -0.1498 -0.4047
   13MOL    C11 1475   0.621   1.710   5.344  0.3065 -0.3255 -0.3809
   13MOL    H12 1476   0.523   1.667   5.329  1.2222 -2.4273 -0.4672
   13MOL    H13 1477   0.691   1.655   5.281  1.1654  0.5535 -0.2197
   13MOL    C14 1478   0.673   1.651   5.479 -0.0550  0.4648  0.5065
   13MOL   Cl15 1479   0.616   1.754   5.620 -0.2908  0.0177 -0.0136
   13MOL   Cl16 1480   0.850   1.661   5.477 -0.4510  0.0258 -0.0435
   13MOL    C17 1481   0.623   1.506   5.503 -0.1566  1.3204 -0.0136
   13MOL    H18 1482   0.665   1.475   5.598 -2.6291  1.7677  1.2636
   13MOL    H19 1483   0.515   1.506   5.519 -0.9005  0.9230 -4.2594
   13MOL    C20 1484   0.645   1.391   5.401  0.0232  0.8906  0.5628
   13MOL   Cl21 1485   0.829   1.387   5.367 -0.4488  0.1792 -0.1447
   13MOL   Cl22 1486   0.562   1.426   5.250  0.2226  0.3487 -0.3247
   13MOL    C23 1487   0.587   1.247   5.437 -0.2741 -0.3206 -0.7745
   13MOL    H24 1488   0.478   1.253   5.444 -0.1510  0.3030  0.6340
   13MOL    H25 1489   0.606   1.177   5.356  0.0232 -1.6572  0.4494
   13MOL    C26 1490   0.624   1.182   5.573 -0.2445 -0.5101  0.5128
   13MOL   Cl27 1491   0.549   1.282   5.704 -0.1172  0.1481 -0.3092
   13MOL   Cl28 1492   0.807   1.168   5.597  0.0655 -0.6522 -0.0167
   13MOL    C29 1493   0.580   1.037   5.580  0.3056 -0.7551 -0.1339
   13MOL    H30 1494   0.640   0.972   5.516  1.8163 -1.4238  1.9210
   13MOL    H31 1495   0.589   1.000   5.682  0.7908 -0.8877 -0.2204
   13MOL    C32 1496   0.440   0.993   5.550 -0.3968 -0.2254 -0.5960
   13MOL   Cl33 1497   0.404   0.996   5.370 -0.2802  0.1203 -0.1469
   13MOL   Cl34 1498   0.315   1.084   5.643 -0.1410 -0.1011  0.1290
   13MOL    C35 1499   0.419   0.843   5.604 -0.1179 -0.5508  0.0307
   13MOL    H36 1500   0.418   0.841   5.713 -1.9680  1.6010  0.0828
   13MOL    H37 1501   0.317   0.816   5.576 -0.4122 -1.0038  1.4881
   13MOL    C38 1502   0.516   0.722   5.560 -0.3469  0.0291  0.7696
   13MOL   Cl39 1503   0.673   0.737   5.646 -0.0296 -0.0764 -0.2509
   13MOL   Cl40 1504   0.540   0.733   5.380 -0.2185  0.1869  0.0701
   13MOL    C41 1505   0.446   0.586   5.585 -0.3714  0.1926 -0.7897
   13MOL    H42 1506   0.367   0.574   5.512 -1.2829  4.1276 -0.5716
   13MOL    H43 1507   0.516   0.506   5.562  0.5252  1.2951 -1.9309
   13MOL    C44 1508   0.391   0.552   5.728 -0.2802  0.0654  0.8965
   13MOL   Cl45 1509   0.243   0.640   5.759 -0.0235 -0.1033 -0.0358
   13MOL   Cl46 1510   0.505   0.584   5.862  0.6405  0.2513 -0.2009
   13MOL    C47 1511   0.366   0.397   5.753 -0.5604 -0.0164 -0.1524
   13MOL    H48 1512   0.469   0.362   5.758  0.2899  2.4649  0.7294
   13MOL    H49 1513   0.336   0.396   5.858 -0.1688 -1.0286 -0.0408
   13MOL    C50 1514   0.281   0.312   5.658 -0.2198  0.4494 -0.2983
   13MOL   Cl51 1515   0.363   0.303   5.500 -0.3256 -0.0137  0.0929
   13MOL   Cl52 1516   0.114   0.369   5.640 -0.0292 -0.2648  0.6012
   13MOL    C53 1517   0.277   0.169   5.720  0.2275 -0.1219  0.3636
   13MOL    H54 1518   0.184   0.157   5.777  1.0536  0.7272  1.9099
   13MOL    H55 1519   0.254   0.107   5.633 -0.7224 -0.9091  1.1495
   13MOL    C56 1520   0.399   0.097   5.784  0.0572 -0.3844 -0.0779
   13MOL   Cl57 1521   0.425   0.170   5.943 -0.3075 -0.0729  0.0521
   13MOL   Cl58 1522   0.548   0.114   5.688  0.2699 -0.1708 -0.0778
   13MOL    C59 1523   0.381   9.128   5.811  0.1740  0.1459 -0.1602
   13MOL    H60 1524   0.383   9.072   5.718 -1.7234  0.4339 -0.3929
   13MOL    H61 1525   0.476   9.105   5.860  0.4247  2.4235  0.4776
   13MOL    C62 1526   0.255   9.067   5.878 -0.8968  0.2296 -0.4919
   13MOL   Cl63 1527   0.122   9.078   5.757 -0.1158  0.0441 -0.0874
   13MOL   Cl64 1528   0.199   9.160   6.013  0.1929 -0.1869 -0.1231
   13MOL    C65 1529   0.266   8.909   5.916  1.0500  0.4723 -0.0317
   13MOL    H66 1530   0.182   8.883   5.981  0.8709  2.5429  0.6077
   13MOL    H67 1531   0.267   8.853   5.823  1.0332 -3.2407  2.1161
   13MOL    C68 1532   0.388   8.861   6.000 -0.1592 -0.0581 -0.7954
   13MOL   Cl69 1533   0.425   8.957   6.147 -0.1493 -0.1211  0.2715
   13MOL   Cl70 1534   0.523   8.862   5.892  0.1321  0.0616  0.0420
   13MOL    C71 1535   0.383   8.711   6.041  0.2437  0.3850  0.1657
   13MOL    H72 1536   0.428   8.644   5.967 -1.2379 -0.2287 -0.2038
   13MOL    H73 1537   0.465   8.709   6.112 -1.2380  1.0742  1.9524
   13MOL    C74 1538   0.257   8.639   6.095  0.7144  0.2145  0.0134
   13MOL   Cl75 1539   0.157   8.596   5.955 -0.3403  0.0696  0.0686
   13MOL   Cl76 1540   0.147   8.743   6.202 -0.0210  0.3692  0.2811
   13MOL    C77 1541   0.283   8.512   6.180  0.6334 -0.4579  0.0914
   13MOL    H78 1542   0.310   8.535   6.283 -0.3128 -1.2870  0.5282
   13MOL    H79 1543   0.182   8.475   6.195 -0.3619  1.2980 -1.8779
   13MOL    C80 1544   0.370   8.393   6.141  0.1372  0.5331 -0.3297
   13MOL   Cl81 1545   0.540   8.449   6.117  0.1514  0.1554 -0.0603
   13MOL   Cl82 1546   0.316   8.318   5.992  0.1380  0.0079  0.3052
   13MOL    C83 1547   0.370   8.275   6.240 -0.2242  0.1953  0.3061
   13MOL    H84 1548   0.428   8.197   6.191  0.5391  1.4552 -0.8218
   13MOL    H85 1549   0.433   8.304   6.323  0.1504 -1.4817  0.6191
   13MOL    C86 1550   0.242   8.216   6.316  0.0977 -1.0402 -0.3082
   13MOL   Cl87 1551   0.127   8.173   6.185 -0.0929 -0.3311 -0.2296
   13MOL   Cl88 1552   0.172   8.336   6.432 -0.0980  0.2574 -0.0857
   13MOL    C89 1553   0.265   8.080   6.390  0.1838 -0.2664 -0.6051
   13MOL    H90 1554   0.172   8.040   6.431  1.4694 -2.4110  0.3196
   13MOL    H91 1555   0.302   8.009   6.316  0.5354 -2.7023  1.8152
   13MOL    C92 1556   0.362   8.071   6.512  0.0028  0.2774 -0.2001
   13MOL   Cl93 1557   0.316   8.171   6.653 -0.3063 -0.6427 -0.1828
   13MOL   Cl94 1558   0.524   8.123   6.461  0.0075 -0.0760 -0.1239
   13MOL    C95 1559   0.384   7.922   6.564  0.1768  0.3884 -0.6492
   13MOL    H96 1560   0.457   7.875   6.498  0.7191 -0.5184  0.5787
   13MOL    H97 1561   0.447   7.928   6.653 -1.8658  0.3654  0.8607
   13MOL    C98 1562   0.271   7.811   6.577 -0.6976 -0.1010  0.1444
   13MOL   Cl99 1563   0.226   7.754   6.420  0.1168 -0.6102 -0.1607
   13MOL  Cl100 1564   0.123   7.878   6.651 -0.4494 -0.0495 -0.1461
   13MOL   C101 1565   0.330   7.693   6.668  0.4622 -0.3179  0.5101
   13MOL   H102 1566   0.433   7.689   6.631 -0.2491 -0.8288 -1.4465
   13MOL   H103 1567   0.333   7.732   6.770 -1.2599  1.8056 -0.2036
   13MOL   C104 1568   0.281   7.550   6.678 -0.4007  0.4766 -0.2127
   13MOL  Cl105 1569   0.293   7.462   6.521  0.6297  0.1312  0.0472
   13MOL  Cl106 1570   0.110   7.545   6.735  0.2288  0.1360 -0.0218
   13MOL   C107 1571   0.349   7.466   6.792  0.3682  0.4424 -0.9118
   13MOL   H108 1572   0.346   7.532   6.878 -1.6385  0.7815 -1.2012
   13MOL   H109 1573   0.281   7.381   6.807  0.6343  0.7006  2.0010
   13MOL   C110 1574   0.488   7.403   6.774 -0.4805 -0.1929 -0.0307
   13MOL  Cl111 1575   0.593   7.525   6.711  0.4257 -0.0154 -0.0920
   13MOL  Cl112 1576   0.480   7.273   6.661  0.0450  0.5253  0.1046
   13MOL   C113 1577   0.547   7.328   6.891 -0.0389  0.6771 -0.3569
   13MOL   H114 1578   0.484   7.240   6.905  3.2695 -1.6873  0.2934
   13MOL   H115 1579   0.647   7.297   6.861  0.1791  2.1510 -1.2146
   13MOL   C116 1580   0.560   7.391   7.032 -0.8010  0.3326 -0.0830
   13MOL  Cl117 1581   0.404   7.397   7.121 -0.2240 -0.4002  0.0975
   13MOL  Cl118 1582   0.622   7.557   7.035 -0.2598  0.3155  0.1025
   13MOL   C119 1583   0.650   7.307   7.125  0.1538  0.1556  0.3970
   13MOL   H120 1584   0.754   7.329   7.099  0.4078 -0.9553  0.4421
   13MOL   H121 1585   0.648   7.339   7.229 -3.5200  2.6331 -0.3288
   13MOL   H122 1586   0.616   7.206   7.103 -1.4058  0.4204  1.5445
   14MOL     C1 1587   5.495   5.977   5.667 -0.5519 -0.1129 -1.0494
   14MOL    Cl2 1588   5.618   5.835   5.679  0.0314 -0.3370 -0.1182
   14MOL    Cl3 1589   5.497   6.035   5.837 -0.1220 -0.0511  0.1219
   14MOL     C4 1590   5.542   6.082   5.564  0.5088  0.0543 -0.4963
   14MOL     H5 1591   5.615   6.145   5.615  1.8492  0.0384 -2.3285
   14MOL     H6 1592   5.589   6.030   5.480 -0.4223 -1.0480 -0.3410
   14MOL     H7 1593   5.398   5.930   5.647  0.4122 -2.5932 -0.1109
   14MOL     C8 1594   5.429   6.168   5.487 -0.6354  0.2429 -0.4678
   14MOL    Cl9 1595   5.352   6.268   5.611  0.0219  0.0709 -0.0050
   14MOL   Cl10 1596   5.309   6.056   5.422 -0.0752  0.1907 -0.0794
   14MOL    C11 1597   5.494   6.255   5.381 -0.4508 -0.4777  0.2210
   14MOL    H12 1598   5.577   6.304   5.431  2.5874 -2.4198 -2.6785
   14MOL    H13 1599   5.536   6.185   5.308 -0.4200  0.9105 -1.1207
   14MOL    C14 1600   5.420   6.357   5.287  0.4747 -0.4187 -0.5059
   14MOL   Cl15 1601   5.295   6.286   5.196  0.1347  0.3551  0.0186
   14MOL   Cl16 1602   5.549   6.401   5.168 -0.2092  0.0136  0.1822
   14MOL    C17 1603   5.363   6.487   5.360  0.0269 -0.0761  0.3829
   14MOL    H18 1604   5.320   6.450   5.453 -0.5119 -0.1414  0.1075
   14MOL    H19 1605   5.452   6.548   5.377 -0.5537  0.5107  1.3563
   14MOL    C20 1606   5.261   6.578   5.288 -0.1551 -0.4102 -0.2638
   14MOL   Cl21 1607   5.247   6.732   5.377 -0.3630  0.2496 -0.6553
   14MOL   Cl22 1608   5.098   6.501   5.306 -0.3703 -0.2550  0.0328
   14MOL    C23 1609   5.297   6.629   5.146  0.2971 -1.0480  0.6019
   14MOL    H24 1610   5.360   6.718   5.154 -1.5189  0.4306 -1.0629
   14MOL    H25 1611   5.366   6.559   5.100  0.2442  1.1220 -2.9453
   14MOL    C26 1612   5.183   6.660   5.050 -0.5166  0.4127 -0.2550
   14MOL   Cl27 1613   5.120   6.504   4.993  0.1797 -0.6220  0.2616
   14MOL   Cl28 1614   5.271   6.732   4.910  0.1606 -0.1090 -0.5908
   14MOL    C29 1615   5.073   6.770   5.100 -0.4210  0.2456 -0.3705
   14MOL    H30 1616   5.046   6.736   5.200  3.0761 -1.0146  0.2042
   14MOL    H31 1617   5.117   6.865   5.130 -1.8567 -0.2794  3.7478
   14MOL    C32 1618   4.941   6.801   5.021  0.8957  0.3536  0.3282
   14MOL   Cl33 1619   4.877   6.947   5.098 -0.6485 -0.3509 -0.1985
   14MOL   Cl34 1620   4.823   6.666   5.036  0.1342  0.0121  0.1807
   14MOL    C35 1621   4.967   6.844   4.879 -0.0720 -0.1719 -0.4215
   14MOL    H36 1622   5.040   6.925   4.874 -0.5590  0.2159 -1.4062
   14MOL    H37 1623   5.020   6.765   4.826 -1.4713  0.0995 -2.2939
   14MOL    C38 1624   4.845   6.887   4.783 -0.0291  1.2954 -0.0809
   14MOL   Cl39 1625   4.769   6.733   4.731  0.4334 -0.2473 -0.2512
   14MOL   Cl40 1626   4.922   6.967   4.646  0.4369  0.0878  0.1418
   14MOL    C41 1627   4.733   6.982   4.838  0.3301  0.2462  0.2910
   14MOL    H42 1628   4.692   6.940   4.929 -1.2057 -2.0914 -1.4139
   14MOL    H43 1629   4.784   7.071   4.876 -0.1304  0.3380  0.6955
   14MOL    C44 1630   4.618   7.047   4.755 -0.4527  0.1837 -0.3231
   14MOL   Cl45 1631   4.677   7.184   4.637 -0.0857  0.0551  0.1827
   14MOL   Cl46 1632   4.508   7.120   4.876  0.2223 -0.4244  0.2473
   14MOL    C47 1633   4.533   6.941   4.668 -0.3438  0.0070 -0.4777
   14MOL    H48 1634   4.612   6.902   4.603 -0.0407  2.0013 -1.3201
   14MOL    H49 1635   4.506   6.847   4.718  0.6585 -0.9152 -1.6260
   14MOL    C50 1636   4.406   6.967   4.580 -0.4341  0.2540 -0.5816
   14MOL   Cl51 1637   4.401   7.129   4.508 -0.1064 -0.0055 -0.0533
   14MOL   Cl52 1638   4.261   6.963   4.684 -0.3909 -0.1753  0.0239
   14MOL    C53 1639   4.395   6.860   4.463  0.1518 -0.3681  0.2791
   14MOL    H54 1640   4.318   6.898   4.396 -0.3676 -2.3563 -0.2798
   14MOL    H55 1641   4.481   6.875   4.398 -1.4160 -1.1054 -2.0505
   14MOL    C56 1642   4.389   6.705   4.468  0.9898 -0.4306 -0.0044
   14MOL   Cl57 1643   4.243   6.650   4.565 -0.2020  0.1633  0.4268
   14MOL   Cl58 1644   4.529   6.639   4.548  0.3310 -0.0988  0.3529
   14MOL    C59 1645   4.378   6.661   4.322 -0.1580 -0.0565  0.0369
   14MOL    H60 1646   4.303   6.714   4.263 -0.5851 -0.5083  0.1772
   14MOL    H61 1647   4.470   6.692   4.271 -0.2228  2.1358  1.1776
   14MOL    C62 1648   4.375   6.516   4.263  0.2016  0.2465 -0.8694
   14MOL   Cl63 1649   4.545   6.445   4.276  0.0547  0.0460 -0.1171
   14MOL   Cl64 1650   4.324   6.529   4.094 -0.1948  0.1711 -0.2471
   14MOL    C65 1651   4.272   6.422   4.335  0.4454 -0.3584  0.7179
   14MOL    H66 1652   4.282   6.433   4.443 -3.5314 -1.4133  1.2756
   14MOL    H67 1653   4.171   6.458   4.312 -0.1439 -2.6921 -0.4912
   14MOL    C68 1654   4.275   6.266   4.296  0.0692  0.2777 -0.0455
   14MOL   Cl69 1655   4.328   6.231   4.128  0.5457  0.1694 -0.5221
   14MOL   Cl70 1656   4.102   6.221   4.288  0.0178 -0.2306 -0.0220
   14MOL    C71 1657   4.360   6.169   4.378  0.1895 -0.1265 -0.4433
   14MOL    H72 1658   4.349   6.074   4.327 -0.8570 -0.4904  0.4439
   14MOL    H73 1659   4.468   6.179   4.363  0.2550 -0.8207 -0.4504
   14MOL    C74 1660   4.340   6.158   4.534 -0.4130 -0.4989 -0.4516
   14MOL   Cl75 1661   4.415   6.299   4.611  0.2414  0.2954  0.4369
   14MOL   Cl76 1662   4.448   6.015   4.571 -0.4009  0.1963 -0.2202
   14MOL    C77 1663   4.191   6.142   4.577  0.3778  0.3505  0.1949
   14MOL    H78 1664   4.142   6.236   4.552 -0.3021  0.6877  2.6996
   14MOL    H79 1665   4.157   6.068   4.504  0.4571 -2.1657  2.6476
   14MOL    C80 1666   4.145   6.087   4.715 -0.7600  0.4830  0.3808
   14MOL   Cl81 1667   4.230   6.183   4.843 -0.4489  0.3091 -0.0890
   14MOL   Cl82 1668   4.181   5.910   4.731 -0.3623 -0.2876 -0.2662
   14MOL    C83 1669   3.989   6.106   4.736 -0.0329 -0.4823  0.0755
   14MOL    H84 1670   3.932   6.031   4.681  0.2953 -2.1969  2.0068
   14MOL    H85 1671   3.977   6.077   4.840  1.1932  1.6373  0.8187
   14MOL    C86 1672   3.925   6.251   4.705 -0.2246  0.5329 -0.2563
   14MOL   Cl87 1673   3.882   6.262   4.530 -0.0984 -0.0410 -0.3771
   14MOL   Cl88 1674   4.034   6.388   4.735 -0.3270 -0.1554 -0.1054
   14MOL    C89 1675   3.792   6.280   4.778 -0.3036  0.0206  0.5120
   14MOL    H90 1676   3.818   6.312   4.879 -2.0967  1.7103  0.4713
   14MOL    H91 1677   3.746   6.369   4.735 -1.6413 -0.5629  0.7143
   14MOL    C92 1678   3.679   6.178   4.805  0.6247 -0.1692 -0.2242
   14MOL   Cl93 1679   3.731   6.040   4.908  0.1994 -0.3775  0.0943
   14MOL   Cl94 1680   3.619   6.090   4.661 -0.3137  0.0982 -0.0100
   14MOL    C95 1681   3.552   6.233   4.860  0.9161 -0.1731 -0.3733
   14MOL    H96 1682   3.508   6.303   4.790 -0.4696 -2.5472 -1.9199
   14MOL    H97 1683   3.479   6.153   4.853  1.5851 -0.8870  0.6581
   14MOL    C98 1684   3.535   6.306   4.996 -0.6188  0.1517 -0.0558
   14MOL   Cl99 1685   3.643   6.445   5.011  0.1392 -0.5671 -0.1816
   14MOL  Cl100 1686   3.568   6.178   5.120  0.0593  0.2275 -0.2541
   14MOL   C101 1687   3.382   6.355   5.002  0.5640  0.1427 -0.7430
   14MOL   H102 1688   3.383   6.444   4.939  1.1111 -1.0068 -2.3814
   14MOL   H103 1689   3.322   6.281   4.950 -0.1256  1.1224 -1.3619
   14MOL   C104 1690   3.313   6.378   5.139  0.2759  0.4783 -0.2801
   14MOL  Cl105 1691   3.277   6.225   5.214  0.2337  0.2502 -0.3746
   14MOL  Cl106 1692   3.149   6.437   5.108  0.1912 -0.1044 -0.1350
   14MOL   C107 1693   3.390   6.471   5.238 -0.1321  0.8052 -0.1935
   14MOL   H108 1694   3.486   6.424   5.257 -1.1193 -2.1049 -2.1767
   14MOL   H109 1695   3.414   6.562   5.182  2.9934 -1.0579 -1.9922
   14MOL   C110 1696   3.325   6.531   5.365 -0.3276 -0.5718  0.3706
   14MOL  Cl111 1697   3.217   6.660   5.310  0.2574 -0.0461 -0.3211
   14MOL  Cl112 1698   3.460   6.603   5.458  0.6870 -0.2607  0.0479
   14MOL   C113 1699   3.253   6.419   5.451  0.3323 -0.1383 -0.0035
   14MOL   H114 1700   3.164   6.392   5.394  1.6970 -1.1485 -1.6982
   14MOL   H115 1701   3.320   6.333   5.442  2.4166  1.5594 -1.1903
   14MOL   C116 1702   3.222   6.437   5.605  0.3347  0.5245 -1.0986
   14MOL  Cl117 1703   3.351   6.381   5.715 -0.1453 -0.2177  0.3350
   14MOL  Cl118 1704   3.078   6.335   5.626 -0.3637  0.4506  0.0301
   14MOL   C119 1705   3.173   6.576   5.646 -0.4405  0.0349 -0.2328
   14MOL   H120 1706   3.243   6.658   5.626 -1.7356  0.7812 -1.8221
   14MOL   H121 1707   3.081   6.604   5.594 -0.5117  1.5207  0.6753
   14MOL   H122 1708   3.151   6.587   5.752  0.9184 -1.2629  0.2008
   15MOL     C1 1709   4.829   6.877   6.281  0.4062  0.2672 -0.7363
   15MOL    Cl2 1710   5.006   6.822   6.283 -0.3024 -0.1271 -0.2331
   15MOL    Cl3 1711   4.744   6.794   6.146  0.2138 -0.1182  0.5334
   15MOL     C4 1712   4.776   6.855   6.427  0.2333 -0.4298  0.0532
   15MOL     H5 1713   4.670   6.832   6.413  0.0993 -1.1660  2.1729
   15MOL     H6 1714   4.809   6.762   6.473  2.1101  0.7661  1.2070
   15MOL     H7 1715   4.829   6.979   6.245  0.7414 -0.0805 -1.7240
   15MOL     C8 1716   4.792   6.966   6.540 -0.4074  0.4424  0.1131
   15MOL    Cl9 1717   4.687   7.107   6.510 -0.2371  0.2289  0.0393
   15MOL   Cl10 1718   4.963   7.032   6.524  0.2441  0.1011  0.0923
   15MOL    C11 1719   4.772   6.914   6.685 -0.6786  0.3476  0.1753
   15MOL    H12 1720   4.862   6.860   6.714  0.5806  1.4883 -1.4493
   15MOL    H13 1721   4.773   7.002   6.750 -0.0526  0.1491  0.4403
   15MOL    C14 1722   4.653   6.823   6.729  0.0105 -0.0843  0.0475
   15MOL   Cl15 1723   4.678   6.648   6.694  0.0686  0.0890  0.2226
   15MOL   Cl16 1724   4.508   6.872   6.638 -0.0869  0.0532  0.0728
   15MOL    C17 1725   4.613   6.850   6.879  0.0108 -0.3015 -0.6139
   15MOL    H18 1726   4.564   6.947   6.874  0.3002 -0.2308 -2.1117
   15MOL    H19 1727   4.528   6.782   6.894 -0.5221  0.9019  2.2778
   15MOL    C20 1728   4.717   6.839   6.998  0.6651 -0.2162  0.3787
   15MOL   Cl21 1729   4.849   6.950   6.991  0.3359  0.4383 -0.3969
   15MOL   Cl22 1730   4.793   6.680   6.985  0.1493  0.0687  0.2729
   15MOL    C23 1731   4.654   6.840   7.146 -0.6396  0.9332  0.3520
   15MOL    H24 1732   4.596   6.748   7.149  0.2610  0.3528  0.1887
   15MOL    H25 1733   4.736   6.825   7.216  0.6547  1.1201 -1.0916
   15MOL    C26 1734   4.565   6.955   7.194  0.1938  0.1608  0.4041
   15MOL   Cl27 1735   4.410   6.937   7.113 -0.3099  0.0814 -0.2240
   15MOL   Cl28 1736   4.633   7.119   7.162 -0.3507 -0.2247  0.5070
   15MOL    C29 1737   4.544   6.942   7.345  0.3826  0.8834 -0.1868
   15MOL    H30 1738   4.534   6.838   7.374  1.2725  0.7912 -0.1794
   15MOL    H31 1739   4.646   6.959   7.381  0.7893 -0.8088 -0.5132
   15MOL    C32 1740   4.442   7.021   7.429 -0.2669  0.1495  0.1726
   15MOL   Cl33 1741   4.502   7.192   7.444  0.3962  0.0428  0.7633
   15MOL   Cl34 1742   4.461   6.952   7.598 -0.4836  0.4050  0.2834
   15MOL    C35 1743   4.295   7.026   7.381  0.2391 -0.3013  0.1218
   15MOL    H36 1744   4.248   7.103   7.442 -1.8311  0.0313 -1.8195
   15MOL    H37 1745   4.282   7.078   7.286  0.1090 -0.2781  0.1525
   15MOL    C38 1746   4.198   6.907   7.404 -0.1393  0.4474 -0.3160
   15MOL   Cl39 1747   4.145   6.910   7.574 -0.1381 -0.5700  0.4707
   15MOL   Cl40 1748   4.294   6.754   7.400  0.0652 -0.1251 -0.2296
   15MOL    C41 1749   4.074   6.890   7.318  0.1534 -0.2663  0.6881
   15MOL    H42 1750   4.100   6.867   7.215 -2.5220  1.9216 -0.5229
   15MOL    H43 1751   4.034   6.794   7.352  2.5542 -1.9354 -0.9911
   15MOL    C44 1752   3.961   6.999   7.306 -0.1841  0.0047 -0.0187
   15MOL   Cl45 1753   4.037   7.136   7.216 -0.0618 -0.1195  0.0594
   15MOL   Cl46 1754   3.911   7.063   7.469 -0.0538  0.2145 -0.3107
   15MOL    C47 1755   3.833   6.969   7.230  0.7484 -0.1515  0.4806
   15MOL    H48 1756   3.775   7.059   7.247  1.0960  0.1424  0.1003
   15MOL    H49 1757   3.848   6.986   7.123 -1.2289 -0.1773  0.1773
   15MOL    C50 1758   3.758   6.833   7.252  0.0883 -0.0186  0.1655
   15MOL   Cl51 1759   3.757   6.785   7.428  0.0119 -0.0479 -0.5087
   15MOL   Cl52 1760   3.845   6.702   7.156 -0.1318 -0.5294  0.0866
   15MOL    C53 1761   3.609   6.830   7.197  0.1815  0.3276 -0.1170
   15MOL    H54 1762   3.595   6.724   7.214  1.1336  0.3985  1.1647
   15MOL    H55 1763   3.544   6.881   7.267 -0.5035 -1.4647  0.5641
   15MOL    C56 1764   3.563   6.863   7.048 -0.5072 -0.2265 -0.6330
   15MOL   Cl57 1765   3.668   6.778   6.934 -0.1675  0.1805  0.0878
   15MOL   Cl58 1766   3.587   7.042   7.025  0.3397  0.0864  0.1848
   15MOL    C59 1767   3.411   6.826   7.027 -0.1919  0.4234 -0.4895
   15MOL    H60 1768   3.393   6.726   7.068  1.8901 -0.0859 -0.7532
   15MOL    H61 1769   3.362   6.887   7.102 -2.4840 -4.3038  2.0939
   15MOL    C62 1770   3.335   6.836   6.896  0.7509  0.5667  0.0495
   15MOL   Cl63 1771   3.321   7.005   6.837  0.7597  0.0655  0.0903
   15MOL   Cl64 1772   3.174   6.777   6.940  0.1069 -0.1651  0.0307
   15MOL    C65 1773   3.398   6.743   6.782 -1.2781  0.4085  0.0174
   15MOL    H66 1774   3.498   6.779   6.759 -0.0499 -2.4952  0.6857
   15MOL    H67 1775   3.418   6.644   6.821  0.0955  0.4629 -0.5069
   15MOL    C68 1776   3.342   6.723   6.638 -0.3035  0.0726 -0.1947
   15MOL   Cl69 1777   3.439   6.596   6.568  0.3517  0.0901  0.1999
   15MOL   Cl70 1778   3.371   6.871   6.547 -0.1705 -0.0628  0.3110
   15MOL    C71 1779   3.190   6.683   6.630 -0.5197  0.6567  0.1861
   15MOL    H72 1780   3.188   6.601   6.702 -2.2404 -1.0546 -1.7346
   15MOL    H73 1781   3.136   6.768   6.672 -1.1695 -0.4476  1.6423
   15MOL    C74 1782   3.121   6.632   6.499  0.8248  0.6023 -0.2789
   15MOL   Cl75 1783   2.944   6.664   6.525 -0.0323  0.0993 -0.1169
   15MOL   Cl76 1784   3.149   6.459   6.492 -0.0090  0.1013  0.0514
   15MOL    C77 1785   3.150   6.706   6.367 -0.3704 -0.1227 -0.3428
   15MOL    H78 1786   3.107   6.806   6.369 -1.7087 -0.6941 -0.3718
   15MOL    H79 1787   3.252   6.744   6.354 -0.1610 -0.2418  0.8936
   15MOL    C80 1788   3.112   6.642   6.222 -0.2419  0.1527  0.5970
   15MOL   Cl81 1789   3.237   6.518   6.180 -0.0002  0.0970  0.1939
   15MOL   Cl82 1790   3.146   6.770   6.097  0.0460 -0.1251 -0.2568
   15MOL    C83 1791   2.970   6.573   6.204  1.2980 -0.5494  0.1897
   15MOL    H84 1792   2.986   6.480   6.259  1.0684 -1.2809 -0.9759
   15MOL    H85 1793   2.895   6.630   6.259 -0.2244  0.1426 -2.5030
   15MOL    C86 1794   2.899   6.534   6.071  0.3562 -0.9384  0.8239
   15MOL   Cl87 1795   2.999   6.417   5.982  0.0525 -0.1915  0.1032
   15MOL   Cl88 1796   2.874   6.673   5.968  0.0611 -0.1377 -0.0401
   15MOL    C89 1797   2.760   6.467   6.100 -0.9666  0.5057 -0.6727
   15MOL    H90 1798   2.773   6.362   6.125 -3.1128  1.0321  3.1072
   15MOL    H91 1799   2.735   6.499   6.202  0.4908  0.0092 -0.1457
   15MOL    C92 1800   2.645   6.465   5.994  0.2633  0.3828 -1.0219
   15MOL   Cl93 1801   2.540   6.325   6.030 -0.0460  0.5695  0.0553
   15MOL   Cl94 1802   2.708   6.421   5.826 -0.2257 -0.1709 -0.5201
   15MOL    C95 1803   2.554   6.593   5.982  0.0345 -0.7382  0.1513
   15MOL    H96 1804   2.612   6.663   5.923  0.8153  0.2415  2.0243
   15MOL    H97 1805   2.475   6.545   5.925 -0.9318  0.0439  0.8127
   15MOL    C98 1806   2.509   6.667   6.112  0.2799 -0.1637  0.1351
   15MOL   Cl99 1807   2.651   6.748   6.189  0.0319 -0.0595 -0.2463
   15MOL  Cl100 1808   2.433   6.553   6.229  0.2234 -0.4495 -0.0651
   15MOL   C101 1809   2.401   6.784   6.088  0.4442  0.3363  0.4360
   15MOL   H102 1810   2.399   6.837   6.183 -0.3938  1.1820 -0.0425
   15MOL   H103 1811   2.454   6.853   6.023  2.4848 -0.5541  1.1115
   15MOL   C104 1812   2.260   6.774   6.020  0.4229 -0.1790 -0.3000
   15MOL  Cl105 1813   2.281   6.730   5.852 -0.2301  0.2625  0.1915
   15MOL  Cl106 1814   2.211   6.943   6.030  0.5315 -0.4457  0.7402
   15MOL   C107 1815   2.152   6.681   6.077 -0.8904 -0.6895 -0.2530
   15MOL   H108 1816   2.091   6.636   5.999 -1.0829 -2.3316  0.8235
   15MOL   H109 1817   2.213   6.595   6.106  1.2976  0.1897 -2.0141
   15MOL   C110 1818   2.063   6.715   6.198 -0.2864  0.0394  0.0843
   15MOL  Cl111 1819   2.168   6.773   6.333 -0.3291 -0.0452 -0.5906
   15MOL  Cl112 1820   1.984   6.562   6.259  0.0052  0.3219  0.1033
   15MOL   C113 1821   1.950   6.820   6.182 -0.0579 -0.2911  1.0963
   15MOL   H114 1822   1.897   6.823   6.277 -0.9314 -1.9555  0.6730
   15MOL   H115 1823   2.011   6.910   6.173 -1.0997  0.0817 -3.3838
   15MOL   C116 1824   1.846   6.819   6.065  0.5913 -0.1214 -0.1200
   15MOL  Cl117 1825   1.908   6.890   5.912  0.2022  0.0228  0.3539
   15MOL  Cl118 1826   1.712   6.927   6.105 -0.0871  0.3598 -0.0671
   15MOL   C119 1827   1.782   6.685   6.039  0.0893 -0.5319  0.2503
   15MOL   H120 1828   1.738   6.650   6.132 -1.3806  0.1113 -0.1887
   15MOL   H121 1829   1.693   6.691   5.976  0.1501  2.1287  0.3476
   15MOL   H122 1830   1.837   6.606   5.989  0.6220  1.9080 -3.2710
   16MOL     C1 1831   2.596   7.563   7.421 -0.6905 -0.0523 -0.3540
   16MOL    Cl2 1832   2.693   7.541   7.274  0.1509 -0.2219 -0.3137
   16MOL    Cl3 1833   2.652   7.421   7.513  0.2490  0.3740 -0.3397
   16MOL     C4 1834   2.608   7.699   7.496 -0.7067 -0.2668 -0.4669
   16MOL     H5 1835   2.608   7.694   7.605 -0.4659 -0.7856 -0.4889
   16MOL     H6 1836   2.712   7.720   7.469 -0.6482  0.4624  0.3330
   16MOL     H7 1837   2.494   7.542   7.388  0.0565 -1.9323 -1.5428
   16MOL     C8 1838   2.514   7.817   7.443 -0.0671 -0.9257 -0.0299
   16MOL    Cl9 1839   2.341   7.759   7.453  0.0323  0.2957 -0.3882
   16MOL   Cl10 1840   2.547   7.846   7.267 -0.1074  0.2171 -0.2892
   16MOL    C11 1841   2.542   7.949   7.517  0.5963  0.3792 -0.3339
   16MOL    H12 1842   2.488   8.023   7.458  0.4093  0.5520  0.0513
   16MOL    H13 1843   2.493   7.949   7.614  2.4719  0.3064  0.6281
   16MOL    C14 1844   2.686   8.004   7.541  0.7279 -0.1698 -0.9027
   16MOL   Cl15 1845   2.800   7.953   7.412  0.3078  0.3239 -0.3928
   16MOL   Cl16 1846   2.756   7.937   7.692 -0.0390  0.1525 -0.3184
   16MOL    C17 1847   2.694   8.159   7.539  0.1068 -1.0817  0.7071
   16MOL    H18 1848   2.799   8.185   7.528  0.0955 -0.5820  1.7427
   16MOL    H19 1849   2.644   8.198   7.451  1.0417  0.1110  0.6990
   16MOL    C20 1850   2.637   8.248   7.651 -0.6709 -0.0042 -0.6204
   16MOL   Cl21 1851   2.461   8.250   7.645  0.3154  0.3516 -0.0335
   16MOL   Cl22 1852   2.681   8.416   7.615 -0.0355  0.0779  0.0684
   16MOL    C23 1853   2.688   8.219   7.795 -0.0041  0.0231 -0.0749
   16MOL    H24 1854   2.615   8.145   7.829  1.4131 -1.2823  0.2204
   16MOL    H25 1855   2.786   8.171   7.789 -0.9028 -1.6114 -2.7658
   16MOL    C26 1856   2.699   8.327   7.912  0.5921  0.3458  0.9018
   16MOL   Cl27 1857   2.589   8.467   7.898 -0.0799  0.2701  0.0248
   16MOL   Cl28 1858   2.863   8.410   7.902 -0.3320 -0.1152  0.0704
   16MOL    C29 1859   2.666   8.277   8.057 -0.3379 -0.3309 -0.2780
   16MOL    H30 1860   2.688   8.359   8.125  0.1172 -0.3372 -0.4130
   16MOL    H31 1861   2.560   8.261   8.072 -0.2964  2.1232  3.4045
   16MOL    C32 1862   2.747   8.162   8.129  0.1055 -0.4947  0.5453
   16MOL   Cl33 1863   2.925   8.204   8.139 -0.1437  0.2871  0.1732
   16MOL   Cl34 1864   2.731   8.002   8.040  0.1625 -0.4006  0.0093
   16MOL    C35 1865   2.688   8.123   8.271  0.7411  0.0678  0.5502
   16MOL    H36 1866   2.591   8.083   8.243  1.3076 -0.7924 -0.1968
   16MOL    H37 1867   2.735   8.034   8.312  0.8101 -0.2696 -0.2521
   16MOL    C38 1868   2.678   8.236   8.393 -0.1413 -0.5362 -0.0390
   16MOL   Cl39 1869   2.561   8.365   8.358  0.1665  0.0700  0.2192
   16MOL   Cl40 1870   2.837   8.313   8.415 -0.2237 -0.2584  0.4183
   16MOL    C41 1871   2.639   8.151   8.518 -0.3055  0.1361  0.1468
   16MOL    H42 1872   2.543   8.104   8.498 -1.4055  2.9763 -1.5420
   16MOL    H43 1873   2.715   8.075   8.534  3.0338  3.6399  1.7731
   16MOL    C44 1874   2.614   8.214   8.659 -0.7546 -0.5716  0.1377
   16MOL   Cl45 1875   2.467   8.318   8.652 -0.3977 -0.1567  0.0303
   16MOL   Cl46 1876   2.755   8.313   8.716  0.1968  0.0968 -0.0860
   16MOL    C47 1877   2.597   8.101   8.763 -0.3812 -0.7264 -0.1076
   16MOL    H48 1878   2.551   8.017   8.713 -0.1994 -0.6994 -0.3193
   16MOL    H49 1879   2.699   8.064   8.768 -0.0251  0.2226 -0.1391
   16MOL    C50 1880   2.528   8.121   8.900  0.4093  0.2210 -0.2259
   16MOL   Cl51 1881   2.620   8.247   8.991 -0.3464 -0.3854 -0.0539
   16MOL   Cl52 1882   2.554   7.969   8.993 -0.3701  0.1460  0.0402
   16MOL    C53 1883   2.368   8.137   8.894 -0.0289 -0.1142  0.0705
   16MOL    H54 1884   2.350   8.236   8.852  0.3328  0.1366  0.5014
   16MOL    H55 1885   2.323   8.075   8.816 -0.3892  0.2898 -0.0421
   16MOL    C56 1886   2.277   8.106   9.011 -1.0531  0.1739  0.0730
   16MOL   Cl57 1887   2.263   7.928   9.028 -0.0055  0.1297 -0.2608
   16MOL   Cl58 1888   2.121   8.166   8.953 -0.4157  0.3809  0.1513
   16MOL    C59 1889   2.326   8.178   9.145 -0.5763  0.0708 -0.1191
   16MOL    H60 1890   2.417   8.127   9.176 -1.0853 -0.5420  0.3765
   16MOL    H61 1891   2.350   8.280   9.115  2.1112 -0.5495 -0.2188
   16MOL    C62 1892   2.232   8.197   0.091  0.1668 -0.6452  0.5318
   16MOL   Cl63 1893   2.142   8.040   0.122  0.0642 -0.1203 -0.3601
   16MOL   Cl64 1894   2.121   8.334   0.043  0.2428 -0.1805 -0.0720
   16MOL    C65 1895   2.311   8.228   0.219  0.2638  0.2601 -0.3390
   16MOL    H66 1896   2.237   8.241   0.298 -0.0875 -0.5776 -0.5188
   16MOL    H67 1897   2.358   8.133   0.247  2.4346  0.9727 -1.4303
   16MOL    C68 1898   2.410   8.349   0.237 -0.7550  0.4748  0.6236
   16MOL   Cl69 1899   2.356   8.507   0.172  0.2657  0.0249 -0.1689
   16MOL   Cl70 1900   2.555   8.305   0.148  0.0519 -0.0429 -0.4591
   16MOL    C71 1901   2.444   8.382   0.388 -0.3008  0.1024  0.4169
   16MOL    H72 1902   2.520   8.461   0.379  0.6550 -0.7018  1.2309
   16MOL    H73 1903   2.360   8.435   0.432  1.8467  2.8006  1.4969
   16MOL    C74 1904   2.500   8.271   0.485  0.3442 -0.0866 -0.1441
   16MOL   Cl75 1905   2.650   8.189   0.425 -0.0977 -0.2358  0.2401
   16MOL   Cl76 1906   2.377   8.143   0.519 -0.2885  0.0721  0.0324
   16MOL    C77 1907   2.530   8.319   0.630  0.6663  0.2659  0.4357
   16MOL    H78 1908   2.446   8.305   0.699  0.9483 -2.1592  0.3362
   16MOL    H79 1909   2.611   8.255   0.667  1.1102 -0.2263 -1.3665
   16MOL    C80 1910   2.578   8.464   0.661  1.0236 -0.0601 -0.1538
   16MOL   Cl81 1911   2.604   8.461   0.839 -0.0208  0.0114 -0.2686
   16MOL   Cl82 1912   2.438   8.570   0.644 -0.1668  0.1042  0.1522
   16MOL    C83 1913   2.706   8.512   0.589 -0.0044 -0.7427  0.9621
   16MOL    H84 1914   2.786   8.448   0.627  0.9222  0.4376  1.0404
   16MOL    H85 1915   2.698   8.488   0.483  2.7758  0.7614  0.3378
   16MOL    C86 1916   2.760   8.661   0.595 -0.2504 -0.6488 -0.7171
   16MOL   Cl87 1917   2.895   8.665   0.483 -0.5780 -0.0474 -0.0948
   16MOL   Cl88 1918   2.821   8.687   0.760  0.2134 -0.2594 -0.2210
   16MOL    C89 1919   2.652   8.775   0.561  0.1203 -0.5686 -0.2515
   16MOL    H90 1920   2.593   8.746   0.475 -0.4198 -1.6206  0.4650
   16MOL    H91 1921   2.580   8.776   0.643 -0.3789  3.6141 -0.6100
   16MOL    C92 1922   2.699   8.923   0.530 -0.1565  0.3196  0.7274
   16MOL   Cl93 1923   2.804   8.943   0.378 -0.0363 -0.0915  0.1834
   16MOL   Cl94 1924   2.781   9.002   0.673  0.3801 -0.1284  0.0740
   16MOL    C95 1925   2.579   9.016   0.495 -0.1541  0.3370  0.1736
   16MOL    H96 1926   2.612   9.120   0.495 -0.3634  0.4035  0.2687
   16MOL    H97 1927   2.552   8.982   0.395 -1.9875  2.4746 -0.0881
   16MOL    C98 1928   2.444   9.020   0.574 -0.1251 -0.3886  0.3835
   16MOL   Cl99 1929   2.480   9.005   0.745  0.0642 -0.2980  0.1912
   16MOL  Cl100 1930   2.344   8.879   0.530  0.2715  0.0793 -0.2527
   16MOL   C101 1931   2.340   9.135   0.545 -0.1870 -0.5128 -0.3673
   16MOL   H102 1932   2.250   9.105   0.600  1.3101  1.6541  3.4436
   16MOL   H103 1933   2.371   0.039   0.607  1.1274 -2.2435  1.3597
   16MOL   C104 1934   2.307   0.014   0.407  0.0851  0.4356  0.5985
   16MOL  Cl105 1935   2.266   9.069   0.293  0.3107 -0.2229 -0.0940
   16MOL  Cl106 1936   2.451   0.095   0.336 -0.1928  0.0555 -0.1152
   16MOL   C107 1937   2.186   0.112   0.414  0.6643  0.4057  0.4565
   16MOL   H108 1938   2.213   0.209   0.456 -0.1094  1.5529 -1.6509
   16MOL   H109 1939   2.179   0.120   0.306 -0.1810  0.6718  0.5309
   16MOL   C110 1940   2.048   0.077   0.481  0.4504 -0.7041  0.2229
   16MOL  Cl111 1941   2.046   0.138   0.649  0.2043  0.6840 -0.4625
   16MOL  Cl112 1942   2.004   9.085   0.494 -0.6478 -0.4577  0.1916
   16MOL   C113 1943   1.927   0.156   0.416  0.1459 -0.4450  0.0990
   16MOL   H114 1944   1.846   0.154   0.488  0.2996  0.5070  0.3003
   16MOL   H115 1945   1.956   0.261   0.419  0.2549 -0.3753 -2.3517
   16MOL   C116 1946   1.865   0.125   0.279 -0.4074  0.1099 -0.4792
   16MOL  Cl117 1947   1.973   0.080   0.149  0.3599  0.0329 -0.2395
   16MOL  Cl118 1948   1.766   0.265   0.229  0.1663 -0.0063  0.1167
   16MOL   C119 1949   1.774   9.179   0.280  0.4937 -0.4939 -0.4422
   16MOL   H120 1950   1.712   9.166   0.191 -0.7445 -1.0233  0.4852
   16MOL   H121 1951   1.821   9.085   0.307  2.0725  1.1144  2.6825
   16MOL   H122 1952   1.702   0.018   0.360  0.8253  0.5084 -0.3809
   17MOL     C1 1953   3.705   7.419   7.475  0.4974  0.2380 -0.1467
   17MOL    Cl2 1954   3.596   7.335   7.363 -0.1734  0.1298 -0.2616
   17MOL    Cl3 1955   3.718   7.336   7.628 -0.2692 -0.2314 -0.0083
   17MOL     C4 1956   3.842   7.450   7.410  0.5077  0.0876  0.2296
   17MOL     H5 1957   3.875   7.351   7.377  3.3424  0.5645  1.4782
   17MOL     H6 1958   3.822   7.499   7.315  0.5685 -2.8999 -1.4069
   17MOL     H7 1959   3.652   7.514   7.489 -0.3558 -0.2490 -0.0083
   17MOL     C8 1960   3.948   7.523   7.500  0.5173 -0.4860 -0.2939
   17MOL    Cl9 1961   4.032   7.405   7.606  0.0965 -0.0649 -0.0746
   17MOL   Cl10 1962   3.875   7.645   7.609  0.1815  0.0731  0.1387
   17MOL    C11 1963   4.068   7.599   7.421  0.3551  0.4798  0.7150
   17MOL    H12 1964   4.021   7.692   7.388  0.2368  0.1242 -0.1461
   17MOL    H13 1965   4.151   7.620   7.488 -0.2002  0.6083  1.3686
   17MOL    C14 1966   4.150   7.536   7.303  1.3472 -0.7486 -0.1766
   17MOL   Cl15 1967   4.044   7.503   7.163  0.0745 -0.1687 -0.2789
   17MOL   Cl16 1968   4.229   7.392   7.362  0.0160 -0.1658  0.3654
   17MOL    C17 1969   4.257   7.637   7.244  0.2423 -0.0829  0.2329
   17MOL    H18 1970   4.319   7.589   7.168 -0.6315  0.5981 -0.9340
   17MOL    H19 1971   4.211   7.714   7.183 -0.9920 -1.8456 -1.1241
   17MOL    C20 1972   4.363   7.708   7.328  0.4993 -0.1170  0.5155
   17MOL   Cl21 1973   4.285   7.835   7.423  0.2587 -0.0889  0.1476
   17MOL   Cl22 1974   4.466   7.784   7.210 -0.0183 -0.0545  0.2494
   17MOL    C23 1975   4.451   7.602   7.410 -0.1144  0.1756 -0.0287
   17MOL    H24 1976   4.386   7.568   7.491 -0.9586 -1.0046 -1.1856
   17MOL    H25 1977   4.474   7.517   7.345 -1.7998 -1.7294  1.7973
   17MOL    C26 1978   4.584   7.640   7.476 -0.4307 -0.0920 -0.3834
   17MOL   Cl27 1979   4.571   7.788   7.568  0.1582 -0.3102 -0.3006
   17MOL   Cl28 1980   4.700   7.663   7.341  0.0623 -0.2979  0.0642
   17MOL    C29 1981   4.640   7.520   7.556 -0.2144 -0.6877  0.7885
   17MOL    H30 1982   4.628   7.432   7.493  1.2707 -0.1945 -0.2137
   17MOL    H31 1983   4.748   7.534   7.557 -0.3642  0.4988  3.4120
   17MOL    C32 1984   4.603   7.495   7.706  0.4475 -0.5139 -0.3175
   17MOL   Cl33 1985   4.654   7.330   7.724  0.3649 -0.2252 -0.2965
   17MOL   Cl34 1986   4.424   7.518   7.747 -0.4212  0.0538  0.1544
   17MOL    C35 1987   4.693   7.582   7.795 -0.0420 -0.1313 -0.3382
   17MOL    H36 1988   4.795   7.547   7.777 -0.1932 -0.2792 -0.9101
   17MOL    H37 1989   4.687   7.683   7.756 -1.0970 -0.4447 -1.0294
   17MOL    C38 1990   4.670   7.590   7.946 -0.0397  0.7454 -0.7917
   17MOL   Cl39 1991   4.594   7.443   8.022  0.0980 -0.1984 -0.1589
   17MOL   Cl40 1992   4.569   7.727   7.977  0.5969 -0.2613 -0.1237
   17MOL    C41 1993   4.800   7.627   8.019  0.4293 -1.1805  0.8054
   17MOL    H42 1994   4.850   7.708   7.966 -0.3502 -0.3261  1.3744
   17MOL    H43 1995   4.772   7.672   8.114 -0.5140 -0.2919  0.1085
   17MOL    C44 1996   4.907   7.513   8.055 -0.2898  0.0148 -0.6550
   17MOL   Cl45 1997   4.906   7.385   7.939 -0.2796  0.5570 -0.4219
   17MOL   Cl46 1998   4.859   7.444   8.212 -0.0512  0.1247  0.1069
   17MOL    C47 1999   5.059   7.553   8.078 -0.5399  0.4188 -0.2790
   17MOL    H48 2000   5.055   7.605   8.174  1.5472  0.6430 -0.2783
   17MOL    H49 2001   5.113   7.464   8.112 -0.9337 -0.0995 -1.0113
   17MOL    C50 2002   5.150   7.641   7.981 -0.3892 -0.5103  0.0256
   17MOL   Cl51 2003   5.086   7.804   8.003  0.2118 -0.2492 -0.4277
   17MOL   Cl52 2004   5.130   7.596   7.810 -0.2384  0.6055  0.4592
   17MOL    C53 2005   5.299   7.651   8.011 -0.3920  0.0472 -0.0443
   17MOL    H54 2006   5.342   7.741   7.968 -0.0200 -0.5854 -1.0136
   17MOL    H55 2007   5.302   7.659   8.120 -1.7937 -1.9326  0.1748
   17MOL    C56 2008   5.404   7.539   7.985 -0.7395 -0.5495  0.1549
   17MOL   Cl57 2009   5.335   7.375   8.012  0.4555 -0.0023  0.0001
   17MOL   Cl58 2010   5.541   7.563   8.096  0.4134  0.1753 -0.1918
   17MOL    C59 2011   5.461   7.560   7.840 -0.2580 -0.3386 -0.3895
   17MOL    H60 2012   5.377   7.532   7.776 -1.2917  0.5879  0.5284
   17MOL    H61 2013   5.471   7.668   7.822  1.1801 -0.0241  2.0607
   17MOL    C62 2014   5.586   7.489   7.783  0.2974  0.1549 -0.0649
   17MOL   Cl63 2015   5.592   7.312   7.838 -0.2339  0.1810 -0.0528
   17MOL   Cl64 2016   5.730   7.569   7.835  0.0073 -0.0584  0.0327
   17MOL    C65 2017   5.577   7.488   7.628  0.1552 -0.5734  0.1370
   17MOL    H66 2018   5.504   7.411   7.601 -0.1384 -0.4963  0.7083
   17MOL    H67 2019   5.533   7.585   7.604  0.0086 -0.4814  0.7658
   17MOL    C68 2020   5.704   7.462   7.538 -0.0967  0.3815  0.8869
   17MOL   Cl69 2021   5.781   7.622   7.525  0.3310  0.6748  0.0450
   17MOL   Cl70 2022   5.642   7.414   7.381 -0.2437  0.1394  0.3876
   17MOL    C71 2023   5.796   7.346   7.586 -0.0429 -0.3338  0.1296
   17MOL    H72 2024   5.817   7.373   7.689 -0.1685 -0.1607  0.1098
   17MOL    H73 2025   5.735   7.256   7.590  0.5089 -0.7443 -0.7316
   17MOL    C74 2026   5.930   7.309   7.506  0.4037 -0.2279  0.5308
   17MOL   Cl75 2027   6.051   7.440   7.509  0.4813 -0.4927 -0.0288
   17MOL   Cl76 2028   5.911   7.283   7.334  0.2195 -0.3571 -0.3375
   17MOL    C77 2029   6.015   7.189   7.563 -0.1233  0.0702 -0.3839
   17MOL    H78 2030   6.088   7.178   7.483 -0.8019  0.0104 -0.9964
   17MOL    H79 2031   6.061   7.227   7.654  0.4711 -1.8643  0.1347
   17MOL    C80 2032   5.945   7.056   7.605 -0.0923  0.4826  0.1899
   17MOL   Cl81 2033   5.810   7.000   7.499 -0.5894 -0.2841 -0.0480
   17MOL   Cl82 2034   5.873   7.075   7.769 -0.0491  0.4253  0.2198
   17MOL    C83 2035   6.052   6.939   7.622 -0.3676  0.0224 -0.3878
   17MOL    H84 2036   6.089   6.928   7.724 -1.3882 -1.3846 -0.1535
   17MOL    H85 2037   5.984   6.855   7.632  1.5060 -1.4191  0.7452
   17MOL    C86 2038   6.156   6.895   7.520 -0.2040  1.0735 -0.3543
   17MOL   Cl87 2039   6.296   7.009   7.553  0.2131  0.0132  0.2654
   17MOL   Cl88 2040   6.082   6.900   7.351  0.5773 -0.0853 -0.1958
   17MOL    C89 2041   6.204   6.741   7.532 -0.1700  0.0095 -0.2269
   17MOL    H90 2042   6.250   6.728   7.630  1.2073  5.2951 -0.0344
   17MOL    H91 2043   6.114   6.681   7.516 -0.7476  1.1335 -1.2962
   17MOL    C92 2044   6.305   6.680   7.431 -0.3447  0.2924 -0.1286
   17MOL   Cl93 2045   6.233   6.657   7.267  0.3216  0.2821 -0.4462
   17MOL   Cl94 2046   6.324   6.516   7.493  0.1134 -0.1999  0.2361
   17MOL    C95 2047   6.438   6.752   7.412 -0.1763  0.5194 -0.1588
   17MOL    H96 2048   6.418   6.841   7.352  0.3910  0.9297  0.2492
   17MOL    H97 2049   6.471   6.788   7.510  1.3735 -2.7274  0.5609
   17MOL    C98 2050   6.568   6.682   7.361 -0.2998  0.3351  0.4523
   17MOL   Cl99 2051   6.630   6.591   7.498 -0.2289 -0.0212 -0.1275
   17MOL  Cl100 2052   6.678   6.816   7.321 -0.2903 -0.3160  0.0786
   17MOL   C101 2053   6.542   6.594   7.234 -0.2302 -0.1415 -0.1091
   17MOL   H102 2054   6.485   6.510   7.276  1.4204 -0.6701  1.1500
   17MOL   H103 2055   6.475   6.641   7.163 -2.2779  0.1139  1.9011
   17MOL   C104 2056   6.663   6.531   7.147  0.0912 -0.5869  0.7573
   17MOL  Cl105 2057   6.717   6.665   7.040 -0.0209 -0.0774 -0.3076
   17MOL  Cl106 2058   6.598   6.404   7.042  0.0554 -0.0615 -0.2911
   17MOL   C107 2059   6.790   6.481   7.236  0.0676  0.0452  0.0045
   17MOL   H108 2060   6.829   6.569   7.287  1.1454  0.3352 -1.2811
   17MOL   H109 2061   6.755   6.425   7.323 -3.8733  1.2864 -0.6946
   17MOL   C110 2062   6.907   6.407   7.169  0.3259 -0.8282  0.7297
   17MOL  Cl111 2063   6.953   6.466   7.009 -0.1790  0.1005  0.1667
   17MOL  Cl112 2064   6.852   6.238   7.160  0.2206 -0.1124  0.2468
   17MOL   C113 2065   7.028   6.400   7.260 -0.4963 -0.7619  0.4015
   17MOL   H114 2066   6.997   6.392   7.364 -1.3239 -1.2771  0.1220
   17MOL   H115 2067   7.094   6.317   7.236 -0.8306 -0.3032 -2.2709
   17MOL   C116 2068   7.125   6.529   7.268 -0.4735 -0.8792  0.0208
   17MOL  Cl117 2069   7.044   6.683   7.254  0.6030 -0.0357 -0.2678
   17MOL  Cl118 2070   7.240   6.515   7.128  0.4342  0.3099 -0.0931
   17MOL   C119 2071   7.207   6.547   7.393  0.0413  0.1938  0.4067
   17MOL   H120 2072   7.136   6.551   7.475 -0.6917  2.6182 -0.2981
   17MOL   H121 2073   7.278   6.464   7.395 -1.5035 -1.1962 -0.3716
   17MOL   H122 2074   7.263   6.640   7.385  0.1202  0.1242  0.1371
   18MOL     C1 2075   2.353   2.768   0.414  0.5290 -0.6962  0.0309
   18MOL    Cl2 2076   2.182   2.774   0.362  0.2398 -0.4428 -0.4011
   18MOL    Cl3 2077   2.439   2.889   0.331  0.1902 -0.1957 -0.1152
   18MOL     C4 2078   2.340   2.800   0.560  0.6597 -0.9169 -0.1213
   18MOL     H5 2079   2.298   2.899   0.581  1.3598 -0.4054 -1.1119
   18MOL     H6 2080   2.267   2.729   0.599  0.3400  0.0326  1.0625
   18MOL     H7 2081   2.391   2.669   0.390 -1.3617 -1.2321 -0.8828
   18MOL     C8 2082   2.465   2.783   0.656  0.2010 -0.1350 -0.4183
   18MOL    Cl9 2083   2.587   2.906   0.617  0.3220 -0.0940 -0.0755
   18MOL   Cl10 2084   2.519   2.620   0.618  0.4238  0.2856 -0.1262
   18MOL    C11 2085   2.418   2.799   0.806  0.3203 -0.7754  0.7605
   18MOL    H12 2086   2.353   2.886   0.810 -0.0070 -1.0155  0.6644
   18MOL    H13 2087   2.361   2.708   0.827 -2.8521  1.0862  0.5282
   18MOL    C14 2088   2.511   2.818   0.926 -0.6001  0.5161 -0.1246
   18MOL   Cl15 2089   2.414   2.830   1.071 -0.4083  0.0610  0.0870
   18MOL   Cl16 2090   2.592   2.983   0.919  0.0890  0.1639  0.0060
   18MOL    C17 2091   2.620   2.703   0.938 -0.2362 -0.1165 -0.1351
   18MOL    H18 2092   2.577   2.607   0.911  0.5356 -0.8382  1.1541
   18MOL    H19 2093   2.700   2.720   0.866  0.5157  0.7521  0.8836
   18MOL    C20 2094   2.687   2.691   1.079  0.1206 -0.2077 -0.2823
   18MOL   Cl21 2095   2.585   2.593   1.188 -0.6410 -0.4914 -0.2214
   18MOL   Cl22 2096   2.730   2.847   1.168 -0.4220  0.5870 -0.0176
   18MOL    C23 2097   2.828   2.617   1.065 -0.3003 -0.4817 -0.0435
   18MOL    H24 2098   2.895   2.695   1.030  0.1000  0.0965  1.9181
   18MOL    H25 2099   2.869   2.604   1.166  0.8549  3.4734  0.0743
   18MOL    C26 2100   2.845   2.485   0.990  0.8167  0.1242  0.4438
   18MOL   Cl27 2101   2.844   2.516   0.816  0.1047  0.3598 -0.2642
   18MOL   Cl28 2102   2.717   2.377   1.021 -0.5790 -0.0754 -0.3618
   18MOL    C29 2103   2.969   2.394   1.041 -0.3386 -1.1410  0.8257
   18MOL    H30 2104   2.944   2.370   1.144 -0.6386  0.0572  1.0373
   18MOL    H31 2105   2.968   2.301   0.983  0.2705 -2.2419  2.5512
   18MOL    C32 2106   3.117   2.445   1.044  0.0124  0.2944  0.2052
   18MOL   Cl33 2107   3.208   2.301   1.110  0.3300 -0.0743 -0.0358
   18MOL   Cl34 2108   3.121   2.593   1.140  0.1506  0.3009  0.1499
   18MOL    C35 2109   3.173   2.478   0.899  0.2120  0.1392 -0.0210
   18MOL    H36 2110   3.151   2.402   0.825 -0.3308 -0.6423  0.9394
   18MOL    H37 2111   3.118   2.570   0.881 -0.3843 -0.4461 -1.2194
   18MOL    C38 2112   3.321   2.495   0.883 -0.8138 -0.0214  0.1458
   18MOL   Cl39 2113   3.393   2.328   0.860 -0.0847 -0.0162  0.0095
   18MOL   Cl40 2114   3.408   2.579   1.023 -0.1126 -0.3404  0.0030
   18MOL    C41 2115   3.360   2.560   0.745 -1.1611  0.2050  0.4392
   18MOL    H42 2116   3.464   2.581   0.768 -1.1560  1.7495 -0.8955
   18MOL    H43 2117   3.367   2.489   0.662 -0.8976 -0.9908  1.4689
   18MOL    C44 2118   3.280   2.681   0.693 -0.5238  0.5087  0.4386
   18MOL   Cl45 2119   3.261   2.801   0.828 -0.2587  0.0979  0.2699
   18MOL   Cl46 2120   3.116   2.640   0.619 -0.3255  0.1551  0.0113
   18MOL    C47 2121   3.343   2.758   0.574 -0.3545  0.3100 -0.0107
   18MOL    H48 2122   3.306   2.725   0.476 -2.9543  0.3404  0.9348
   18MOL    H49 2123   3.306   2.860   0.581 -1.2232  0.0629 -0.8559
   18MOL    C50 2124   3.496   2.777   0.549 -0.4427  0.0271 -0.4778
   18MOL   Cl51 2125   3.502   2.841   0.379  0.4300  0.2855  0.5898
   18MOL   Cl52 2126   3.574   2.616   0.544  0.1210  0.2352 -0.0783
   18MOL    C53 2127   3.560   2.880   0.648 -0.0780  0.0534  0.3822
   18MOL    H54 2128   3.493   2.963   0.673  0.6172  0.9569 -0.7061
   18MOL    H55 2129   3.563   2.821   0.739  0.4414 -1.5060 -0.6295
   18MOL    C56 2130   3.703   2.937   0.614  0.3531 -0.1875 -0.5672
   18MOL   Cl57 2131   3.757   3.004   0.770  0.1192  0.5280 -0.1154
   18MOL   Cl58 2132   3.665   3.077   0.513 -0.2115 -0.0955  0.0415
   18MOL    C59 2133   3.809   2.841   0.549  0.6048  0.0367 -0.0975
   18MOL    H60 2134   3.827   2.760   0.621 -1.4963 -0.7047 -0.3498
   18MOL    H61 2135   3.766   2.791   0.462 -1.6998  2.6553 -0.5046
   18MOL    C62 2136   3.949   2.887   0.495  0.8764 -0.4266  0.0266
   18MOL   Cl63 2137   4.044   2.741   0.461 -0.1674  0.1921  0.0038
   18MOL   Cl64 2138   4.039   2.980   0.621 -0.2213 -0.0785  0.0968
   18MOL    C65 2139   3.939   2.983   0.369  0.5112 -0.2370 -0.0232
   18MOL    H66 2140   3.866   2.946   0.298  1.2806 -0.1199 -0.8779
   18MOL    H67 2141   3.906   3.081   0.405  0.0130  0.2384 -1.7402
   18MOL    C68 2142   4.063   3.005   0.281 -0.1204  0.1041 -0.1098
   18MOL   Cl69 2143   4.078   2.866   0.161  0.0468  0.1193  0.2114
   18MOL   Cl70 2144   4.220   3.006   0.363 -0.0437  0.5528 -0.5099
   18MOL    C71 2145   4.057   3.137   0.201 -0.1458 -0.1066 -0.6306
   18MOL    H72 2146   4.110   3.204   0.269 -0.9509 -0.6453  0.5446
   18MOL    H73 2147   4.128   3.119   0.120  0.5686  1.6514 -0.4103
   18MOL    C74 2148   3.928   3.205   0.144 -0.3101  1.1802  0.4035
   18MOL   Cl75 2149   3.819   3.284   0.269 -0.4736 -0.1368  0.1585
   18MOL   Cl76 2150   3.824   3.079   0.076 -0.0285  0.2587  0.1563
   18MOL    C77 2151   3.957   3.291   0.014 -0.6592 -0.7877 -0.2391
   18MOL    H78 2152   4.027   3.228   9.140  1.8249  1.1345  0.6291
   18MOL    H79 2153   3.857   3.303   9.152 -0.5725  0.2699 -0.1524
   18MOL    C80 2154   4.033   3.423   0.027  0.2953 -0.1715  0.1624
   18MOL   Cl81 2155   4.194   3.396   0.100 -0.0533  0.1940 -0.0921
   18MOL   Cl82 2156   3.956   3.533   0.158 -0.0624 -0.1985  0.2076
   18MOL    C83 2157   4.058   3.494   9.074 -0.3347 -0.2123 -0.2190
   18MOL    H84 2158   4.103   3.590   9.097 -2.1159  0.3695  0.9459
   18MOL    H85 2159   4.133   3.428   9.030  2.2892  1.6220  1.3985
   18MOL    C86 2160   3.950   3.527   8.968  0.8479  0.0114 -0.1029
   18MOL   Cl87 2161   3.804   3.599   9.051  0.4818  0.0862 -0.1064
   18MOL   Cl88 2162   3.888   3.376   8.911 -0.3568  0.1280 -0.0216
   18MOL    C89 2163   3.986   3.619   8.852 -0.5925 -0.4427 -0.2255
   18MOL    H90 2164   3.902   3.680   8.818  0.5718  0.5657 -1.3397
   18MOL    H91 2165   4.059   3.685   8.901 -1.6028  0.5477 -0.0335
   18MOL    C92 2166   4.070   3.573   8.727 -0.1058  0.6090  0.1830
   18MOL   Cl93 2167   3.952   3.500   8.614 -0.0564  0.0586  0.4364
   18MOL   Cl94 2168   4.172   3.438   8.753 -0.2455 -0.1570  0.0878
   18MOL    C95 2169   4.155   3.683   8.654 -0.1312  0.5340  0.3846
   18MOL    H96 2170   4.215   3.623   8.586 -3.7819  0.0944 -2.6359
   18MOL    H97 2171   4.087   3.732   8.584  1.2062  1.8013 -0.0582
   18MOL    C98 2172   4.258   3.776   8.727  0.1652 -0.5738 -0.9887
   18MOL   Cl99 2173   4.349   3.677   8.837  0.1728 -0.1727 -0.1283
   18MOL  Cl100 2174   4.176   3.904   8.813  0.0114  0.5163 -0.0711
   18MOL   C101 2175   4.371   3.829   8.635  0.2169  0.1672 -0.7748
   18MOL   H102 2176   4.433   3.898   8.691 -0.9089 -0.2907  1.0592
   18MOL   H103 2177   4.436   3.746   8.606  1.5902  0.1684  2.2192
   18MOL   C104 2178   4.347   3.888   8.493  0.1974 -0.8253 -0.7282
   18MOL  Cl105 2179   4.205   3.996   8.499 -0.2185  0.2885  0.1738
   18MOL  Cl106 2180   4.311   3.758   8.370 -0.6471  0.1379  0.1431
   18MOL   C107 2181   4.453   3.980   8.437  0.1381 -0.4465  0.4434
   18MOL   H108 2182   4.408   4.011   8.343  0.3681 -4.0346 -0.9288
   18MOL   H109 2183   4.460   4.072   8.495 -0.4679 -0.9783  1.3739
   18MOL   C110 2184   4.601   3.931   8.415 -0.2087 -0.5871 -1.2082
   18MOL  Cl111 2185   4.621   3.748   8.409 -0.0451  0.2565 -0.1356
   18MOL  Cl112 2186   4.687   3.987   8.554 -0.4495 -0.2091 -0.0399
   18MOL   C113 2187   4.663   4.000   8.290  1.1957  0.4084  0.6511
   18MOL   H114 2188   4.593   3.984   8.208  0.8179  3.3118  0.3488
   18MOL   H115 2189   4.642   4.106   8.306 -0.9790 -0.1897  2.0146
   18MOL   C116 2190   4.803   3.965   8.232 -0.7108  0.3748  0.1242
   18MOL  Cl117 2191   4.926   3.948   8.356  0.1732  0.2826  0.0634
   18MOL  Cl118 2192   4.863   4.104   8.134  0.1701  0.5528 -0.1360
   18MOL   C119 2193   4.804   3.849   8.141  0.1497  0.2182  0.0506
   18MOL   H120 2194   4.899   3.813   8.099 -0.8426 -1.3025 -0.9429
   18MOL   H121 2195   4.770   3.756   8.188  1.1384 -0.9716 -1.5076
   18MOL   H122 2196   4.737   3.879   8.061 -1.8230 -0.2950  1.4674
   19MOL     C1 2197   5.548   7.223   5.814  0.4144  0.4016 -0.2258
   19MOL    Cl2 2198   5.623   7.200   5.973  0.3347  0.1747  0.2255
   19MOL    Cl3 2199   5.614   7.097   5.702  0.3132 -0.6018  0.1287
   19MOL     C4 2200   5.396   7.213   5.819  0.5036 -0.5387 -1.0363
   19MOL     H5 2201   5.356   7.184   5.722 -2.8773 -0.8679  0.3968
   19MOL     H6 2202   5.375   7.125   5.880 -1.4943 -0.6855 -1.9139
   19MOL     H7 2203   5.572   7.322   5.774 -1.6079  0.8600 -0.3745
   19MOL     C8 2204   5.310   7.335   5.872 -0.2274 -0.6317  0.5097
   19MOL    Cl9 2205   5.139   7.284   5.837 -0.4636  0.4505  0.0862
   19MOL   Cl10 2206   5.362   7.478   5.775 -0.1709 -0.2291  0.0367
   19MOL    C11 2207   5.339   7.378   6.021 -0.0092 -0.7636 -0.9023
   19MOL    H12 2208   5.377   7.300   6.087  1.6554  0.3424 -0.4958
   19MOL    H13 2209   5.421   7.451   6.022 -1.3735  0.9411 -4.5248
   19MOL    C14 2210   5.223   7.458   6.095 -0.3297  0.2998 -0.2535
   19MOL   Cl15 2211   5.104   7.343   6.158 -0.2143 -0.2904  0.1868
   19MOL   Cl16 2212   5.140   7.573   5.994  0.0724  0.5162  0.1773
   19MOL    C17 2213   5.276   7.541   6.221 -0.2618  0.2775  0.1507
   19MOL    H18 2214   5.205   7.614   6.260  1.4908  0.9877  2.0912
   19MOL    H19 2215   5.289   7.473   6.304 -1.2110  1.6935  1.4863
   19MOL    C20 2216   5.419   7.610   6.226  0.3404  0.6972 -0.0797
   19MOL   Cl21 2217   5.449   7.679   6.063 -0.0022  0.2719  0.6519
   19MOL   Cl22 2218   5.554   7.488   6.250  0.0255 -0.0463 -0.1606
   19MOL    C23 2219   5.424   7.733   6.319  0.8479  0.2346 -0.2741
   19MOL    H24 2220   5.519   7.787   6.317  0.4827  0.8821 -0.0831
   19MOL    H25 2221   5.348   7.799   6.279  0.1764 -1.4565 -1.8555
   19MOL    C26 2222   5.402   7.716   6.474 -0.0348 -0.0977  0.3501
   19MOL   Cl27 2223   5.505   7.585   6.533  0.0325 -0.4796 -0.3924
   19MOL   Cl28 2224   5.233   7.676   6.514  0.0519  0.0903 -0.1301
   19MOL    C29 2225   5.449   7.837   6.554 -0.0433 -0.9666 -0.6791
   19MOL    H30 2226   5.418   7.811   6.655  0.3569 -0.9107 -0.5416
   19MOL    H31 2227   5.556   7.844   6.574 -0.0529  0.5515 -1.1136
   19MOL    C32 2228   5.397   7.985   6.521  0.1922 -0.0013 -0.0628
   19MOL   Cl33 2229   5.221   8.000   6.521  0.3256 -0.4518  0.0566
   19MOL   Cl34 2230   5.475   8.038   6.368 -0.2646 -0.0373 -0.1661
   19MOL    C35 2231   5.447   8.096   6.614 -0.6270 -0.6329  0.2820
   19MOL    H36 2232   5.549   8.122   6.586 -0.9252  2.9953  2.2648
   19MOL    H37 2233   5.395   8.188   6.588  2.5293  0.8388 -1.0759
   19MOL    C38 2234   5.459   8.088   6.766  0.1361  0.2294  0.3481
   19MOL   Cl39 2235   5.595   7.984   6.822  0.2696 -0.0906 -0.4604
   19MOL   Cl40 2236   5.306   8.028   6.828  0.2838 -0.0627 -0.3649
   19MOL    C41 2237   5.472   8.229   6.828  0.1111  0.1487 -0.4675
   19MOL    H42 2238   5.375   8.275   6.807  0.5201  0.7552 -1.0145
   19MOL    H43 2239   5.480   8.210   6.935  0.4458 -0.1255 -0.5414
   19MOL    C44 2240   5.580   8.334   6.794  0.2154  0.0121 -0.1623
   19MOL   Cl45 2241   5.583   8.362   6.616 -0.4875 -0.5355 -0.3689
   19MOL   Cl46 2242   5.741   8.260   6.839  0.2303  0.0328 -0.1933
   19MOL    C47 2243   5.554   8.475   6.868 -0.8024  0.0024 -0.1174
   19MOL    H48 2244   5.641   8.536   6.845 -0.6128 -0.0853  0.3613
   19MOL    H49 2245   5.466   8.514   6.817  0.5438  1.8350 -1.0753
   19MOL    C50 2246   5.538   8.493   7.024 -0.8553 -0.0629 -0.4837
   19MOL   Cl51 2247   5.692   8.442   7.096 -0.0575  0.1511 -0.0699
   19MOL   Cl52 2248   5.407   8.397   7.094 -0.1224 -0.5284  0.2848
   19MOL    C53 2249   5.500   8.639   7.060  0.0577  0.1839  0.5432
   19MOL    H54 2250   5.563   8.703   6.998 -0.2700  0.6563  0.6905
   19MOL    H55 2251   5.403   8.659   7.014  0.9578 -2.9017 -2.9473
   19MOL    C56 2252   5.521   8.693   7.207  0.2325  0.5180  0.0421
   19MOL   Cl57 2253   5.697   8.725   7.231  0.3538  0.0477 -0.3613
   19MOL   Cl58 2254   5.465   8.582   7.325  0.3517 -0.0302 -0.2401
   19MOL    C59 2255   5.451   8.826   7.234 -0.1124  0.5495 -0.5856
   19MOL    H60 2256   5.475   8.849   7.337 -1.3256 -1.8536  0.2612
   19MOL    H61 2257   5.498   8.914   7.189 -2.0603  1.1973 -1.4154
   19MOL    C62 2258   5.296   8.853   7.215  0.5079 -0.5465 -0.3528
   19MOL   Cl63 2259   5.272   8.914   7.050  0.1491  0.0056 -0.0477
   19MOL   Cl64 2260   5.251   8.987   7.327 -0.2381 -0.9568  0.2121
   19MOL    C65 2261   5.209   8.732   7.251  0.2840  0.6680  0.4518
   19MOL    H66 2262   5.255   8.646   7.203 -0.7226  1.2106 -1.5698
   19MOL    H67 2263   5.228   8.707   7.355 -1.1235  1.0172  0.8025
   19MOL    C68 2264   5.054   8.730   7.221 -0.0297  0.6889 -0.6306
   19MOL   Cl69 2265   5.008   8.578   7.299 -0.0406  0.0907  0.0833
   19MOL   Cl70 2266   5.028   8.700   7.047  0.2496  0.3531 -0.7247
   19MOL    C71 2267   4.971   8.852   7.271 -0.7975  0.0499  0.7219
   19MOL    H72 2268   5.010   8.876   7.371  0.3448 -0.2935  0.3674
   19MOL    H73 2269   5.011   8.931   7.207 -0.0942 -0.2599  0.7736
   19MOL    C74 2270   4.815   8.855   7.283 -0.1440  0.1782  0.2867
   19MOL   Cl75 2271   4.732   8.755   7.161  0.3012 -0.1668  0.1778
   19MOL   Cl76 2272   4.764   9.022   7.265  0.3793  0.0416  0.5513
   19MOL    C77 2273   4.778   8.809   7.424  0.3165 -0.3565  0.0999
   19MOL    H78 2274   4.847   8.732   7.458  0.6272  0.1427  0.6169
   19MOL    H79 2275   4.804   8.888   7.495 -2.5735 -0.6417  1.5497
   19MOL    C80 2276   4.641   8.760   7.470 -0.1669 -0.6026  0.3411
   19MOL   Cl81 2277   4.659   8.747   7.652 -0.2319  0.0972  0.0942
   19MOL   Cl82 2278   4.600   8.596   7.396  0.1066  0.0965 -0.2310
   19MOL    C83 2279   4.533   8.856   7.425  0.1052 -0.5597 -0.2758
   19MOL    H84 2280   4.568   8.956   7.448  0.0243 -0.5113 -0.3633
   19MOL    H85 2281   4.519   8.847   7.317  0.2329 -2.2596 -0.1675
   19MOL    C86 2282   4.390   8.859   7.489 -0.2054 -0.3477 -0.3908
   19MOL   Cl87 2283   4.297   8.959   7.381 -0.1207  0.0464  0.2393
   19MOL   Cl88 2284   4.408   8.935   7.649  0.1324  0.1839 -0.0132
   19MOL    C89 2285   4.317   8.721   7.491  0.0392 -0.2376  0.2130
   19MOL    H90 2286   4.315   8.676   7.392 -3.4349 -0.3427  0.2678
   19MOL    H91 2287   4.388   8.649   7.530 -1.3457  0.0059  3.3330
   19MOL    C92 2288   4.179   8.691   7.559  0.5369 -0.0697 -0.1949
   19MOL   Cl93 2289   4.204   8.698   7.733 -0.5312  0.3906  0.1547
   19MOL   Cl94 2290   4.147   8.521   7.516  0.0935 -0.2079  0.2486
   19MOL    C95 2291   4.061   8.789   7.516 -0.1168  0.1682 -0.1277
   19MOL    H96 2292   4.089   8.893   7.531 -1.7560  0.7047 -0.6379
   19MOL    H97 2293   4.045   8.784   7.408 -1.3691  2.1777 -0.0735
   19MOL    C98 2294   3.910   8.768   7.556 -0.5654  0.2439 -0.4383
   19MOL   Cl99 2295   3.903   8.768   7.737 -0.2136 -0.3294  0.3271
   19MOL  Cl100 2296   3.855   8.610   7.491 -0.1739 -0.3268 -0.2665
   19MOL   C101 2297   3.801   8.874   7.503  0.0788 -0.0371  0.0047
   19MOL   H102 2298   3.781   8.850   7.398  0.7335 -0.2942 -0.0657
   19MOL   H103 2299   3.714   8.853   7.565  0.3186 -0.5836  0.1542
   19MOL   C104 2300   3.830   9.024   7.499  0.8842  0.4923 -0.2949
   19MOL  Cl105 2301   3.948   9.075   7.370  0.2146  0.0734 -0.2906
   19MOL  Cl106 2302   3.896   9.080   7.654 -0.2250  0.3346 -0.4133
   19MOL   C107 2303   3.694   9.107   7.483 -0.3216 -0.3663 -0.0288
   19MOL   H108 2304   3.634   9.104   7.574 -2.4060  0.5648 -1.3348
   19MOL   H109 2305   3.725   0.030   7.496 -0.4079 -0.1203 -1.6938
   19MOL   C110 2306   3.609   9.100   7.354 -0.0182 -0.2835 -0.0935
   19MOL  Cl111 2307   3.553   8.934   7.308 -0.3121 -0.0911 -0.5277
   19MOL  Cl112 2308   3.693   9.160   7.215  0.1231  0.0598 -0.0240
   19MOL   C113 2309   3.479   0.011   7.377 -0.9273  0.0471 -0.2604
   19MOL   H114 2310   3.435   9.150   7.468  1.3076  0.8903  1.2567
   19MOL   H115 2311   3.520   0.108   7.407 -0.1982 -0.5300  0.6493
   19MOL   C116 2312   3.360   0.032   7.282 -0.1984 -0.9939 -0.3657
   19MOL  Cl117 2313   3.258   0.161   7.361  0.1845  0.3271 -0.2646
   19MOL  Cl118 2314   3.261   9.066   7.272  0.2305  0.0458  0.4724
   19MOL   C119 2315   3.384   0.093   7.146  0.1184  0.1408 -0.7636
   19MOL   H120 2316   3.403   0.200   7.153  0.9366 -0.0053 -0.6154
   19MOL   H121 2317   3.466   0.050   7.088  0.8468  1.2598 -0.5955
   19MOL   H122 2318   3.307   0.068   7.073  1.7291 -1.9450 -1.8285
   20MOL     C1 2319   6.999   7.424   4.809  0.2543  0.1699  0.7089
   20MOL    Cl2 2320   7.064   7.370   4.652  0.0810  0.3432 -0.1806
   20MOL    Cl3 2321   7.028   7.299   4.929  0.1261  0.3017  0.0760
   20MOL     C4 2322   7.066   7.555   4.844 -0.0609  0.5371  0.6435
   20MOL     H5 2323   7.164   7.542   4.888  0.7014 -0.2044 -1.2169
   20MOL     H6 2324   7.084   7.599   4.746  1.1883 -0.2378  0.5185
   20MOL     H7 2325   6.890   7.429   4.799  0.4253  0.7356 -1.0765
   20MOL     C8 2326   6.990   7.661   4.927  0.1319  0.4782  0.5910
   20MOL    Cl9 2327   6.852   7.712   4.834 -0.2650 -0.1545  0.0597
   20MOL   Cl10 2328   7.094   7.805   4.937  0.2256 -0.2080 -0.6564
   20MOL    C11 2329   6.947   7.607   5.073 -0.7631  0.9384 -0.1332
   20MOL    H12 2330   6.882   7.522   5.052  0.7923 -0.0231 -1.2151
   20MOL    H13 2331   7.031   7.554   5.119  0.2306  1.8780 -0.8412
   20MOL    C14 2332   6.889   7.704   5.184 -0.5687 -0.3811  0.5369
   20MOL   Cl15 2333   7.008   7.828   5.229  0.6244 -0.7839 -0.6004
   20MOL   Cl16 2334   6.863   7.601   5.332  0.0171 -0.3170 -0.3837
   20MOL    C17 2335   6.758   7.766   5.138  0.1144 -0.4818  0.5421
   20MOL    H18 2336   6.798   7.839   5.067 -3.1355  0.5399 -0.3320
   20MOL    H19 2337   6.708   7.699   5.069 -1.9462  1.7624 -0.1890
   20MOL    C20 2338   6.644   7.816   5.234 -0.0199  0.4631 -0.3979
   20MOL   Cl21 2339   6.713   7.914   5.364  0.1703 -0.0079  0.5379
   20MOL   Cl22 2340   6.557   7.683   5.309 -0.6287 -0.1087 -0.1154
   20MOL    C23 2341   6.528   7.898   5.167 -0.3394 -0.3981 -0.1649
   20MOL    H24 2342   6.464   7.832   5.108 -1.7632  0.9858 -0.1783
   20MOL    H25 2343   6.467   7.924   5.254 -0.0263 -1.1933  0.3027
   20MOL    C26 2344   6.556   8.016   5.072 -0.3879 -0.5020  0.2637
   20MOL   Cl27 2345   6.593   7.944   4.911  0.0430  0.1237  0.1374
   20MOL   Cl28 2346   6.710   8.106   5.119 -0.0066  0.0241  0.2190
   20MOL    C29 2347   6.440   8.117   5.052 -0.3541 -0.3226 -0.2072
   20MOL    H30 2348   6.487   8.191   4.987 -1.0851  1.1886  0.9591
   20MOL    H31 2349   6.358   8.068   5.000 -0.5513 -2.2043  1.8035
   20MOL    C32 2350   6.378   8.187   5.174  0.5199  0.4918  1.1109
   20MOL   Cl33 2351   6.249   8.087   5.246  0.1105  0.4381 -0.3367
   20MOL   Cl34 2352   6.296   8.340   5.098  0.1704  0.1228 -0.2996
   20MOL    C35 2353   6.474   8.237   5.289 -0.3345  0.2213 -0.0896
   20MOL    H36 2354   6.553   8.165   5.309  0.1426  0.1977 -1.9445
   20MOL    H37 2355   6.533   8.318   5.245 -0.8081 -0.2356 -1.6053
   20MOL    C38 2356   6.410   8.271   5.429  0.8113 -0.3925 -0.3517
   20MOL   Cl39 2357   6.543   8.363   5.514 -0.0055 -0.0198 -0.1214
   20MOL   Cl40 2358   6.385   8.121   5.517  0.1652  0.2679  0.0028
   20MOL    C41 2359   6.284   8.370   5.415 -0.4496  0.5003  0.1261
   20MOL    H42 2360   6.327   8.462   5.373  0.6498  0.6884  1.6363
   20MOL    H43 2361   6.219   8.336   5.334 -0.8774 -0.6461  0.9522
   20MOL    C44 2362   6.187   8.389   5.532  0.2331  0.2507 -0.0246
   20MOL   Cl45 2363   6.096   8.232   5.556 -0.0250  0.1557 -0.4535
   20MOL   Cl46 2364   6.074   8.506   5.465 -0.5951 -0.0613  0.0417
   20MOL    C47 2365   6.255   8.443   5.658  0.3288  0.0992  0.2089
   20MOL    H48 2366   6.326   8.369   5.696 -0.1259 -0.9182 -0.8930
   20MOL    H49 2367   6.316   8.529   5.630  1.5055 -1.0195 -0.7764
   20MOL    C50 2368   6.177   8.477   5.782 -0.2118  0.1700 -0.8561
   20MOL   Cl51 2369   6.302   8.479   5.911 -0.1467  0.1299 -0.3200
   20MOL   Cl52 2370   6.068   8.351   5.850 -0.0417 -0.4575 -0.3254
   20MOL    C53 2371   6.099   8.614   5.774  0.8643  0.5886 -0.4622
   20MOL    H54 2372   6.016   8.595   5.706  0.1242  2.7257 -0.2110
   20MOL    H55 2373   6.054   8.607   5.873  0.3555  2.7822 -0.4977
   20MOL    C56 2374   6.172   8.755   5.759  1.0702  0.0265 -0.2484
   20MOL   Cl57 2375   6.242   8.783   5.598 -0.3492 -0.1612  0.3486
   20MOL   Cl58 2376   6.301   8.784   5.876 -0.1328  0.0683 -0.2838
   20MOL    C59 2377   6.074   8.869   5.791 -0.6277 -0.2468  0.6345
   20MOL    H60 2378   6.023   8.830   5.879  0.0631 -0.8811  0.7606
   20MOL    H61 2379   6.125   8.958   5.826  1.8077 -0.9297 -1.0802
   20MOL    C62 2380   5.971   8.926   5.687  0.1238 -0.0229  0.1999
   20MOL   Cl63 2381   5.839   8.996   5.794  0.0596  0.1113 -0.0774
   20MOL   Cl64 2382   5.876   8.802   5.591 -0.1301  0.2291 -0.2054
   20MOL    C65 2383   6.032   9.040   5.607 -0.0971 -0.3578  0.6530
   20MOL    H66 2384   6.055   9.117   5.680  1.9153 -0.2885 -0.0354
   20MOL    H67 2385   6.133   9.018   5.573 -1.1190  0.1522 -2.9989
   20MOL    C68 2386   5.960   9.116   5.493 -0.9775  0.3400  0.0293
   20MOL   Cl69 2387   5.972   9.011   5.353  0.0139 -0.1291 -0.0039
   20MOL   Cl70 2388   6.063   0.072   5.463  0.2673  0.1412  0.0010
   20MOL    C71 2389   5.811   9.164   5.512  1.0265  0.1040 -0.2750
   20MOL    H72 2390   5.754   9.072   5.503  1.3798 -0.1232 -0.2104
   20MOL    H73 2391   5.804   0.008   5.618  1.8870  0.2395 -0.2467
   20MOL    C74 2392   5.744   0.095   5.435  0.2719  0.6821  0.0177
   20MOL   Cl75 2393   5.812   0.251   5.466  0.3081  0.2661  0.3010
   20MOL   Cl76 2394   5.570   0.083   5.488  0.3049 -0.1447  0.3754
   20MOL    C77 2395   5.756   0.074   5.283 -0.5627 -0.4247 -0.2804
   20MOL    H78 2396   5.860   0.096   5.258 -0.3001 -0.1214  1.0211
   20MOL    H79 2397   5.759   9.149   5.257 -0.3384  0.0487 -2.2273
   20MOL    C80 2398   5.659   0.154   5.185  0.5474 -0.0881  0.3541
   20MOL   Cl81 2399   5.517   0.056   5.150  0.0586  0.2123 -0.3057
   20MOL   Cl82 2400   5.750   0.158   5.033 -0.2237 -0.1201 -0.1232
   20MOL    C83 2401   5.613   0.297   5.217 -0.5178  0.1605  0.4156
   20MOL    H84 2402   5.592   0.301   5.324 -0.8273  0.9516  0.3351
   20MOL    H85 2403   5.711   0.344   5.209 -0.5746  0.4358  1.3091
   20MOL    C86 2404   5.501   0.376   5.145 -0.3280  0.6168 -0.9083
   20MOL   Cl87 2405   5.520   0.541   5.209  0.0711 -0.0045  0.5350
   20MOL   Cl88 2406   5.356   0.310   5.217  0.1295 -0.0394 -0.1848
   20MOL    C89 2407   5.497   0.365   4.997  0.4872  0.7253  0.3159
   20MOL    H90 2408   5.601   0.386   4.974  1.2990 -0.6936  2.5579
   20MOL    H91 2409   5.468   0.265   4.967  0.1530  0.9036  0.0400
   20MOL    C92 2410   5.412   0.460   4.914 -0.2918 -0.0395  0.3774
   20MOL   Cl93 2411   5.396   0.391   4.752 -0.0776  0.0209  0.1080
   20MOL   Cl94 2412   5.498   0.612   4.891  0.0297 -0.1521  0.0852
   20MOL    C95 2413   5.270   0.508   4.974 -0.3609 -0.0160 -0.1074
   20MOL    H96 2414   5.225   0.418   5.017  3.2880 -2.4875 -1.1932
   20MOL    H97 2415   5.296   0.578   5.053 -0.0221 -0.3835  0.1091
   20MOL    C98 2416   5.158   0.571   4.883  0.2096 -0.2718  0.8823
   20MOL   Cl99 2417   5.042   0.628   5.009 -0.1493  0.0705  0.3328
   20MOL  Cl100 2418   5.075   0.439   4.793 -0.2828  0.1864  0.1615
   20MOL   C101 2419   5.198   0.675   4.781 -0.0599 -0.5837  0.4236
   20MOL   H102 2420   5.277   0.734   4.828 -0.9662  1.5811 -0.6933
   20MOL   H103 2421   5.252   0.622   4.703  3.0688  1.5413  1.0655
   20MOL   C104 2422   5.098   0.783   4.728 -0.1704  1.1437  0.3745
   20MOL  Cl105 2423   5.071   0.909   4.851 -0.1262 -0.2461  0.0938
   20MOL  Cl106 2424   4.937   0.720   4.687 -0.0869  0.3705 -0.2816
   20MOL   C107 2425   5.145   0.868   4.613  0.5601  0.3554 -0.2986
   20MOL   H108 2426   5.113   0.823   4.519 -0.1094  1.8904 -0.8252
   20MOL   H109 2427   5.080   0.955   4.599  0.5680  0.2903 -0.7689
   20MOL   C110 2428   5.293   0.908   4.593  0.4474 -0.1530  0.3648
   20MOL  Cl111 2429   5.387   0.768   4.528  0.1703 -0.0944  0.1200
   20MOL  Cl112 2430   5.377   0.958   4.742 -0.0144  0.0783 -0.1074
   20MOL   C113 2431   5.315   1.019   4.490 -0.0292 -0.3865 -0.0809
   20MOL   H114 2432   5.273   1.104   4.545 -1.6332 -0.9243 -0.4297
   20MOL   H115 2433   5.421   1.040   4.480  0.1483 -0.4736  1.5230
   20MOL   C116 2434   5.244   1.028   4.348  0.0687 -0.0597 -0.8565
   20MOL  Cl117 2435   5.272   0.866   4.270 -0.0361 -0.0287 -0.2076
   20MOL  Cl118 2436   5.321   1.152   4.243  0.1310  0.0697  0.0270
   20MOL   C119 2437   5.096   1.057   4.346 -0.1023 -0.5439  0.3424
   20MOL   H120 2438   5.036   0.973   4.380 -2.5827  0.0698 -2.3043
   20MOL   H121 2439   5.071   1.154   4.388 -0.3905  0.6191 -2.3557
   20MOL   H122 2440   5.077   1.060   4.238 -0.5847  0.1208  0.4439
   21MOL     C1 2441   4.604   0.422   4.834  0.1610 -0.3835 -0.3108
   21MOL    Cl2 2442   4.526   0.264   4.883  0.0352  0.0736 -0.8079
   21MOL    Cl3 2443   4.754   0.367   4.748 -0.0125  0.0497  0.2604
   21MOL     C4 2444   4.522   0.506   4.734 -0.2892  0.0512 -0.2224
   21MOL     H5 2445   4.594   0.581   4.701  2.9110 -1.9836  1.9190
   21MOL     H6 2446   4.507   0.424   4.663 -1.0148 -0.9893  1.1141
   21MOL     H7 2447   4.622   0.474   4.928 -2.7052 -1.5747  0.9435
   21MOL     C8 2448   4.380   0.570   4.763  0.4570  0.0993  0.5054
   21MOL    Cl9 2449   4.388   0.684   4.902 -0.0368 -0.0822  0.2386
   21MOL   Cl10 2450   4.257   0.448   4.791  0.1816 -0.1586  0.2441
   21MOL    C11 2451   4.326   0.655   4.641  0.6170 -0.6450  0.0625
   21MOL    H12 2452   4.259   0.594   4.581 -0.8494  0.8217  0.1496
   21MOL    H13 2453   4.266   0.734   4.688 -0.2673 -0.9772 -0.4915
   21MOL    C14 2454   4.410   0.723   4.529 -0.1483  0.7696 -0.3276
   21MOL   Cl15 2455   4.501   0.594   4.449  0.0507  0.0256  0.2090
   21MOL   Cl16 2456   4.535   0.836   4.596  0.0637  0.2058  0.0715
   21MOL    C17 2457   4.342   0.793   4.402  0.1591  0.4567  0.4184
   21MOL    H18 2458   4.421   0.847   4.349 -0.8288 -0.0859 -1.6679
   21MOL    H19 2459   4.303   0.717   4.334 -0.1264  0.8156  0.1791
   21MOL    C20 2460   4.219   0.887   4.416 -0.7553 -0.2375  0.0954
   21MOL   Cl21 2461   4.239   1.000   4.570  0.4285  0.2513 -0.4341
   21MOL   Cl22 2462   4.087   0.768   4.428  0.2612  0.0631 -0.0459
   21MOL    C23 2463   4.212   0.970   4.286  0.3994  0.1824 -0.4472
   21MOL    H24 2464   4.275   1.059   4.285 -0.0679  0.5148 -1.4745
   21MOL    H25 2465   4.251   0.902   4.210  0.6100  1.0135 -1.0809
   21MOL    C26 2466   4.082   1.034   4.232  0.0696  0.1013  0.4720
   21MOL   Cl27 2467   3.992   1.104   4.367 -0.1548 -0.1314  0.0899
   21MOL   Cl28 2468   3.986   0.911   4.159 -0.2661 -0.0337 -0.2575
   21MOL    C29 2469   4.101   1.154   4.137 -0.5797  0.2324  0.2663
   21MOL    H30 2470   4.008   1.186   4.091 -0.5965 -0.5870 -0.2768
   21MOL    H31 2471   4.126   1.237   4.204 -1.1912  1.5225 -1.0949
   21MOL    C32 2472   4.190   1.136   4.011  0.0284 -0.0517  1.1614
   21MOL   Cl33 2473   4.144   0.988   3.925 -0.0265  0.0722 -0.0212
   21MOL   Cl34 2474   4.360   1.115   4.046  0.3179 -0.0523 -0.3909
   21MOL    C35 2475   4.170   1.251   3.903  0.4689  0.0778 -0.3141
   21MOL    H36 2476   4.246   1.240   3.826  0.1925 -1.6289 -0.3563
   21MOL    H37 2477   4.075   1.234   3.853  1.1117 -1.5218 -1.0069
   21MOL    C38 2478   4.164   1.398   3.946 -0.2700  0.1671  0.0578
   21MOL   Cl39 2479   4.286   1.431   4.074  0.4348 -0.1355  0.2776
   21MOL   Cl40 2480   4.003   1.427   4.014  0.1504  0.0315  0.2747
   21MOL    C41 2481   4.192   1.497   3.830  0.3897  0.4108 -0.3815
   21MOL    H42 2482   4.220   1.594   3.873 -1.2663  0.3829  0.8444
   21MOL    H43 2483   4.288   1.467   3.789 -0.3936 -1.6510 -0.7736
   21MOL    C44 2484   4.088   1.512   3.715  0.0908 -0.3981 -0.2429
   21MOL   Cl45 2485   3.953   1.608   3.775  0.3134 -0.0275 -0.1120
   21MOL   Cl46 2486   4.031   1.361   3.652 -0.2399 -0.1502 -0.0496
   21MOL    C47 2487   4.153   1.600   3.603 -0.0139 -1.1805 -0.3498
   21MOL    H48 2488   4.087   1.675   3.559 -1.2760 -1.5830  0.7930
   21MOL    H49 2489   4.225   1.669   3.647  0.6431 -2.4421  0.5835
   21MOL    C50 2490   4.218   1.533   3.480  0.3465 -0.0643 -0.0518
   21MOL   Cl51 2491   4.091   1.453   3.387  0.0687  0.3287  0.3953
   21MOL   Cl52 2492   4.330   1.403   3.531 -0.0443  0.0489 -0.4297
   21MOL    C53 2493   4.282   1.638   3.381 -0.6681 -0.4983  0.1130
   21MOL    H54 2494   4.205   1.708   3.349 -0.5900  0.6866  2.4022
   21MOL    H55 2495   4.349   1.706   3.434 -0.7790  0.3315 -0.8073
   21MOL    C56 2496   4.363   1.608   3.250 -0.1391 -0.1931  1.0671
   21MOL   Cl57 2497   4.515   1.536   3.291 -0.1765  0.1716 -0.0723
   21MOL   Cl58 2498   4.392   1.764   3.172 -0.1344 -0.0175 -0.0689
   21MOL    C59 2499   4.306   1.506   3.148  0.1597 -0.0889  0.2891
   21MOL    H60 2500   4.382   1.463   3.083 -1.2588 -0.8507 -0.8911
   21MOL    H61 2501   4.279   1.420   3.209 -0.1822 -1.2696 -1.4943
   21MOL    C62 2502   4.185   1.547   3.051  0.3318 -0.4710  0.3725
   21MOL   Cl63 2503   4.238   1.648   2.911  0.5293 -0.1007 -0.0900
   21MOL   Cl64 2504   4.061   1.648   3.147 -0.1378  0.0435 -0.0640
   21MOL    C65 2505   4.101   1.430   2.992  0.2340  0.3184 -0.6083
   21MOL    H66 2506   4.034   1.397   3.071  1.4259  0.1505  0.3429
   21MOL    H67 2507   4.032   1.475   2.921  0.4089 -0.0433 -1.0135
   21MOL    C68 2508   4.162   1.302   2.944 -0.4337  0.4094  0.3608
   21MOL   Cl69 2509   4.228   1.207   3.083 -0.2183 -0.0155 -0.1085
   21MOL   Cl70 2510   4.289   1.336   2.827 -0.1086 -0.2803 -0.0015
   21MOL    C71 2511   4.060   1.212   2.876 -0.5600 -0.3890  0.3869
   21MOL    H72 2512   3.981   1.189   2.948 -1.5612  3.0182  0.4392
   21MOL    H73 2513   4.010   1.268   2.797 -0.8799 -1.1741  0.0250
   21MOL    C74 2514   4.094   1.073   2.809 -0.2838 -0.1271  0.2594
   21MOL   Cl75 2515   4.170   1.090   2.646 -0.0091  0.1609 -0.1642
   21MOL   Cl76 2516   3.930   1.006   2.783 -0.1904  0.2623  0.2337
   21MOL    C77 2517   4.181   0.974   2.893  0.2743  0.4460 -0.2176
   21MOL    H78 2518   4.280   1.016   2.905  1.2285 -1.0375 -2.6961
   21MOL    H79 2519   4.142   0.962   2.995 -1.3159  1.1114 -0.7219
   21MOL    C80 2520   4.197   0.821   2.843 -0.1997  0.2041  0.2579
   21MOL   Cl81 2521   4.048   0.721   2.849  0.2180 -0.4446  0.2397
   21MOL   Cl82 2522   4.321   0.761   2.961  0.0890 -0.1908 -0.1074
   21MOL    C83 2523   4.256   0.806   2.694 -0.5775 -0.2622 -0.0863
   21MOL    H84 2524   4.171   0.828   2.630  0.5259  0.6657 -1.2440
   21MOL    H85 2525   4.326   0.889   2.694 -0.5358 -0.2977 -0.3086
   21MOL    C86 2526   4.327   0.685   2.639  0.0959 -0.0271 -0.6791
   21MOL   Cl87 2527   4.489   0.684   2.702  0.0665 -0.1902  0.2997
   21MOL   Cl88 2528   4.341   0.703   2.464  0.0046  0.0661  0.4198
   21MOL    C89 2529   4.264   0.545   2.681  0.0017 -0.2109 -0.6272
   21MOL    H90 2530   4.280   0.518   2.785 -0.8738  2.1244  0.1542
   21MOL    H91 2531   4.156   0.559   2.677 -0.1234 -1.1438 -0.4831
   21MOL    C92 2532   4.288   0.410   2.605 -0.1019  0.6493  0.1611
   21MOL   Cl93 2533   4.197   0.398   2.454  0.4197 -0.3608 -0.2779
   21MOL   Cl94 2534   4.232   0.279   2.717  0.0983  0.0652 -0.1138
   21MOL    C95 2535   4.441   0.384   2.580  0.1706  0.0622 -0.0983
   21MOL    H96 2536   4.494   0.477   2.560  0.3871  0.1624  0.9189
   21MOL    H97 2537   4.483   0.354   2.676  1.0094 -1.0735 -0.8032
   21MOL    C98 2538   4.491   0.276   2.472  0.3119 -0.4319 -0.3495
   21MOL   Cl99 2539   4.667   0.281   2.504 -0.4660 -0.1834 -0.4719
   21MOL  Cl100 2540   4.454   0.314   2.307  0.0310 -0.0127  0.0557
   21MOL   C101 2541   4.428   0.140   2.507  0.2917  0.1081 -0.3702
   21MOL   H102 2542   4.439   0.132   2.615  2.7287 -0.3601 -0.6310
   21MOL   H103 2543   4.322   0.137   2.482  1.0806 -0.9105 -3.8258
   21MOL   C104 2544   4.494   0.004   2.461  0.7431  0.2871  0.0292
   21MOL  Cl105 2545   4.643   9.172   2.541 -0.2173 -0.4149 -0.3158
   21MOL  Cl106 2546   4.515   0.001   2.281  0.4190  0.0910 -0.4528
   21MOL   C107 2547   4.401   9.063   2.500  0.0977 -0.5293 -0.1102
   21MOL   H108 2548   4.350   9.085   2.594 -0.7448  2.6170 -1.2370
   21MOL   H109 2549   4.312   9.066   2.437 -0.1629 -0.2430  0.2664
   21MOL   C110 2550   4.448   8.915   2.513  0.5013  0.5397  0.0879
   21MOL  Cl111 2551   4.294   8.826   2.522  0.3841 -0.1617  0.1459
   21MOL  Cl112 2552   4.542   8.900   2.659  0.1384  0.0821  0.0743
   21MOL   C113 2553   4.531   8.864   2.392 -0.9668 -0.3605 -0.5848
   21MOL   H114 2554   4.475   8.894   2.304 -0.1466  0.0245 -0.9735
   21MOL   H115 2555   4.624   8.919   2.397 -0.9357 -0.4803  0.4118
   21MOL   C116 2556   4.568   8.715   2.374  0.3011 -0.3403 -0.6273
   21MOL  Cl117 2557   4.668   8.723   2.217  0.4342 -0.1462 -0.2095
   21MOL  Cl118 2558   4.436   8.600   2.350 -0.2929 -0.0427 -0.0506
   21MOL   C119 2559   4.665   8.653   2.477 -0.4363 -0.8585 -0.0227
   21MOL   H120 2560   4.701   8.560   2.431 -0.2729 -1.2595  0.9026
   21MOL   H121 2561   4.754   8.711   2.504  1.1457 -3.6705  1.0953
   21MOL   H122 2562   4.609   8.642   2.570 -2.0555 -0.4858 -0.9337
   22MOL     C1 2563   7.968   4.737   5.999  0.3170  0.0528  0.2633
   22MOL    Cl2 2564   8.143   4.751   6.009 -0.3353 -0.0145  0.3568
   22MOL    Cl3 2565   7.907   4.758   6.170 -0.6354 -0.3739  0.2399
   22MOL     C4 2566   7.910   4.856   5.921  0.5793  0.2029  0.2538
   22MOL     H5 2567   7.802   4.846   5.918  0.6015 -0.7054  1.8847
   22MOL     H6 2568   7.931   4.941   5.987 -1.1148 -0.2828  1.4536
   22MOL     H7 2569   7.929   4.640   5.967 -1.7188  0.7938  0.3849
   22MOL     C8 2570   7.956   4.880   5.773  0.3907  0.8477 -0.1842
   22MOL    Cl9 2571   7.843   4.996   5.707  0.2541  0.0163 -0.5017
   22MOL   Cl10 2572   7.902   4.722   5.694  0.0372  0.1593  0.1501
   22MOL    C11 2573   8.110   4.910   5.756 -0.2056  0.0446  0.5321
   22MOL    H12 2574   8.150   4.968   5.839 -2.0606  1.5190  0.4237
   22MOL    H13 2575   8.173   4.821   5.761  3.0853  2.0236 -2.9901
   22MOL    C14 2576   8.161   4.973   5.626  0.7245 -0.3640 -0.2396
   22MOL   Cl15 2577   8.083   4.876   5.501  0.0468 -0.1130 -0.1706
   22MOL   Cl16 2578   8.337   4.957   5.614  0.0282 -0.3026  0.1761
   22MOL    C17 2579   8.117   5.122   5.604 -0.0884  0.1162  0.3119
   22MOL    H18 2580   8.013   5.117   5.574 -0.0660  0.6587  0.1324
   22MOL    H19 2581   8.109   5.184   5.693 -0.9612  0.6703 -0.1423
   22MOL    C20 2582   8.193   5.218   5.508  0.9319  0.3922  0.5728
   22MOL   Cl21 2583   8.243   5.127   5.356 -0.0522 -0.1481  0.3051
   22MOL   Cl22 2584   8.348   5.272   5.572 -0.1458  0.2033 -0.3788
   22MOL    C23 2585   8.108   5.341   5.469  0.0350  0.6091  0.4911
   22MOL    H24 2586   8.062   5.366   5.564  0.9547  0.4289  0.9822
   22MOL    H25 2587   8.163   5.430   5.439 -1.1557  1.2701  0.2108
   22MOL    C26 2588   7.992   5.323   5.359 -0.1774  0.8295  0.5683
   22MOL   Cl27 2589   7.877   5.454   5.396  0.2709 -0.2326 -0.3349
   22MOL   Cl28 2590   7.900   5.172   5.376  0.2472  0.5566 -0.0676
   22MOL    C29 2591   8.033   5.340   5.212  0.3387  0.1327  0.5471
   22MOL    H30 2592   8.117   5.409   5.201 -2.0897  2.5670 -3.6381
   22MOL    H31 2593   8.057   5.240   5.175 -0.1662  0.6892 -1.3306
   22MOL    C32 2594   7.937   5.391   5.092 -0.1215  1.1348  0.0986
   22MOL   Cl33 2595   7.789   5.293   5.102 -0.2631 -0.1760  0.1203
   22MOL   Cl34 2596   8.026   5.344   4.940 -0.1627 -0.2298  0.1430
   22MOL    C35 2597   7.888   5.545   5.087  0.2269  1.1480 -0.3697
   22MOL    H36 2598   7.828   5.551   4.997  2.3175 -0.9461 -1.9757
   22MOL    H37 2599   7.814   5.561   5.166  1.0772 -0.7896  0.8643
   22MOL    C38 2600   7.994   5.662   5.096 -0.5592 -0.8804 -0.2946
   22MOL   Cl39 2601   8.126   5.649   4.965 -0.2548 -0.7185  0.1469
   22MOL   Cl40 2602   8.081   5.662   5.257  0.0367  0.3947 -0.0031
   22MOL    C41 2603   7.913   5.793   5.094  0.0350  0.6855  0.4603
   22MOL    H42 2604   7.988   5.868   5.120  1.0378  0.5553 -1.9895
   22MOL    H43 2605   7.890   5.810   4.989 -1.9073  4.4243  1.4000
   22MOL    C44 2606   7.775   5.828   5.166 -0.4954 -0.1155  0.0042
   22MOL   Cl45 2607   7.764   5.763   5.332 -0.2723 -0.3955  0.2525
   22MOL   Cl46 2608   7.631   5.758   5.090 -0.1211  0.3416 -0.1140
   22MOL    C47 2609   7.773   5.981   5.193 -0.4234 -0.3333 -0.4972
   22MOL    H48 2610   7.694   6.003   5.266 -0.2243  0.2709 -0.4588
   22MOL    H49 2611   7.865   6.000   5.248  0.5362 -0.9006 -1.8761
   22MOL    C50 2612   7.752   6.091   5.077 -0.2606 -0.0622 -0.2776
   22MOL   Cl51 2613   7.599   6.049   4.991 -0.6463 -0.4421  0.2954
   22MOL   Cl52 2614   7.881   6.072   4.955  0.1612  0.0784  0.0125
   22MOL    C53 2615   7.754   6.244   5.116 -0.1620  0.2590 -0.5205
   22MOL    H54 2616   7.859   6.271   5.123  0.1219 -0.4821 -1.9141
   22MOL    H55 2617   7.708   6.298   5.034  0.6622  1.1828 -0.3760
   22MOL    C56 2618   7.688   6.296   5.250  0.5877 -0.3576  0.1900
   22MOL   Cl57 2619   7.696   6.476   5.237 -0.0195 -0.3367 -0.2865
   22MOL   Cl58 2620   7.791   6.246   5.385  0.1166  0.2598 -0.2692
   22MOL    C59 2621   7.534   6.266   5.262 -0.4038  0.0427  0.4013
   22MOL    H60 2622   7.482   6.346   5.209  0.9360  0.3303 -0.4743
   22MOL    H61 2623   7.510   6.173   5.210 -1.0976  0.9922 -1.0087
   22MOL    C62 2624   7.458   6.248   5.399  0.0306 -0.0102  0.4622
   22MOL   Cl63 2625   7.492   6.377   5.513  0.1474 -0.2060 -0.1725
   22MOL   Cl64 2626   7.513   6.089   5.467  0.0075 -0.0836  0.4054
   22MOL    C65 2627   7.300   6.257   5.399 -0.5321  0.0436 -0.0448
   22MOL    H66 2628   7.277   6.204   5.492 -0.4389 -0.5276 -0.3459
   22MOL    H67 2629   7.263   6.358   5.416 -0.4403  0.3832 -1.7768
   22MOL    C68 2630   7.210   6.199   5.285  0.5113 -0.3976 -0.3214
   22MOL   Cl69 2631   7.277   6.040   5.240 -0.3231 -0.1789 -0.0738
   22MOL   Cl70 2632   7.213   6.299   5.137  0.2047  0.1078 -0.2557
   22MOL    C71 2633   7.067   6.172   5.332 -0.3790  0.1171 -0.1376
   22MOL    H72 2634   7.020   6.135   5.241  0.3972 -1.3019  0.0117
   22MOL    H73 2635   7.074   6.082   5.394  1.0552 -0.3319 -0.9033
   22MOL    C74 2636   6.982   6.280   5.406 -0.1752 -0.3004 -0.2907
   22MOL   Cl75 2637   7.000   6.435   5.334 -0.0773 -0.0727 -0.1619
   22MOL   Cl76 2638   7.039   6.292   5.569 -0.2865 -0.0868 -0.1723
   22MOL    C77 2639   6.831   6.253   5.402 -0.5193 -0.0738 -0.0932
   22MOL    H78 2640   6.795   6.337   5.462 -0.3896  1.0365 -1.5609
   22MOL    H79 2641   6.797   6.271   5.300  0.6928 -0.7661 -0.6221
   22MOL    C80 2642   6.766   6.114   5.444  0.0088  0.5622  0.0092
   22MOL   Cl81 2643   6.830   6.055   5.599  0.2136 -0.0822  0.3809
   22MOL   Cl82 2644   6.793   5.984   5.317  0.0082  0.1801  0.5399
   22MOL    C83 2645   6.612   6.122   5.470 -0.0539 -0.9322  0.2917
   22MOL    H84 2646   6.576   6.021   5.494 -0.8384 -0.9289 -0.8282
   22MOL    H85 2647   6.615   6.197   5.549 -0.1858  1.0881 -1.6005
   22MOL    C86 2648   6.509   6.183   5.364 -0.4242 -0.5842  0.8077
   22MOL   Cl87 2649   6.508   6.091   5.219  0.3512  0.3897  0.2501
   22MOL   Cl88 2650   6.554   6.349   5.317  0.1926 -0.1338  0.1244
   22MOL    C89 2651   6.365   6.196   5.412  0.3900 -0.1186  0.5596
   22MOL    H90 2652   6.365   6.282   5.478  1.1386  1.4278 -1.4108
   22MOL    H91 2653   6.308   6.223   5.323  0.8256 -0.6179  0.1212
   22MOL    C92 2654   6.293   6.076   5.487 -0.5129  0.3120 -0.7606
   22MOL   Cl93 2655   6.358   6.070   5.651  0.0430 -0.3370  0.3457
   22MOL   Cl94 2656   6.315   5.916   5.412  0.3319 -0.4607  0.2237
   22MOL    C95 2657   6.141   6.100   5.518  0.2961  0.7629 -0.1660
   22MOL    H96 2658   6.107   6.033   5.597 -3.0622  0.3097 -1.9240
   22MOL    H97 2659   6.144   6.195   5.571  0.5999  0.1189  0.9877
   22MOL    C98 2660   6.027   6.102   5.406  0.1963  1.0567  0.7339
   22MOL   Cl99 2661   6.050   6.250   5.304 -0.6096  0.3178  0.0584
   22MOL  Cl100 2662   5.877   6.120   5.492 -0.4435 -0.0574 -0.7824
   22MOL   C101 2663   6.025   5.981   5.309  0.6166 -0.1397 -0.5073
   22MOL   H102 2664   6.115   5.991   5.249  0.5041 -0.0430 -0.6622
   22MOL   H103 2665   6.046   5.903   5.382 -2.1952  0.9322  1.5782
   22MOL   C104 2666   5.898   5.941   5.230  0.1376  0.4682  0.9314
   22MOL  Cl105 2667   5.819   6.090   5.167  0.0814 -0.1953  0.0734
   22MOL  Cl106 2668   5.788   5.855   5.340 -0.4447 -0.1740  0.0364
   22MOL   C107 2669   5.916   5.853   5.108  0.1564  0.5567  0.8338
   22MOL   H108 2670   5.824   5.806   5.072 -0.2707  0.2684  2.2340
   22MOL   H109 2671   5.945   5.911   5.021 -1.9500  0.1364 -0.1962
   22MOL   C110 2672   6.011   5.728   5.112  0.3935  1.3475  0.3157
   22MOL  Cl111 2673   6.172   5.780   5.085 -0.3452 -0.0899 -0.2187
   22MOL  Cl112 2674   5.973   5.632   4.968 -0.3966  0.1683 -0.0566
   22MOL   C113 2675   5.992   5.629   5.232  0.3176  0.1527  0.3367
   22MOL   H114 2676   6.014   5.697   5.314  0.5179  3.6521 -2.4979
   22MOL   H115 2677   5.886   5.604   5.245  0.0997  1.5385  1.4242
   22MOL   C116 2678   6.078   5.504   5.248 -0.0726  0.3844 -0.8136
   22MOL  Cl117 2679   6.024   5.448   5.405  0.3945 -0.1867  0.0983
   22MOL  Cl118 2680   6.251   5.517   5.260  0.0628 -0.4160 -0.0710
   22MOL   C119 2681   6.037   5.390   5.148 -0.2701 -0.3882  0.3936
   22MOL   H120 2682   5.931   5.397   5.124 -0.4900 -0.2915  1.3475
   22MOL   H121 2683   6.089   5.396   5.053 -1.1375  1.1687 -0.0150
   22MOL   H122 2684   6.049   5.290   5.189  1.9208 -0.6599 -0.8772
   23MOL     C1 2685   4.543   5.718   5.647 -0.6532  0.5779 -0.4012
   23MOL    Cl2 2686   4.589   5.606   5.514 -0.1386  0.0168  0.1923
   23MOL    Cl3 2687   4.594   5.879   5.612 -0.0370 -0.0264  0.0270
   23MOL     C4 2688   4.387   5.720   5.668  0.8164  0.1857 -0.1612
   23MOL     H5 2689   4.351   5.738   5.567 -0.4380 -2.3922 -0.2057
   23MOL     H6 2690   4.364   5.614   5.682  0.4750  0.4683  1.5069
   23MOL     H7 2691   4.598   5.695   5.738  1.1010  0.3373 -1.5021
   23MOL     C8 2692   4.320   5.819   5.772  0.0128 -0.0393  0.3769
   23MOL    Cl9 2693   4.310   5.982   5.685 -0.2262  0.0653 -0.0913
   23MOL   Cl10 2694   4.430   5.849   5.913  0.2117  0.1256  0.1633
   23MOL    C11 2695   4.187   5.783   5.834  0.2515 -0.0213  0.5037
   23MOL    H12 2696   4.207   5.696   5.897 -0.6716 -1.3111 -0.9466
   23MOL    H13 2697   4.161   5.867   5.898  0.6514  0.8369 -0.4322
   23MOL    C14 2698   4.064   5.759   5.745  0.8374  0.2248  0.4938
   23MOL   Cl15 2699   4.094   5.637   5.628  0.1591 -0.4952  0.1556
   23MOL   Cl16 2700   4.009   5.903   5.657  0.1479  0.3399  0.3244
   23MOL    C17 2701   3.932   5.725   5.826 -0.3510  0.1641  0.8918
   23MOL    H18 2702   3.890   5.818   5.865  0.3478  0.6862  0.4065
   23MOL    H19 2703   3.850   5.686   5.765  0.5718 -1.8103  0.8924
   23MOL    C20 2704   3.946   5.624   5.946 -0.4497  0.3659 -0.4720
   23MOL   Cl21 2705   4.027   5.699   6.085 -0.0367 -0.2839  0.2518
   23MOL   Cl22 2706   4.044   5.483   5.895 -0.1650 -0.2399 -0.3843
   23MOL    C23 2707   3.812   5.579   5.993 -0.1599 -0.2804  0.5343
   23MOL    H24 2708   3.754   5.671   5.999  1.1197  0.5572  0.1005
   23MOL    H25 2709   3.783   5.530   5.900 -0.2850 -1.5267  1.2099
   23MOL    C26 2710   3.773   5.486   6.117  0.5507  0.0563 -0.1925
   23MOL   Cl27 2711   3.790   5.577   6.269 -0.0837 -0.4337  0.0386
   23MOL   Cl28 2712   3.879   5.337   6.119 -0.4622 -0.2837  0.3483
   23MOL    C29 2713   3.624   5.431   6.110  0.4675  0.2871 -0.1168
   23MOL    H30 2714   3.626   5.387   6.010 -3.5278  0.9421 -0.5806
   23MOL    H31 2715   3.624   5.344   6.175  2.4148 -0.5315 -1.1580
   23MOL    C32 2716   3.501   5.518   6.143 -1.0653  0.9169 -0.4949
   23MOL   Cl33 2717   3.532   5.693   6.129 -0.0879  0.0279 -0.3540
   23MOL   Cl34 2718   3.467   5.483   6.320  0.3081  0.1944  0.2721
   23MOL    C35 2719   3.370   5.478   6.067  0.4139  0.1813  0.3249
   23MOL    H36 2720   3.309   5.401   6.114  0.5417 -0.2925 -0.2805
   23MOL    H37 2721   3.299   5.560   6.071  0.9641  0.7239 -0.9303
   23MOL    C38 2722   3.371   5.448   5.916  1.0550 -0.2154  0.2391
   23MOL   Cl39 2723   3.430   5.275   5.896  0.1173 -0.3828 -0.5705
   23MOL   Cl40 2724   3.497   5.546   5.841  0.0996 -0.2220 -0.2953
   23MOL    C41 2725   3.239   5.466   5.829  0.4211  0.1318  0.1466
   23MOL    H42 2726   3.229   5.571   5.801  0.0631 -0.0288 -0.3338
   23MOL    H43 2727   3.263   5.409   5.739  1.0494  1.6197 -0.6493
   23MOL    C44 2728   3.102   5.424   5.884  0.3298 -0.1658  0.3199
   23MOL   Cl45 2729   3.049   5.550   6.004 -0.4189  0.0938 -0.2174
   23MOL   Cl46 2730   3.099   5.258   5.962 -0.2012 -0.3198 -0.1211
   23MOL    C47 2731   2.978   5.421   5.780  0.0707 -0.0458 -0.3847
   23MOL    H48 2732   2.914   5.346   5.825  0.7369  1.5974  3.5283
   23MOL    H49 2733   2.940   5.524   5.778 -1.3090 -0.5599 -1.8853
   23MOL    C50 2734   2.988   5.372   5.632  0.5219  0.4410 -0.3037
   23MOL   Cl51 2735   3.069   5.210   5.631  0.6054 -0.3082 -0.2248
   23MOL   Cl52 2736   3.098   5.471   5.533 -0.0336 -0.0592 -0.1194
   23MOL    C53 2737   2.856   5.352   5.557  0.6893  0.1127  0.0717
   23MOL    H54 2738   2.885   5.342   5.452  0.7124  0.5346  0.0379
   23MOL    H55 2739   2.795   5.268   5.592 -1.0624  0.2642 -2.4859
   23MOL    C56 2740   2.756   5.473   5.561  0.1882  0.3012 -0.1626
   23MOL   Cl57 2741   2.820   5.634   5.528 -0.3940  0.6119  0.3439
   23MOL   Cl58 2742   2.675   5.488   5.724 -0.0977  0.0963 -0.1754
   23MOL    C59 2743   2.640   5.464   5.454  0.2117 -0.6110 -0.2407
   23MOL    H60 2744   2.573   5.391   5.498 -1.0985  0.3367 -0.6115
   23MOL    H61 2745   2.578   5.554   5.455 -2.0036 -2.1105  0.9552
   23MOL    C62 2746   2.664   5.413   5.309 -0.1576 -1.0173 -0.1824
   23MOL   Cl63 2747   2.503   5.455   5.243 -0.4430 -0.1519 -0.1792
   23MOL   Cl64 2748   2.664   5.235   5.314 -0.2106 -0.1570  0.3603
   23MOL    C65 2749   2.784   5.486   5.236 -0.0290 -0.4483  0.0196
   23MOL    H66 2750   2.772   5.595   5.243 -1.0928 -0.4217 -1.7366
   23MOL    H67 2751   2.881   5.471   5.283  0.7998 -1.0576 -1.8473
   23MOL    C68 2752   2.801   5.467   5.082  0.2109  0.0702  0.1131
   23MOL   Cl69 2753   2.960   5.543   5.045  0.2254 -0.0625 -0.4850
   23MOL   Cl70 2754   2.672   5.562   5.006 -0.0373  0.0951  0.1252
   23MOL    C71 2755   2.786   5.326   5.022 -0.0501  0.7956  0.2000
   23MOL    H72 2756   2.687   5.285   5.041 -0.3523  0.5752 -1.7774
   23MOL    H73 2757   2.768   5.336   4.915  0.8562 -1.4596 -0.2051
   23MOL    C74 2758   2.902   5.221   5.015  0.2384 -0.1707  0.5004
   23MOL   Cl75 2759   2.812   5.066   5.000  0.1724  0.0065  0.1578
   23MOL   Cl76 2760   2.986   5.218   5.175 -0.2076  0.5332 -0.2562
   23MOL    C77 2761   2.999   5.234   4.885  0.1247 -0.1292 -0.7403
   23MOL    H78 2762   2.937   5.219   4.797  0.4850  0.2547 -1.0611
   23MOL    H79 2763   3.027   5.339   4.874 -2.1209  0.9659  2.9144
   23MOL    C80 2764   3.126   5.147   4.862 -0.2871  0.6693 -0.2383
   23MOL   Cl81 2765   3.244   5.182   4.997  0.2022 -0.0117 -0.5000
   23MOL   Cl82 2766   3.195   5.195   4.705 -0.1947  0.1301 -0.1790
   23MOL    C83 2767   3.100   4.997   4.861  0.4409  0.4133  0.1203
   23MOL    H84 2768   3.075   4.987   4.967 -1.3196 -0.3195 -0.3412
   23MOL    H85 2769   3.004   4.969   4.818  1.7255 -1.6228 -1.5098
   23MOL    C86 2770   3.201   4.892   4.808  0.5226 -0.1971 -0.4413
   23MOL   Cl87 2771   3.177   4.747   4.901 -0.4484 -0.3568  0.2944
   23MOL   Cl88 2772   3.363   4.943   4.860  0.3540 -0.4142 -0.3768
   23MOL    C89 2773   3.182   4.857   4.652  0.4947 -1.1664 -0.1330
   23MOL    H90 2774   3.076   4.838   4.636  0.6536 -1.6586 -0.6527
   23MOL    H91 2775   3.205   4.950   4.600  1.1549 -0.1562  1.9296
   23MOL    C92 2776   3.272   4.757   4.563 -0.3812  0.6701  0.4618
   23MOL   Cl93 2777   3.452   4.759   4.590 -0.7010  0.4056 -0.0370
   23MOL   Cl94 2778   3.259   4.798   4.387  0.0890  0.0968  0.1065
   23MOL    C95 2779   3.240   4.602   4.583 -0.3997 -0.4680  0.6564
   23MOL    H96 2780   3.314   4.557   4.517 -0.6084 -0.2823  0.2959
   23MOL    H97 2781   3.272   4.566   4.681  2.3431  1.1527  0.4120
   23MOL    C98 2782   3.103   4.542   4.544 -0.0601  0.7012  0.0194
   23MOL   Cl99 2783   3.057   4.576   4.376  0.3919  0.1196 -0.2967
   23MOL  Cl100 2784   2.981   4.613   4.648  0.2646  0.4508 -0.0990
   23MOL   C101 2785   3.094   4.388   4.564 -0.4560 -0.0210 -0.1691
   23MOL   H102 2786   3.079   4.361   4.669  1.9818  1.0156  0.4850
   23MOL   H103 2787   2.999   4.357   4.521  0.7045 -1.0128 -2.0645
   23MOL   C104 2788   3.203   4.289   4.508 -0.5408  0.3450  0.8644
   23MOL  Cl105 2789   3.131   4.123   4.523  0.2764  0.2332 -0.3106
   23MOL  Cl106 2790   3.359   4.295   4.596 -0.4532 -0.3698  0.2862
   23MOL   C107 2791   3.230   4.322   4.354 -0.1498  0.4722  0.2727
   23MOL   H108 2792   3.139   4.352   4.302 -0.6999 -0.8640  0.4524
   23MOL   H109 2793   3.293   4.412   4.353 -1.5588  1.4696 -0.4278
   23MOL   C110 2794   3.285   4.208   4.258 -0.3168 -0.0449 -0.2539
   23MOL  Cl111 2795   3.154   4.120   4.178 -0.1368 -0.2306  0.9532
   23MOL  Cl112 2796   3.385   4.083   4.345 -0.3667  0.0127 -0.0810
   23MOL   C113 2797   3.381   4.257   4.142  0.9099  0.1725  0.1885
   23MOL   H114 2798   3.469   4.303   4.188 -0.2196  3.9569 -1.2399
   23MOL   H115 2799   3.424   4.164   4.106  1.2769  0.1407  0.6956
   23MOL   C116 2800   3.330   4.360   4.038 -0.9933 -0.5970  0.8820
   23MOL  Cl117 2801   3.467   4.406   3.947  0.2211 -0.0959 -0.5411
   23MOL  Cl118 2802   3.272   4.515   4.116  0.2277  0.2095 -0.1903
   23MOL   C119 2803   3.232   4.309   3.925 -0.6259  0.0791  0.5999
   23MOL   H120 2804   3.245   4.365   3.832  2.0074 -0.1584  0.7733
   23MOL   H121 2805   3.261   4.210   3.890 -1.7476 -0.3438  0.8664
   23MOL   H122 2806   3.127   4.312   3.953 -1.0060 -0.0805 -0.7463
   24MOL     C1 2807   6.126   1.058   3.282  0.2161  0.0255  0.0922
   24MOL    Cl2 2808   6.130   0.894   3.218 -0.3968  0.3216  0.2898
   24MOL    Cl3 2809   6.274   1.082   3.374  0.2656 -0.5116  0.0475
   24MOL     C4 2810   6.119   1.173   3.183  0.2237  0.1174  1.0056
   24MOL     H5 2811   6.160   1.266   3.223 -1.1546 -0.0415  2.8437
   24MOL     H6 2812   6.195   1.145   3.110 -1.4837 -2.2416  0.0866
   24MOL     H7 2813   6.046   1.055   3.356 -0.4291 -1.1715 -0.6389
   24MOL     C8 2814   5.979   1.204   3.119 -0.3202 -0.6369 -0.1478
   24MOL    Cl9 2815   5.881   1.269   3.256  0.3660  0.2287  0.4851
   24MOL   Cl10 2816   5.905   1.048   3.061 -0.1351 -0.1262  0.0446
   24MOL    C11 2817   5.975   1.318   3.008 -0.3200  0.0246 -0.1819
   24MOL    H12 2818   5.873   1.323   2.968 -0.4213 -0.3576  0.0331
   24MOL    H13 2819   5.994   1.410   3.064 -1.6060 -0.1522  0.5674
   24MOL    C14 2820   6.069   1.326   2.891 -0.7502  0.0900 -0.5670
   24MOL   Cl15 2821   6.243   1.348   2.942 -0.1013 -0.1680 -0.6513
   24MOL   Cl16 2822   6.030   1.477   2.798  0.0039 -0.1660  0.0697
   24MOL    C17 2823   6.059   1.196   2.804 -0.1232  0.1434  0.2309
   24MOL    H18 2824   6.154   1.192   2.750 -0.5463 -1.2276 -0.4229
   24MOL    H19 2825   6.062   1.113   2.874 -2.2342  0.5488  0.8296
   24MOL    C20 2826   5.940   1.167   2.703  0.3716 -0.6859 -0.4822
   24MOL   Cl21 2827   5.954   1.267   2.557 -0.0967  0.0777 -0.3955
   24MOL   Cl22 2828   5.777   1.208   2.764 -0.1940  0.3113  0.2933
   24MOL    C23 2829   5.930   1.013   2.666  0.0367  0.2570  0.0956
   24MOL    H24 2830   5.901   0.973   2.763  2.7138  0.3313  0.9530
   24MOL    H25 2831   5.839   0.998   2.608  0.0367  1.7374 -0.3049
   24MOL    C26 2832   6.059   0.942   2.607  0.0597 -0.5011  0.1314
   24MOL   Cl27 2833   6.138   0.872   2.750  0.2325 -0.1482 -0.6093
   24MOL   Cl28 2834   6.167   1.053   2.526 -0.0317 -0.0851  0.1649
   24MOL    C29 2835   6.011   0.831   2.516 -0.6131 -0.0387 -0.1646
   24MOL    H30 2836   5.952   0.767   2.581  2.8616 -2.0892  1.0731
   24MOL    H31 2837   5.940   0.875   2.446  2.1026  3.3382 -0.9555
   24MOL    C32 2838   6.100   0.741   2.424 -0.2832  0.0169  0.3594
   24MOL   Cl33 2839   6.155   0.841   2.291 -0.0171 -0.8729 -0.0452
   24MOL   Cl34 2840   5.991   0.615   2.366 -0.4204 -0.1341 -0.1586
   24MOL    C35 2841   6.220   0.684   2.502  0.1900 -0.0374  0.4998
   24MOL    H36 2842   6.291   0.765   2.518  1.8517 -1.8263  2.5337
   24MOL    H37 2843   6.175   0.652   2.596  0.4098  2.5898  1.5613
   24MOL    C38 2844   6.296   0.563   2.443 -0.2477  0.3965  0.1169
   24MOL   Cl39 2845   6.197   0.416   2.488  0.1546  0.2641 -0.1737
   24MOL   Cl40 2846   6.448   0.547   2.530 -0.1926 -0.4719 -0.1426
   24MOL    C41 2847   6.316   0.555   2.291 -0.3548  0.0675  0.1780
   24MOL    H42 2848   6.306   0.449   2.266  0.9643 -0.9029  3.5400
   24MOL    H43 2849   6.239   0.610   2.236  0.1216  2.4097  1.7674
   24MOL    C44 2850   6.442   0.606   2.223 -0.9286  0.0713  0.0799
   24MOL   Cl45 2851   6.567   0.477   2.236 -0.1217 -0.1027  0.0022
   24MOL   Cl46 2852   6.501   0.757   2.314 -0.2101  0.2920  0.2152
   24MOL    C47 2853   6.423   0.656   2.072 -0.0360 -0.2012 -0.1689
   24MOL    H48 2854   6.367   0.749   2.066 -0.4906 -0.3567  1.5189
   24MOL    H49 2855   6.522   0.682   2.035  0.6240 -2.3295  0.0190
   24MOL    C50 2856   6.352   0.560   1.967 -0.1010 -0.0481 -0.5522
   24MOL   Cl51 2857   6.173   0.577   1.987  0.1673  0.2654  0.2360
   24MOL   Cl52 2858   6.405   0.387   1.980  0.0496 -0.5228 -0.1185
   24MOL    C53 2859   6.354   0.612   1.818 -0.2102 -0.4446  0.0874
   24MOL    H54 2860   6.264   0.593   1.758  1.2627  1.7914 -2.9462
   24MOL    H55 2861   6.353   0.720   1.829 -0.9688 -0.5681  1.3093
   24MOL    C56 2862   6.467   0.583   1.718  0.2624 -0.1161 -0.5105
   24MOL   Cl57 2863   6.614   0.632   1.796 -0.1603 -0.0001 -0.2535
   24MOL   Cl58 2864   6.450   0.701   1.586  0.1938 -0.4236 -0.3963
   24MOL    C59 2865   6.487   0.441   1.660  0.4990 -0.3619  0.0720
   24MOL    H60 2866   6.572   0.439   1.593  0.6170 -0.6607  0.2258
   24MOL    H61 2867   6.513   0.374   1.742  2.7987  0.4048  0.0092
   24MOL    C62 2868   6.381   0.366   1.574 -0.3391 -0.9435  0.0842
   24MOL   Cl63 2869   6.225   0.355   1.652 -0.2715 -0.0206  0.1709
   24MOL   Cl64 2870   6.440   0.197   1.556 -0.4925 -0.0001 -0.1398
   24MOL    C65 2871   6.364   0.436   1.429 -0.1681  0.5974  0.3170
   24MOL    H66 2872   6.288   0.509   1.455 -1.8390 -0.8136 -0.4589
   24MOL    H67 2873   6.452   0.485   1.389 -0.7963  1.5270  0.0547
   24MOL    C68 2874   6.304   0.359   1.305  0.4018  0.0628  0.8119
   24MOL   Cl69 2875   6.156   0.260   1.340 -0.2101  0.2189  0.4876
   24MOL   Cl70 2876   6.437   0.255   1.241  0.2489  0.3160  0.0200
   24MOL    C71 2877   6.271   0.450   1.183  0.4974  0.4226 -0.5756
   24MOL    H72 2878   6.360   0.485   1.131  0.0724 -0.7294 -2.0924
   24MOL    H73 2879   6.217   0.383   1.116  0.0979  0.7142 -0.5513
   24MOL    C74 2880   6.180   0.572   1.205  0.3016 -0.1952 -0.5249
   24MOL   Cl75 2881   6.288   0.707   1.253 -0.1701  0.1068  0.8618
   24MOL   Cl76 2882   6.053   0.550   1.329 -0.0040  0.2144 -0.0399
   24MOL    C77 2883   6.098   0.625   1.084 -0.7009  0.6720 -0.1776
   24MOL    H78 2884   6.018   0.551   1.078  1.3716 -1.5203 -1.7709
   24MOL    H79 2885   6.040   0.717   1.098  1.5239  1.9680  0.8577
   24MOL    C80 2886   6.159   0.638   0.934 -0.2489 -0.0718 -0.0134
   24MOL   Cl81 2887   6.195   0.474   0.868  0.1740  0.0464 -0.3772
   24MOL   Cl82 2888   6.306   0.735   0.927 -0.4587  0.0935  0.1543
   24MOL    C83 2889   6.049   0.689   0.826  0.4390 -0.3989 -0.3740
   24MOL    H84 2890   6.091   0.675   0.726 -1.2999  0.7709 -1.2986
   24MOL    H85 2891   5.974   0.610   0.830  2.0675 -1.9682 -0.1300
   24MOL    C86 2892   5.965   0.829   0.829 -0.6683 -0.1216 -1.0654
   24MOL   Cl87 2893   5.852   0.813   0.969  0.0910 -0.2359 -0.1495
   24MOL   Cl88 2894   5.865   0.843   0.684  0.1751  0.1274 -0.1636
   24MOL    C89 2895   6.065   0.948   0.854  0.1459  0.2912  0.5472
   24MOL    H90 2896   5.999   1.029   0.886 -1.1112 -0.3563 -0.3723
   24MOL    H91 2897   6.132   0.937   0.939  1.0413 -2.2209 -0.4588
   24MOL    C92 2898   6.153   1.013   0.737  0.2327 -0.4531 -0.2273
   24MOL   Cl93 2899   6.036   1.100   0.639  0.1355  0.0826  0.0850
   24MOL   Cl94 2900   6.244   0.893   0.643  0.0593 -0.2197 -0.0214
   24MOL    C95 2901   6.266   1.114   0.782  0.6452 -0.7220  0.3825
   24MOL    H96 2902   6.318   1.046   0.850  1.2032 -0.2577  0.4161
   24MOL    H97 2903   6.339   1.134   0.704  2.2197  2.4912  2.5672
   24MOL    C98 2904   6.237   1.254   0.849  0.9457  0.6790  0.8144
   24MOL   Cl99 2905   6.115   1.238   0.978  0.0526  0.4660  0.6204
   24MOL  Cl100 2906   6.170   1.364   0.720  0.3559 -0.1499 -0.1098
   24MOL   C101 2907   6.368   1.318   0.910 -0.2425  0.0223  0.6473
   24MOL   H102 2908   6.425   1.362   0.828 -1.3774  0.7935  0.2482
   24MOL   H103 2909   6.328   1.402   0.966 -0.5559 -0.5628  1.3161
   24MOL   C104 2910   6.468   1.234   0.988 -0.0887  0.3137 -0.3356
   24MOL  Cl105 2911   6.570   1.145   0.876 -0.1659  0.3819 -0.2245
   24MOL  Cl106 2912   6.383   1.121   1.103  0.3182 -0.1489 -0.5392
   24MOL   C107 2913   6.559   1.315   1.082 -0.4800  0.5102  0.2801
   24MOL   H108 2914   6.491   1.383   1.132  0.5444  1.3837  0.5130
   24MOL   H109 2915   6.610   1.245   1.149  0.2726  0.8005  0.0165
   24MOL   C110 2916   6.664   1.424   1.029 -0.1202 -0.6474 -0.3527
   24MOL  Cl111 2917   6.597   1.537   0.910  0.0314  0.2566 -0.1817
   24MOL  Cl112 2918   6.797   1.336   0.958 -0.2947 -0.1802  0.4185
   24MOL   C113 2919   6.724   1.522   1.128  0.2869 -0.1669 -1.0257
   24MOL   H114 2920   6.799   1.574   1.068  0.6835  0.1433 -0.2754
   24MOL   H115 2921   6.659   1.607   1.148  0.1309 -0.4948 -0.1251
   24MOL   C116 2922   6.786   1.475   1.260  0.4282  0.0770 -0.9088
   24MOL  Cl117 2923   6.667   1.400   1.367  0.5651  0.2593  0.2203
   24MOL  Cl118 2924   6.831   1.634   1.339 -0.3076 -0.1031  0.2117
   24MOL   C119 2925   6.910   1.385   1.246 -0.9787 -0.0438 -0.3002
   24MOL   H120 2926   6.887   1.284   1.215  0.3832 -0.3875 -0.2221
   24MOL   H121 2927   6.981   1.428   1.174  0.7890  1.6824  2.3793
   24MOL   H122 2928   6.966   1.373   1.339 -1.3547 -1.1124 -0.2088
   25MOL     C1 2929   3.666   2.666   6.934 -0.2200 -0.4239 -0.0015
   25MOL    Cl2 2930   3.605   2.775   7.055  0.4990 -0.1533  0.0905
   25MOL    Cl3 2931   3.530   2.622   6.827 -0.1344  0.5599 -0.1968
   25MOL     C4 2932   3.780   2.726   6.847 -0.2240 -0.5025 -0.1785
   25MOL     H5 2933   3.734   2.761   6.754  0.8890  1.2892 -0.0720
   25MOL     H6 2934   3.827   2.801   6.911  0.6446 -0.6465 -0.6434
   25MOL     H7 2935   3.699   2.574   6.981 -0.4189 -0.2145  0.5534
   25MOL     C8 2936   3.887   2.634   6.812 -0.2518 -0.3094  0.6713
   25MOL    Cl9 2937   3.827   2.491   6.730  0.0518  0.0495 -0.4134
   25MOL   Cl10 2938   3.967   2.604   6.963 -0.0567  0.3003  0.1706
   25MOL    C11 2939   3.970   2.713   6.708 -0.1837 -0.4662  0.0826
   25MOL    H12 2940   3.902   2.726   6.624 -0.6926  0.2324  0.5964
   25MOL    H13 2941   3.987   2.818   6.733  0.0815 -0.8519  1.5453
   25MOL    C14 2942   4.115   2.658   6.664 -0.0747  0.1703  0.8216
   25MOL   Cl15 2943   4.238   2.706   6.781  0.1077  0.1145 -0.1993
   25MOL   Cl16 2944   4.138   2.755   6.518 -0.2316 -0.1487 -0.1295
   25MOL    C17 2945   4.141   2.509   6.626 -0.0214 -0.9143  0.5341
   25MOL    H18 2946   4.159   2.464   6.723  0.3686 -1.5810  0.1615
   25MOL    H19 2947   4.057   2.454   6.583 -0.4986 -0.6190  1.0926
   25MOL    C20 2948   4.260   2.472   6.535  0.5617  0.0795 -0.1980
   25MOL   Cl21 2949   4.210   2.499   6.370 -0.1605  0.3282  0.3047
   25MOL   Cl22 2950   4.278   2.299   6.553  0.3584  0.0996 -0.1890
   25MOL    C23 2951   4.398   2.539   6.568 -0.3127  0.2481 -0.1963
   25MOL    H24 2952   4.394   2.645   6.545 -1.6450  0.2760  0.0981
   25MOL    H25 2953   4.390   2.537   6.676 -1.7219  1.1330 -0.2680
   25MOL    C26 2954   4.535   2.491   6.518 -0.0514 -0.4073  0.3840
   25MOL   Cl27 2955   4.568   2.334   6.598  0.2134  0.1335  0.2268
   25MOL   Cl28 2956   4.645   2.613   6.582  0.1331  0.3754 -0.3234
   25MOL    C29 2957   4.530   2.469   6.355  0.0895 -0.4205  0.2727
   25MOL    H30 2958   4.454   2.394   6.330 -1.0236  1.5027 -2.3882
   25MOL    H31 2959   4.491   2.564   6.319  2.5754  0.2868 -0.6721
   25MOL    C32 2960   4.658   2.432   6.272 -0.3692  0.0890 -0.2358
   25MOL   Cl33 2961   4.712   2.264   6.306 -0.1423  0.5170 -0.0642
   25MOL   Cl34 2962   4.795   2.536   6.330 -0.1302 -0.0173 -0.3821
   25MOL    C35 2963   4.645   2.449   6.116 -0.0389  0.2081  0.1176
   25MOL    H36 2964   4.681   2.550   6.098 -0.5930 -0.0907 -2.9401
   25MOL    H37 2965   4.723   2.392   6.066 -1.2839 -0.4380 -1.1187
   25MOL    C38 2966   4.516   2.409   6.051 -0.2708  0.1085  0.6466
   25MOL   Cl39 2967   4.377   2.530   6.077 -0.0828  0.0449 -0.2180
   25MOL   Cl40 2968   4.459   2.251   6.104  0.3854  0.0868  0.4905
   25MOL    C41 2969   4.530   2.389   5.896  0.5360 -0.3450 -0.2769
   25MOL    H42 2970   4.599   2.306   5.882  1.4611  0.1684  1.0893
   25MOL    H43 2971   4.431   2.352   5.870 -0.6332  1.0985  1.8970
   25MOL    C44 2972   4.582   2.502   5.799  0.7582 -0.3716 -0.2425
   25MOL   Cl45 2973   4.753   2.545   5.838  0.0543 -0.3036  0.0823
   25MOL   Cl46 2974   4.486   2.649   5.821 -0.0209 -0.3921  0.1703
   25MOL    C47 2975   4.567   2.469   5.647  0.3948  0.1932 -0.1575
   25MOL    H48 2976   4.463   2.486   5.620  0.2021  1.4610  1.3219
   25MOL    H49 2977   4.625   2.552   5.608  0.6136 -1.0634 -2.6009
   25MOL    C50 2978   4.619   2.337   5.583 -0.1668 -0.6404  0.1820
   25MOL   Cl51 2979   4.509   2.218   5.634  0.0784 -0.2449 -0.0641
   25MOL   Cl52 2980   4.787   2.301   5.638  0.2396 -0.4816  0.0451
   25MOL    C53 2981   4.612   2.360   5.429  0.2442 -0.0227  0.7006
   25MOL    H54 2982   4.510   2.379   5.398  0.7643  1.2544 -0.2902
   25MOL    H55 2983   4.668   2.453   5.415 -1.9588  0.9743 -1.7649
   25MOL    C56 2984   4.678   2.261   5.332 -0.9059 -0.4844  0.7041
   25MOL   Cl57 2985   4.855   2.281   5.328 -0.1641  0.5004 -0.3094
   25MOL   Cl58 2986   4.634   2.317   5.170  0.0172 -0.1876  0.0335
   25MOL    C59 2987   4.648   2.109   5.362 -0.6030  0.3076  0.1546
   25MOL    H60 2988   4.705   2.083   5.451 -1.5787 -0.4127  0.5676
   25MOL    H61 2989   4.543   2.094   5.388 -1.2567  0.4954 -2.2489
   25MOL    C62 2990   4.683   1.990   5.266  1.0814 -0.4346 -0.3004
   25MOL   Cl63 2991   4.623   1.836   5.341 -0.3507 -0.0279 -0.0096
   25MOL   Cl64 2992   4.859   1.972   5.240  0.3320  0.3257  0.4147
   25MOL    C65 2993   4.607   2.005   5.132 -0.0705 -0.5026  0.7922
   25MOL    H66 2994   4.512   2.055   5.146  1.4845  2.8399  0.1482
   25MOL    H67 2995   4.662   2.078   5.071  0.2642 -0.9055  0.6106
   25MOL    C68 2996   4.578   1.884   5.037  0.0598 -0.3239  0.0330
   25MOL   Cl69 2997   4.431   1.804   5.104 -0.2164  0.0928 -0.1221
   25MOL   Cl70 2998   4.713   1.765   5.021 -0.0324 -0.2633 -0.1222
   25MOL    C71 2999   4.540   1.922   4.886  0.1339 -0.1816 -0.9571
   25MOL    H72 3000   4.517   1.826   4.839 -3.6778 -0.2363  0.8189
   25MOL    H73 3001   4.442   1.970   4.880 -0.1506 -0.1572  2.7140
   25MOL    C74 3002   4.646   1.994   4.791  0.1566 -0.9384 -0.3532
   25MOL   Cl75 3003   4.808   2.009   4.870  0.1755  0.3684 -0.1056
   25MOL   Cl76 3004   4.584   2.163   4.783 -0.3362  0.7547 -0.3338
   25MOL    C77 3005   4.650   1.957   4.642  0.0153 -0.7038 -0.1125
   25MOL    H78 3006   4.547   1.936   4.614  0.4690  0.1729 -2.5855
   25MOL    H79 3007   4.684   2.037   4.576  0.7641 -1.6378 -0.8732
   25MOL    C80 3008   4.735   1.836   4.589 -0.0147 -0.2867 -0.0875
   25MOL   Cl81 3009   4.696   1.693   4.676 -0.2455  0.0376  0.1748
   25MOL   Cl82 3010   4.914   1.866   4.613  0.1463  0.0971 -0.1560
   25MOL    C83 3011   4.720   1.820   4.437 -0.7461  0.2015  0.0640
   25MOL    H84 3012   4.780   1.896   4.387  0.0750  0.1009  0.8874
   25MOL    H85 3013   4.775   1.727   4.420 -0.7073  0.2136  0.1195
   25MOL    C86 3014   4.574   1.815   4.380  0.1727 -0.2951  0.6508
   25MOL   Cl87 3015   4.516   1.984   4.366  0.1014  0.0541  0.3561
   25MOL   Cl88 3016   4.460   1.724   4.479  0.2804  0.4632  0.4019
   25MOL    C89 3017   4.582   1.778   4.228 -0.0092 -0.5586  0.1136
   25MOL    H90 3018   4.477   1.757   4.206 -0.8786  1.9138  1.6634
   25MOL    H91 3019   4.620   1.852   4.159 -1.8702 -0.9597 -1.3808
   25MOL    C92 3020   4.651   1.642   4.185  0.2140  0.0412 -0.4269
   25MOL   Cl93 3021   4.593   1.519   4.297  0.2160 -0.1211  0.0920
   25MOL   Cl94 3022   4.836   1.670   4.187  0.1679 -0.2681  0.0958
   25MOL    C95 3023   4.605   1.608   4.034  0.0646  0.0219 -0.6871
   25MOL    H96 3024   4.498   1.587   4.030 -0.0751  0.2706  1.1015
   25MOL    H97 3025   4.614   1.696   3.972  1.2938  0.6651  0.3789
   25MOL    C98 3026   4.681   1.501   3.956 -0.7137 -0.5226 -0.0811
   25MOL   Cl99 3027   4.819   1.582   3.880 -0.1340 -0.2950 -0.1564
   25MOL  Cl100 3028   4.572   1.456   3.823  0.2236  0.1938  0.0546
   25MOL   C101 3029   4.710   1.364   4.030 -0.9714  0.4173  1.0360
   25MOL   H102 3030   4.747   1.391   4.129 -2.2341 -1.5060  2.0654
   25MOL   H103 3031   4.623   1.309   4.065 -1.7312 -0.0999 -1.5427
   25MOL   C104 3032   4.805   1.254   3.979  0.4383  0.8128  0.6248
   25MOL  Cl105 3033   4.802   1.120   4.101  0.1158 -0.0211 -0.0754
   25MOL  Cl106 3034   4.976   1.310   3.972  0.4256  0.0376  0.1063
   25MOL   C107 3035   4.765   1.196   3.837  0.3340  0.2491 -0.1566
   25MOL   H108 3036   4.657   1.199   3.824  0.0788  1.1321  1.9257
   25MOL   H109 3037   4.791   1.272   3.763 -0.0257 -1.3661 -1.9756
   25MOL   C110 3038   4.812   1.061   3.787  0.5378 -0.1866 -0.8575
   25MOL  Cl111 3039   4.706   0.942   3.864 -0.0556  0.1779 -0.0572
   25MOL  Cl112 3040   4.978   1.021   3.823  0.2200 -0.0442 -0.2125
   25MOL   C113 3041   4.782   1.043   3.638  0.0857  0.1486 -0.0780
   25MOL   H114 3042   4.845   0.962   3.600  0.3604  1.6480 -2.9640
   25MOL   H115 3043   4.678   1.024   3.613  0.0538  2.1299 -1.6299
   25MOL   C116 3044   4.816   1.160   3.534 -0.3434  0.5279 -0.2035
   25MOL  Cl117 3045   4.685   1.288   3.535 -0.2329 -0.1378  0.3923
   25MOL  Cl118 3046   4.807   1.088   3.375  0.1985 -0.0387 -0.0576
   25MOL   C119 3047   4.952   1.219   3.553  0.1826  0.2716  0.0385
   25MOL   H120 3048   4.957   1.285   3.639  3.4476  0.4641 -0.2352
   25MOL   H121 3049   5.012   1.133   3.583 -0.7039 -0.3130  0.1589
   25MOL   H122 3050   5.006   1.262   3.469  1.0863 -0.8057  0.0519
   26MOL     C1 3051   5.213   0.922   6.652 -0.3950  0.1581 -0.1362
   26MOL    Cl2 3052   5.364   0.846   6.660  0.2130 -0.1256  0.2877
   26MOL    Cl3 3053   5.123   0.857   6.512 -0.4243  0.0593  0.1112
   26MOL     C4 3054   5.139   0.894   6.784 -0.0551 -0.0514 -0.1086
   26MOL     H5 3055   5.101   0.792   6.792 -1.3609  0.3650 -0.8758
   26MOL     H6 3056   5.211   0.906   6.865 -2.0360  0.3104  1.6411
   26MOL     H7 3057   5.239   1.026   6.633  2.1608 -0.2855  0.7736
   26MOL     C8 3058   5.017   0.984   6.823 -0.1079 -0.1616 -0.2139
   26MOL    Cl9 3059   5.077   1.153   6.843 -0.2011 -0.2248 -0.0422
   26MOL   Cl10 3060   4.981   0.940   6.990 -0.0681  0.2278  0.1037
   26MOL    C11 3061   4.892   0.968   6.735 -0.2330  0.5324  0.0712
   26MOL    H12 3062   4.908   1.032   6.648  0.2152  1.1276  0.5844
   26MOL    H13 3063   4.880   0.864   6.705  0.1374  0.3993  0.3752
   26MOL    C14 3064   4.746   1.008   6.780 -0.2115  0.0515 -0.2573
   26MOL   Cl15 3065   4.757   1.170   6.860 -0.0784  0.0920 -0.1948
   26MOL   Cl16 3066   4.690   0.890   6.909  0.1009  0.2588 -0.3049
   26MOL    C17 3067   4.642   1.024   6.666  0.3786  0.4348 -0.5816
   26MOL    H18 3068   4.543   1.058   6.696 -1.8002 -5.3483 -0.6639
   26MOL    H19 3069   4.692   1.110   6.620  1.3173 -0.5849 -1.5098
   26MOL    C20 3070   4.621   0.916   6.547  0.1489 -0.0961 -0.2861
   26MOL   Cl21 3071   4.776   0.899   6.468 -0.0425 -0.1099 -0.5014
   26MOL   Cl22 3072   4.524   1.000   6.425 -0.4678  0.0876  0.1555
   26MOL    C23 3073   4.577   0.775   6.582  0.2732  0.4636  0.6422
   26MOL    H24 3074   4.585   0.723   6.486  0.2769  1.0598  0.3199
   26MOL    H25 3075   4.656   0.731   6.642  0.2500 -2.7885 -1.5895
   26MOL    C26 3076   4.436   0.744   6.637  0.0097 -0.5553  0.1515
   26MOL   Cl27 3077   4.315   0.801   6.522  0.2457  0.0736 -0.0473
   26MOL   Cl28 3078   4.401   0.834   6.791  0.2126  0.0196 -0.1690
   26MOL    C29 3079   4.403   0.589   6.664 -0.0167 -0.3823 -0.3676
   26MOL    H30 3080   4.313   0.599   6.725  1.6510  3.2434  1.6600
   26MOL    H31 3081   4.385   0.553   6.563  2.8152  0.2233 -1.1187
   26MOL    C32 3082   4.498   0.496   6.742 -1.2182 -0.1039  0.3598
   26MOL   Cl33 3083   4.540   0.566   6.901  0.1481 -0.3245  0.2844
   26MOL   Cl34 3084   4.652   0.461   6.653 -0.0985  0.2877 -0.2590
   26MOL    C35 3085   4.417   0.360   6.775 -0.4492 -0.0280 -0.3775
   26MOL    H36 3086   4.316   0.389   6.803 -0.2687 -1.6669  2.1482
   26MOL    H37 3087   4.420   0.310   6.678 -1.1437  0.5324 -0.6894
   26MOL    C38 3088   4.459   0.241   6.874 -0.6945  0.3845 -0.9078
   26MOL   Cl39 3089   4.372   0.091   6.829 -0.0491  0.2106 -0.2822
   26MOL   Cl40 3090   4.404   0.285   7.038  0.0414 -0.1045 -0.5767
   26MOL    C41 3091   4.620   0.222   6.882 -0.5260  0.4006  0.7863
   26MOL    H42 3092   4.653   0.193   6.782  0.1940 -0.3839  1.2536
   26MOL    H43 3093   4.649   0.326   6.895 -1.6614  0.6937  1.0862
   26MOL    C44 3094   4.702   0.133   6.980  0.6903 -0.1628  0.4230
   26MOL   Cl45 3095   4.660   9.145   6.962 -0.5703 -0.3733  0.3082
   26MOL   Cl46 3096   4.667   0.183   7.149 -0.1731  0.0787 -0.8284
   26MOL    C47 3097   4.857   0.150   6.975 -0.1257 -0.3047 -0.3425
   26MOL    H48 3098   4.892   0.244   7.017 -1.4607  0.4252 -0.8425
   26MOL    H49 3099   4.892   0.074   7.046 -0.1819  0.2506  0.2863
   26MOL    C50 3100   4.941   0.132   6.845 -0.4585  0.1393 -0.4097
   26MOL   Cl51 3101   4.885   0.261   6.728 -0.1135  0.3040 -0.2272
   26MOL   Cl52 3102   4.897   9.151   6.776  0.0235  0.2681  0.2524
   26MOL    C53 3103   5.094   0.140   6.853 -0.4908  0.4698  0.2361
   26MOL    H54 3104   5.132   0.040   6.878  1.1101  0.2649 -2.7925
   26MOL    H55 3105   5.124   0.145   6.748 -1.2931 -0.6731 -0.0662
   26MOL    C56 3106   5.164   0.253   6.936  0.1129 -0.0588  0.3472
   26MOL   Cl57 3107   5.119   0.212   7.103 -0.2541 -0.2668  0.0092
   26MOL   Cl58 3108   5.101   0.421   6.902 -0.2954 -0.2476 -0.0630
   26MOL    C59 3109   5.318   0.254   6.928 -0.0974 -0.2969  0.1511
   26MOL    H60 3110   5.352   0.333   6.995 -0.8580  0.6025 -0.5140
   26MOL    H61 3111   5.343   0.159   6.977 -0.7657 -1.9250 -2.5653
   26MOL    C62 3112   5.398   0.263   6.796  0.1882 -0.2036  0.4187
   26MOL   Cl63 3113   5.418   0.104   6.720  0.0759 -0.0864 -0.2640
   26MOL   Cl64 3114   5.563   0.302   6.847 -0.0021  0.5723 -0.0155
   26MOL    C65 3115   5.330   0.361   6.692  0.2495  0.0765  0.1171
   26MOL    H66 3116   5.235   0.323   6.654  0.2636  0.0654  0.0938
   26MOL    H67 3117   5.302   0.456   6.737 -0.9166 -0.3786  0.3860
   26MOL    C68 3118   5.409   0.411   6.569 -0.2960 -0.5685  0.5264
   26MOL   Cl69 3119   5.507   0.286   6.480  0.0743  0.1292 -0.2529
   26MOL   Cl70 3120   5.536   0.527   6.615  0.3506 -0.2929  0.0156
   26MOL    C71 3121   5.342   0.495   6.460  0.0132  0.3480 -0.2344
   26MOL    H72 3122   5.316   0.592   6.501 -0.9560 -0.7382  1.7842
   26MOL    H73 3123   5.417   0.510   6.381 -0.1162 -0.6152 -0.5459
   26MOL    C74 3124   5.204   0.456   6.396 -0.1844  0.0515  0.7615
   26MOL   Cl75 3125   5.074   0.488   6.517  0.3188  0.0232  0.1247
   26MOL   Cl76 3126   5.212   0.284   6.359  0.3405 -0.2903  0.4433
   26MOL    C77 3127   5.173   0.538   6.263  0.1864  0.3925  0.3549
   26MOL    H78 3128   5.166   0.643   6.290 -1.5411  0.5995 -0.8440
   26MOL    H79 3129   5.263   0.540   6.201 -0.0481 -0.0071  0.0020
   26MOL    C80 3130   5.047   0.519   6.173  0.5049 -0.1588  0.4026
   26MOL   Cl81 3131   4.897   0.547   6.269  0.0652  0.2612 -0.0873
   26MOL   Cl82 3132   5.038   0.350   6.110 -0.2992 -0.4272  0.2340
   26MOL    C83 3133   5.052   0.613   6.052  0.3139 -0.6863  0.4131
   26MOL    H84 3134   5.109   0.701   6.081 -0.2341 -1.4441  4.1233
   26MOL    H85 3135   5.123   0.564   5.986 -0.8893 -0.0184 -1.4153
   26MOL    C86 3136   4.925   0.647   5.962 -0.1445  0.2856  0.3208
   26MOL   Cl87 3137   4.996   0.716   5.814  0.3562 -0.1192 -0.2009
   26MOL   Cl88 3138   4.837   0.771   6.057  0.1168 -0.1402 -0.0571
   26MOL    C89 3139   4.837   0.522   5.920  0.6574  0.1231 -1.0201
   26MOL    H90 3140   4.907   0.440   5.909  2.3409  1.3370  0.2337
   26MOL    H91 3141   4.766   0.507   6.001  1.9738 -0.1995  0.0975
   26MOL    C92 3142   4.746   0.523   5.793 -0.4481  0.5135 -0.2138
   26MOL   Cl93 3143   4.834   0.495   5.642  0.1551  0.4209 -0.6202
   26MOL   Cl94 3144   4.668   0.679   5.786 -0.2873  0.0266 -0.2291
   26MOL    C95 3145   4.633   0.409   5.792 -0.3978  0.2195  0.6060
   26MOL    H96 3146   4.543   0.451   5.838  1.0791  2.6319  1.4393
   26MOL    H97 3147   4.598   0.398   5.690 -0.6377 -0.9663  0.8162
   26MOL    C98 3148   4.663   0.267   5.847 -0.4969  0.0577 -0.0381
   26MOL   Cl99 3149   4.667   0.279   6.020  0.0750 -0.5842 -0.4486
   26MOL  Cl100 3150   4.826   0.210   5.797 -0.2725 -0.2317  0.1920
   26MOL   C101 3151   4.547   0.159   5.810 -0.1170 -0.4550 -0.3612
   26MOL   H102 3152   4.557   0.128   5.706 -0.0229 -2.0049  0.0915
   26MOL   H103 3153   4.577   0.074   5.872  0.5446 -0.2164 -0.3455
   26MOL   C104 3154   4.385   0.174   5.816 -0.1469  0.0682 -1.1074
   26MOL  Cl105 3155   4.338   0.261   5.674 -0.0036 -0.0134  0.0381
   26MOL  Cl106 3156   4.342   0.265   5.960  0.4862 -0.1244 -0.1985
   26MOL   C107 3157   4.299   0.041   5.817 -0.9096  0.1048  0.4319
   26MOL   H108 3158   4.209   0.077   5.866 -0.1120  1.1190  1.1878
   26MOL   H109 3159   4.273   0.024   5.713 -2.3958 -0.7147  0.9299
   26MOL   C110 3160   4.342   9.084   5.874 -0.1723 -0.1093  0.2172
   26MOL  Cl111 3161   4.389   9.136   6.040 -0.4258  0.2433  0.0369
   26MOL  Cl112 3162   4.487   9.029   5.784  0.0876  0.0764 -0.2489
   26MOL   C113 3163   4.228   8.981   5.890 -0.0871  0.6299 -0.4938
   26MOL   H114 3164   4.265   8.905   5.959 -1.0615  1.3218  0.8305
   26MOL   H115 3165   4.156   9.014   5.965 -0.5118  2.4337 -1.6651
   26MOL   C116 3166   4.152   8.917   5.775 -0.1773 -0.2860 -0.0082
   26MOL  Cl117 3167   4.257   8.801   5.691 -0.3368 -0.3600 -0.2598
   26MOL  Cl118 3168   4.095   9.042   5.665  0.2221  0.0443  0.4877
   26MOL   C119 3169   4.030   8.846   5.818  0.5608  0.0776 -0.0433
   26MOL   H120 3170   4.055   8.759   5.879 -1.7817 -0.7893 -0.2650
   26MOL   H121 3171   3.965   8.913   5.875 -1.0586  0.1711 -1.9487
   26MOL   H122 3172   3.973   8.803   5.737  0.0986  0.6805 -0.0454
   27MOL     C1 3173   4.575   8.293   2.966 -0.8680 -0.1656 -0.1125
   27MOL    Cl2 3174   4.536   8.207   3.121 -0.2260 -0.1574  0.3483
   27MOL    Cl3 3175   4.747   8.322   2.952  0.1601  0.0505 -0.3605
   27MOL     C4 3176   4.512   8.233   2.837  0.0696 -0.0014 -0.1625
   27MOL     H5 3177   4.568   8.142   2.817  1.3255  0.3782  1.5634
   27MOL     H6 3178   4.409   8.208   2.861 -1.0562  1.3906 -3.2679
   27MOL     H7 3179   4.533   8.394   2.966  1.2806  0.7559  0.0774
   27MOL     C8 3180   4.505   8.317   2.708  0.1473 -0.3409  0.3915
   27MOL    Cl9 3181   4.669   8.326   2.635 -0.7086 -0.0948 -0.0676
   27MOL   Cl10 3182   4.437   8.477   2.738  0.1909 -0.3099 -0.1792
   27MOL    C11 3183   4.412   8.242   2.601 -0.4228 -0.2086  0.4943
   27MOL    H12 3184   4.303   8.250   2.601 -0.6051 -2.4337  0.9748
   27MOL    H13 3185   4.431   8.289   2.504 -1.2968 -1.2202 -0.1666
   27MOL    C14 3186   4.443   8.092   2.566  0.6844 -0.1057  0.8934
   27MOL   Cl15 3187   4.369   8.077   2.404  0.1911  0.4382 -0.5198
   27MOL   Cl16 3188   4.353   7.991   2.673  0.4975 -0.0741 -0.1691
   27MOL    C17 3189   4.592   8.037   2.558 -0.0008  0.4490 -0.4056
   27MOL    H18 3190   4.655   8.112   2.510  0.5451  1.4551  1.8444
   27MOL    H19 3191   4.631   8.020   2.658 -0.9581  2.1690  0.2673
   27MOL    C20 3192   4.621   7.896   2.494  0.0165  0.5840  0.3418
   27MOL   Cl21 3193   4.597   7.891   2.322 -0.2549 -0.0080 -0.1134
   27MOL   Cl22 3194   4.524   7.774   2.566  0.1197 -0.0580 -0.0858
   27MOL    C23 3195   4.765   7.848   2.513  0.2156  0.4258 -0.4261
   27MOL    H24 3196   4.772   7.801   2.612 -0.5356 -2.2243 -1.5957
   27MOL    H25 3197   4.775   7.760   2.449 -0.5601  0.3776 -0.4838
   27MOL    C26 3198   4.891   7.938   2.484  0.7730  0.1177 -0.6885
   27MOL   Cl27 3199   5.010   7.813   2.482 -0.1049 -0.1958 -0.3374
   27MOL   Cl28 3200   4.911   8.047   2.620 -0.1067  0.0448  0.1749
   27MOL    C29 3201   4.886   8.003   2.342 -0.7181  0.7372 -0.0462
   27MOL    H30 3202   4.853   7.936   2.263  0.5436 -0.3556  0.3329
   27MOL    H31 3203   4.801   8.070   2.351 -0.5538  0.8747  0.4942
   27MOL    C32 3204   5.001   8.102   2.289 -0.2852 -0.5908  0.4710
   27MOL   Cl33 3205   4.925   8.154   2.125  0.2671  0.0185  0.2064
   27MOL   Cl34 3206   5.149   8.013   2.264  0.0331  0.0399  0.1381
   27MOL    C35 3207   5.028   8.230   2.389 -0.1117 -0.1458  0.1480
   27MOL    H36 3208   4.937   8.259   2.441 -1.2498  0.0987 -1.9367
   27MOL    H37 3209   5.093   8.187   2.466 -2.1699  0.4745  2.3020
   27MOL    C38 3210   5.087   8.362   2.330 -0.0984 -0.2024  0.6996
   27MOL   Cl39 3211   5.153   8.443   2.471  0.0888  0.0183 -0.5307
   27MOL   Cl40 3212   4.954   8.448   2.251 -0.1170 -0.1337  0.2669
   27MOL    C41 3213   5.203   8.333   2.238  0.2127  0.4005 -0.6080
   27MOL    H42 3214   5.275   8.291   2.307 -3.3719 -0.9865  2.4555
   27MOL    H43 3215   5.173   8.254   2.170 -0.1763 -0.0814  0.1218
   27MOL    C44 3216   5.263   8.440   2.142  0.4204  0.2739 -0.6862
   27MOL   Cl45 3217   5.191   8.429   1.976  0.2196  0.2460 -0.3963
   27MOL   Cl46 3218   5.428   8.376   2.110  0.0989 -0.4610 -0.0944
   27MOL    C47 3219   5.285   8.582   2.210  0.4252 -0.2920  0.9343
   27MOL    H48 3220   5.193   8.607   2.262  0.2013 -0.0003  0.4027
   27MOL    H49 3221   5.355   8.558   2.290  0.8296 -4.0241 -0.4008
   27MOL    C50 3222   5.332   8.712   2.138 -0.5000  0.1823 -0.6159
   27MOL   Cl51 3223   5.347   8.829   2.281  0.2670 -0.1478  0.0573
   27MOL   Cl52 3224   5.203   8.764   2.032 -0.0919 -0.2067 -0.1820
   27MOL    C53 3225   5.461   8.690   2.040  0.3014  0.1078  0.1572
   27MOL    H54 3226   5.531   8.653   2.115  1.4305 -0.7925 -1.3064
   27MOL    H55 3227   5.432   8.603   1.981  1.3621 -0.6870  0.7942
   27MOL    C56 3228   5.526   8.791   1.943  0.2355  0.7338 -0.0311
   27MOL   Cl57 3229   5.523   8.953   2.018 -0.1073  0.4240 -0.2346
   27MOL   Cl58 3230   5.445   8.814   1.792  0.4190  0.2105  0.2835
   27MOL    C59 3231   5.672   8.759   1.900  0.6939  0.1395  0.1830
   27MOL    H60 3232   5.689   8.817   1.809 -0.0141  1.3056  0.7646
   27MOL    H61 3233   5.735   8.806   1.976 -1.0130  0.6580  1.3271
   27MOL    C62 3234   5.720   8.620   1.883  0.2031  0.7641 -0.6008
   27MOL   Cl63 3235   5.598   8.507   1.812 -0.2760 -0.0707  0.3844
   27MOL   Cl64 3236   5.756   8.563   2.049  0.1676 -0.3336  0.0081
   27MOL    C65 3237   5.851   8.610   1.796  0.3391 -0.4485  0.3065
   27MOL    H66 3238   5.815   8.606   1.693  2.2041  0.2577 -0.3947
   27MOL    H67 3239   5.903   8.706   1.796 -1.0496  0.3290 -1.9951
   27MOL    C68 3240   5.953   8.499   1.809 -0.8493  0.0572  0.0390
   27MOL   Cl69 3241   6.055   8.518   1.957  0.1500  0.4192  0.4280
   27MOL   Cl70 3242   6.060   8.522   1.663  0.0756 -0.0638  0.0660
   27MOL    C71 3243   5.889   8.356   1.805  0.3931  0.5316 -0.4201
   27MOL    H72 3244   5.790   8.349   1.850  1.1198 -1.6311  0.8943
   27MOL    H73 3245   5.857   8.333   1.703 -3.2836  2.0190  0.3440
   27MOL    C74 3246   5.957   8.232   1.855  0.1355 -0.2884 -0.3788
   27MOL   Cl75 3247   5.864   8.094   1.791  0.0215 -0.4982  0.1959
   27MOL   Cl76 3248   5.948   8.217   2.032 -0.0782  0.4354  0.4359
   27MOL    C77 3249   6.103   8.230   1.802 -0.7538  0.1848 -0.1765
   27MOL    H78 3250   6.084   8.243   1.695 -4.4764  0.1588  0.4096
   27MOL    H79 3251   6.151   8.317   1.846 -0.4424 -0.1585  0.1657
   27MOL    C80 3252   6.205   8.113   1.815  0.5441 -0.5625 -0.8771
   27MOL   Cl81 3253   6.354   8.157   1.737 -0.3847  0.1934 -0.2464
   27MOL   Cl82 3254   6.143   7.971   1.720  0.3188  0.1532  0.2177
   27MOL    C83 3255   6.223   8.078   1.957  0.8300  0.1122 -0.0259
   27MOL    H84 3256   6.223   8.173   2.010 -0.1454  0.2594 -0.2813
   27MOL    H85 3257   6.127   8.036   1.987 -0.1215  2.9530  1.0481
   27MOL    C86 3258   6.324   7.978   2.026  0.5249  0.6771  0.9020
   27MOL   Cl87 3259   6.266   7.956   2.196 -0.0330 -0.1890 -0.1095
   27MOL   Cl88 3260   6.479   8.074   2.031  0.3266  0.2436  0.0655
   27MOL    C89 3261   6.337   7.836   1.967  0.2801 -0.5179  0.8797
   27MOL    H90 3262   6.239   7.790   1.956 -1.0257  2.3630 -0.0206
   27MOL    H91 3263   6.361   7.855   1.863  2.1869  0.2257  1.4315
   27MOL    C92 3264   6.427   7.727   2.025  0.8652  0.1017 -0.1563
   27MOL   Cl93 3265   6.459   7.618   1.894 -0.2976 -0.1544  0.0401
   27MOL   Cl94 3266   6.331   7.648   2.152 -0.3663 -0.4509 -0.5631
   27MOL    C95 3267   6.565   7.774   2.072  0.0243  0.2805 -0.0753
   27MOL    H96 3268   6.615   7.844   2.005 -0.1554 -1.9421 -2.6122
   27MOL    H97 3269   6.542   7.833   2.161  1.4042 -1.7400  1.7026
   27MOL    C98 3270   6.679   7.674   2.115 -0.4698 -0.3313  0.0790
   27MOL   Cl99 3271   6.792   7.782   2.218 -0.1416  0.2015  0.4426
   27MOL  Cl100 3272   6.767   7.611   1.969 -0.1163 -0.1937 -0.3036
   27MOL   C101 3273   6.630   7.557   2.208  0.1890 -0.6426  0.4692
   27MOL   H102 3274   6.558   7.596   2.280  0.7677 -0.1376  0.7844
   27MOL   H103 3275   6.567   7.503   2.137  1.1905  1.3702 -2.0618
   27MOL   C104 3276   6.732   7.460   2.281 -0.0484  0.1725 -0.7047
   27MOL  Cl105 3277   6.621   7.344   2.347  0.4391  0.0602 -0.1326
   27MOL  Cl106 3278   6.806   7.540   2.415  0.0403 -0.2693 -0.7033
   27MOL   C107 3279   6.850   7.410   2.187 -0.8152  0.6300  0.4718
   27MOL   H108 3280   6.817   7.387   2.086 -0.3731  3.2168 -0.2972
   27MOL   H109 3281   6.921   7.490   2.169 -0.5076  0.0226 -1.0415
   27MOL   C110 3282   6.938   7.282   2.221  0.7455  0.8626 -0.1923
   27MOL  Cl111 3283   6.821   7.146   2.201 -0.6979 -0.0125  0.5116
   27MOL  Cl112 3284   7.003   7.305   2.383  0.2431  0.4236  0.2717
   27MOL   C113 3285   7.060   7.262   2.118  0.3953 -0.6394  0.5070
   27MOL   H114 3286   7.011   7.241   2.023  0.3695 -0.1896  0.4196
   27MOL   H115 3287   7.099   7.363   2.101 -0.8973 -0.3724 -0.9262
   27MOL   C116 3288   7.177   7.170   2.150  0.1623  0.2904 -0.3828
   27MOL  Cl117 3289   7.297   7.164   2.014 -0.6864 -0.1654  0.4748
   27MOL  Cl118 3290   7.123   6.994   2.155  0.0110  0.0498 -0.3118
   27MOL   C119 3291   7.260   7.202   2.278 -0.4057  0.5453  0.4229
   27MOL   H120 3292   7.365   7.177   2.262 -0.9883 -1.0532 -1.0445
   27MOL   H121 3293   7.262   7.308   2.305 -0.5986  0.3858  1.0723
   27MOL   H122 3294   7.223   7.145   2.363 -0.1254 -0.8493 -0.3832
   28MOL     C1 3295   6.234   1.258   4.624 -0.3795 -1.1763 -0.2816
   28MOL    Cl2 3296   6.111   1.133   4.623  0.1968  0.3066 -0.1725
   28MOL    Cl3 3297   6.167   1.409   4.550  0.0812 -0.2502 -0.2483
   28MOL     C4 3298   6.277   1.298   4.777  0.5046  0.3347  0.9410
   28MOL     H5 3299   6.191   1.352   4.819  0.8144  0.7829  1.0014
   28MOL     H6 3300   6.284   1.204   4.830  1.6964 -0.1259 -0.0046
   28MOL     H7 3301   6.317   1.227   4.561  0.3646  2.5683 -1.2836
   28MOL     C8 3302   6.402   1.389   4.804 -0.2438 -0.2416 -0.0826
   28MOL    Cl9 3303   6.392   1.539   4.711  0.1141  0.3023  0.1561
   28MOL   Cl10 3304   6.553   1.305   4.754 -0.2257 -0.1472 -0.0679
   28MOL    C11 3305   6.399   1.426   4.952  0.4580  0.2595  0.2712
   28MOL    H12 3306   6.292   1.428   4.973  0.3640 -0.3397 -0.1467
   28MOL    H13 3307   6.445   1.341   5.003  2.2836  0.7623 -0.5043
   28MOL    C14 3308   6.476   1.543   5.011  0.5926  0.3420 -0.6221
   28MOL   Cl15 3309   6.482   1.509   5.188 -0.0593  0.2813  0.2311
   28MOL   Cl16 3310   6.388   1.691   5.000 -0.5280  0.2433 -0.1349
   28MOL    C17 3311   6.621   1.555   4.947 -0.0389  0.0237  0.1645
   28MOL    H18 3312   6.657   1.452   4.951  2.0664  0.7374  0.4387
   28MOL    H19 3313   6.616   1.585   4.843  0.0111  0.3195  0.2478
   28MOL    C20 3314   6.738   1.643   5.003 -0.0011 -0.1528  0.2660
   28MOL   Cl21 3315   6.677   1.805   5.041  0.0546  0.0685 -0.2765
   28MOL   Cl22 3316   6.854   1.670   4.873 -0.3592  0.1604 -0.6727
   28MOL    C23 3317   6.801   1.587   5.139 -0.1301 -0.7416  0.4771
   28MOL    H24 3318   6.871   1.668   5.160  2.1666 -1.6962 -3.0199
   28MOL    H25 3319   6.724   1.586   5.216  1.2927  0.6470  1.9398
   28MOL    C26 3320   6.878   1.449   5.146 -0.5121 -0.9360  0.0966
   28MOL   Cl27 3321   6.764   1.312   5.136 -0.1170 -0.1453  0.0988
   28MOL   Cl28 3322   6.946   1.436   5.312  0.3670 -0.1582  0.0840
   28MOL    C29 3323   6.988   1.428   5.036  0.4400 -0.4895  0.2878
   28MOL    H30 3324   6.932   1.423   4.943 -2.6892  0.6386  1.9994
   28MOL    H31 3325   7.046   1.518   5.019 -0.3057 -0.0880 -0.1785
   28MOL    C32 3326   7.090   1.315   5.035 -1.0789 -0.6412 -0.1007
   28MOL   Cl33 3327   7.010   1.159   5.020  0.2150  0.4386 -0.1838
   28MOL   Cl34 3328   7.192   1.308   5.187 -0.3252 -0.2687 -0.2806
   28MOL    C35 3329   7.198   1.326   4.913 -0.7195  0.5440  0.4064
   28MOL    H36 3330   7.143   1.309   4.821  1.1035  1.0473 -0.8076
   28MOL    H37 3331   7.249   1.423   4.919  0.6785 -0.1534  0.0314
   28MOL    C38 3332   7.328   1.234   4.897 -0.7878  0.0757  0.4164
   28MOL   Cl39 3333   7.447   1.298   5.014 -0.3514 -0.0865  0.0470
   28MOL   Cl40 3334   7.400   1.267   4.735 -0.5179  0.0590  0.0783
   28MOL    C41 3335   7.310   1.081   4.932  0.6870 -0.1486  0.0930
   28MOL    H42 3336   7.278   1.077   5.036  0.9908  4.5469  0.4781
   28MOL    H43 3337   7.224   1.038   4.880  1.0749 -0.2515 -0.4695
   28MOL    C44 3338   7.426   0.974   4.892  0.6230 -0.5004  1.3744
   28MOL   Cl45 3339   7.585   1.033   4.917 -0.3941  0.3209 -0.1416
   28MOL   Cl46 3340   7.413   0.931   4.717  0.1276 -0.0807 -0.3111
   28MOL    C47 3341   7.423   0.848   4.971 -0.3011  0.0514 -0.0466
   28MOL    H48 3342   7.491   0.784   4.915  0.5159 -0.5740  1.6447
   28MOL    H49 3343   7.466   0.876   5.067 -1.5630 -0.9532  0.8354
   28MOL    C50 3344   7.297   0.754   4.997 -0.1866 -0.3179  0.2181
   28MOL   Cl51 3345   7.213   0.703   4.846 -0.0626  0.0102 -0.1317
   28MOL   Cl52 3346   7.172   0.837   5.087  0.3996  0.2639  0.2111
   28MOL    C53 3347   7.337   0.634   5.086  0.0642  0.4656 -0.5477
   28MOL    H54 3348   7.237   0.601   5.115  0.9223 -1.3806  0.3824
   28MOL    H55 3349   7.371   0.559   5.014 -0.3393 -0.1555 -0.0933
   28MOL    C56 3350   7.439   0.648   5.211 -0.2597  0.8179 -0.4384
   28MOL   Cl57 3351   7.401   0.780   5.322  0.1739 -0.1088 -0.4292
   28MOL   Cl58 3352   7.596   0.673   5.131 -0.1037 -0.0779 -0.1810
   28MOL    C59 3353   7.472   0.517   5.285  0.1838  0.4487  0.0687
   28MOL    H60 3354   7.526   0.454   5.214  2.2799  0.7960  1.3383
   28MOL    H61 3355   7.551   0.549   5.352  1.1388  1.2345 -1.4005
   28MOL    C62 3356   7.371   0.443   5.375 -0.6074  0.1292  0.4632
   28MOL   Cl63 3357   7.233   0.399   5.282 -0.0058 -0.1798 -0.0806
   28MOL   Cl64 3358   7.314   0.539   5.502 -0.0549  0.1868 -0.5005
   28MOL    C65 3359   7.441   0.310   5.429 -0.4862 -0.0722 -0.0007
   28MOL    H66 3360   7.446   0.240   5.346  0.5429 -0.1342  0.1156
   28MOL    H67 3361   7.544   0.325   5.461 -0.4002 -0.6950  0.0266
   28MOL    C68 3362   7.368   0.237   5.550  0.7597  0.1197 -0.5292
   28MOL   Cl69 3363   7.398   0.315   5.710  0.3396  0.0912  0.6463
   28MOL   Cl70 3364   7.451   0.076   5.548  0.3557 -0.0969 -0.1845
   28MOL    C71 3365   7.215   0.220   5.527 -0.6288 -0.0108  0.3735
   28MOL    H72 3366   7.171   0.320   5.527  0.0586  0.2985 -0.8766
   28MOL    H73 3367   7.202   0.182   5.426  2.5476  0.6716 -0.3261
   28MOL    C74 3368   7.122   0.154   5.629 -0.4749  0.4052 -0.6580
   28MOL   Cl75 3369   7.176   9.178   5.677  0.2874  0.3759 -0.1713
   28MOL   Cl76 3370   6.979   0.114   5.533 -0.3043  0.4021 -0.1971
   28MOL    C77 3371   7.077   0.229   5.755  0.1001 -0.7610 -0.5717
   28MOL    H78 3372   7.031   0.153   5.818  1.4534 -0.3710  0.9168
   28MOL    H79 3373   7.173   0.235   5.804 -1.2260 -0.9392  2.1192
   28MOL    C80 3374   6.979   0.343   5.768  0.2505  0.3772  0.4775
   28MOL   Cl81 3375   7.037   0.478   5.675 -0.3372 -0.0091  0.5989
   28MOL   Cl82 3376   6.976   0.390   5.935  0.2371  0.1933 -0.0142
   28MOL    C83 3377   6.836   0.313   5.723  0.0542  0.1507  0.1005
   28MOL    H84 3378   6.840   0.326   5.615  0.9891  0.4126  0.1612
   28MOL    H85 3379   6.815   0.207   5.737 -3.8335  0.6931 -1.0109
   28MOL    C86 3380   6.711   0.395   5.774 -0.2350  0.8465 -0.5066
   28MOL   Cl87 3381   6.736   0.568   5.758  0.4231 -0.3152  0.0360
   28MOL   Cl88 3382   6.677   0.342   5.942 -0.5537 -0.2367  0.0250
   28MOL    C89 3383   6.575   0.363   5.697 -0.2489 -0.5197 -0.0679
   28MOL    H90 3384   6.501   0.405   5.766  1.4739 -1.1577  2.2422
   28MOL    H91 3385   6.575   0.434   5.615  0.5873  1.6647  1.7560
   28MOL    C92 3386   6.533   0.217   5.654 -0.5420 -0.6827 -0.1286
   28MOL   Cl93 3387   6.634   0.170   5.512 -0.2230  0.0035  0.2911
   28MOL   Cl94 3388   6.366   0.231   5.586  0.3898  0.4520 -0.1798
   28MOL    C95 3389   6.547   0.106   5.763  0.8415 -0.8477 -0.4419
   28MOL    H96 3390   6.652   0.087   5.781  1.3326  1.7186 -0.4430
   28MOL    H97 3391   6.494   0.151   5.848  0.9594  0.6831 -1.1580
   28MOL    C98 3392   6.480   9.151   5.751  0.5201  0.2200  0.3371
   28MOL   Cl99 3393   6.298   9.167   5.776 -0.0657 -0.1101  0.3047
   28MOL  Cl100 3394   6.549   9.056   5.883 -0.2203  0.2676  0.4582
   28MOL   C101 3395   6.495   9.073   5.615  0.2965  0.0573  0.6605
   28MOL   H102 3396   6.416   9.000   5.599  0.1283  0.4624 -0.4687
   28MOL   H103 3397   6.492   9.157   5.545  1.5334 -1.1045 -0.8159
   28MOL   C104 3398   6.620   8.987   5.570  0.2698 -0.0630  0.2072
   28MOL  Cl105 3399   6.628   8.837   5.670  0.0483 -0.0739  0.1527
   28MOL  Cl106 3400   6.779   9.063   5.592 -0.2996  0.1561  0.1487
   28MOL   C107 3401   6.598   8.952   5.419 -0.2000 -0.3056  0.0187
   28MOL   H108 3402   6.497   8.912   5.421  0.0509 -0.9381  2.6321
   28MOL   H109 3403   6.591   9.039   5.355 -0.5116 -0.8399 -0.6750
   28MOL   C110 3404   6.691   8.853   5.340 -0.5175  0.1447 -0.4226
   28MOL  Cl111 3405   6.726   8.696   5.411  0.2318  0.2083 -0.0582
   28MOL  Cl112 3406   6.836   8.946   5.311  0.0708 -0.1516 -0.0929
   28MOL   C113 3407   6.631   8.839   5.194  0.0231 -0.5911  0.1521
   28MOL   H114 3408   6.586   8.936   5.170  0.3398  0.0236  2.0064
   28MOL   H115 3409   6.711   8.839   5.120  0.9045  0.7331  1.0874
   28MOL   C116 3410   6.533   8.730   5.147 -0.3269 -0.2975 -0.3673
   28MOL  Cl117 3411   6.473   8.784   4.985 -0.1582 -0.2154  0.1311
   28MOL  Cl118 3412   6.383   8.720   5.243 -0.0160 -0.3240  0.0874
   28MOL   C119 3413   6.603   8.594   5.126  0.3122  0.7411  0.1042
   28MOL   H120 3414   6.534   8.536   5.065 -0.7844 -0.2269  2.2105
   28MOL   H121 3415   6.695   8.597   5.068  0.2309 -0.7220 -0.1010
   28MOL   H122 3416   6.611   8.543   5.222  0.4827  1.0188  0.2380
   29MOL     C1 3417   1.825   0.485   2.366 -0.1593  0.2454 -0.1216
   29MOL    Cl2 3418   1.679   0.525   2.273 -0.7557 -0.1369  0.2008
   29MOL    Cl3 3419   1.930   0.622   2.353 -0.3685  0.1059 -0.0093
   29MOL     C4 3420   1.795   0.461   2.512  0.3305  0.5855 -0.3519
   29MOL     H5 3421   1.766   0.549   2.569  1.0029 -0.9584  2.4549
   29MOL     H6 3422   1.696   0.416   2.513  0.1080  0.9407 -2.8001
   29MOL     H7 3423   1.875   0.397   2.324  0.5732  1.0270 -0.9210
   29MOL     C8 3424   1.885   0.366   2.594  0.6916  0.2527  0.3938
   29MOL    Cl9 3425   1.850   0.208   2.528 -0.1695  0.0084  0.1166
   29MOL   Cl10 3426   1.823   0.362   2.761 -0.0704 -0.4314 -0.1824
   29MOL    C11 3427   2.041   0.392   2.591  0.2529 -0.4744 -0.5616
   29MOL    H12 3428   2.062   0.421   2.488  1.6427 -1.6400 -0.6232
   29MOL    H13 3429   2.052   0.465   2.671 -0.0299  0.9698 -1.7983
   29MOL    C14 3430   2.140   0.283   2.628  0.1967  0.5897 -0.1088
   29MOL   Cl15 3431   2.090   0.196   2.776 -0.0833 -0.7168  0.1388
   29MOL   Cl16 3432   2.285   0.383   2.684 -0.0077  0.0265  0.0707
   29MOL    C17 3433   2.182   0.183   2.510  0.8247  0.3338  0.5263
   29MOL    H18 3434   2.097   0.163   2.445  1.4364 -2.5071  0.5680
   29MOL    H19 3435   2.255   0.237   2.449 -0.8024 -0.7426 -2.4752
   29MOL    C20 3436   2.240   0.045   2.534 -0.0038 -0.2693  0.0142
   29MOL   Cl21 3437   2.298   9.172   2.376 -0.2602  0.2460 -0.0132
   29MOL   Cl22 3438   2.108   9.110   2.582  0.2053  0.2094 -0.2462
   29MOL    C23 3439   2.360   0.043   2.643 -0.0038 -0.1515 -0.4601
   29MOL    H24 3440   2.439   0.107   2.602 -1.5479  0.7844 -2.0275
   29MOL    H25 3441   2.333   0.102   2.730  0.3268 -2.4852  1.2853
   29MOL    C26 3442   2.414   9.095   2.706  0.4136 -1.0058  0.4507
   29MOL   Cl27 3443   2.307   9.023   2.828  0.1113  0.3326  0.2440
   29MOL   Cl28 3444   2.554   9.151   2.797  0.1371 -0.1245  0.0734
   29MOL    C29 3445   2.462   8.990   2.608 -0.2801  0.5049  0.1194
   29MOL    H30 3446   2.378   8.951   2.550  2.0582 -4.0917 -0.4557
   29MOL    H31 3447   2.519   9.049   2.536 -0.4940 -0.6318 -1.0172
   29MOL    C32 3448   2.568   8.888   2.655 -0.5428 -0.8281  0.3381
   29MOL   Cl33 3449   2.540   8.808   2.817 -0.0576  0.0185  0.1063
   29MOL   Cl34 3450   2.732   8.950   2.659 -0.0121  0.1215  0.2490
   29MOL    C35 3451   2.582   8.765   2.561 -0.0953 -0.1164 -0.0332
   29MOL    H36 3452   2.647   8.791   2.478 -1.4415 -0.8673 -1.3404
   29MOL    H37 3453   2.634   8.687   2.616 -1.3384  1.0190  2.8576
   29MOL    C38 3454   2.462   8.684   2.512 -0.3507  0.8994  0.1435
   29MOL   Cl39 3455   2.412   8.739   2.357  0.0879  0.1284  0.0272
   29MOL   Cl40 3456   2.322   8.697   2.619 -0.0848 -0.2068  0.3831
   29MOL    C41 3457   2.495   8.529   2.506  0.3567  0.4514 -0.1580
   29MOL    H42 3458   2.550   8.489   2.591  2.2051  0.8280 -1.1589
   29MOL    H43 3459   2.398   8.479   2.513  0.8496 -0.8651 -2.1364
   29MOL    C44 3460   2.574   8.469   2.388  0.4805 -0.0453  0.4073
   29MOL   Cl45 3461   2.646   8.322   2.463  0.2676  0.4462  0.2661
   29MOL   Cl46 3462   2.723   8.570   2.363 -0.3437 -0.0696 -0.0611
   29MOL    C47 3463   2.507   8.440   2.254  0.1172  0.7553 -0.7540
   29MOL    H48 3464   2.487   8.535   2.204 -0.5702  0.1752 -1.5917
   29MOL    H49 3465   2.577   8.385   2.191  1.0786 -0.0157  0.9446
   29MOL    C50 3466   2.375   8.360   2.240  0.6079 -0.2622  0.5171
   29MOL   Cl51 3467   2.355   8.341   2.067 -0.0456  0.3444 -0.1398
   29MOL   Cl52 3468   2.238   8.453   2.313  0.0424 -0.1908  0.2033
   29MOL    C53 3469   2.392   8.226   2.308  0.6780  0.2810 -0.3638
   29MOL    H54 3470   2.497   8.199   2.296  0.2128 -1.8729  0.2242
   29MOL    H55 3471   2.379   8.237   2.416 -0.9205 -0.1800 -0.4877
   29MOL    C56 3472   2.312   8.102   2.251  0.2144 -0.7160  0.1908
   29MOL   Cl57 3473   2.144   8.149   2.230 -0.4394  0.2324  0.3505
   29MOL   Cl58 3474   2.313   7.977   2.372 -0.1314 -0.2018  0.2996
   29MOL    C59 3475   2.377   8.035   2.128 -0.1834 -0.0031  0.1287
   29MOL    H60 3476   2.442   8.107   2.077  2.5773 -1.6430  1.2622
   29MOL    H61 3477   2.454   7.966   2.163 -0.0150 -0.2271 -0.6596
   29MOL    C62 3478   2.282   7.960   2.027  0.5315  0.1177  0.4717
   29MOL   Cl63 3479   2.408   7.888   1.923  0.4744 -0.0683  0.4197
   29MOL   Cl64 3480   2.171   8.070   1.930  0.0554 -0.6556 -0.8283
   29MOL    C65 3481   2.202   7.846   2.095 -0.5984  0.2083 -0.1635
   29MOL    H66 3482   2.254   7.791   2.174  0.3875  0.0254 -0.9361
   29MOL    H67 3483   2.123   7.904   2.143  0.9854  1.8715  0.5254
   29MOL    C68 3484   2.124   7.731   2.032  0.2151  0.0559  0.6424
   29MOL   Cl69 3485   2.237   7.595   1.976  0.1865  0.0733 -0.2054
   29MOL   Cl70 3486   2.048   7.791   1.881 -0.5348 -0.1093  0.2938
   29MOL    C71 3487   2.001   7.677   2.112  0.1086 -0.1521 -0.2193
   29MOL    H72 3488   1.928   7.757   2.121 -1.6296 -1.5701 -1.4208
   29MOL    H73 3489   1.956   7.597   2.054 -0.5390  0.8225 -1.0778
   29MOL    C74 3490   2.026   7.624   2.258 -0.5144 -0.5305  0.0600
   29MOL   Cl75 3491   1.876   7.543   2.315  0.3841  0.2372  0.1050
   29MOL   Cl76 3492   2.057   7.768   2.363 -0.0954 -0.1600  0.3583
   29MOL    C77 3493   2.154   7.529   2.283 -0.0234 -0.5255 -0.2959
   29MOL    H78 3494   2.134   7.444   2.218 -2.4240 -0.1032 -0.1423
   29MOL    H79 3495   2.242   7.585   2.250 -1.4812  1.8524 -0.3071
   29MOL    C80 3496   2.209   7.491   2.420  0.2018 -0.3274 -0.1669
   29MOL   Cl81 3497   2.077   7.446   2.540  0.1325 -0.4914 -0.1014
   29MOL   Cl82 3498   2.301   7.621   2.497 -0.0257 -0.0079  0.3951
   29MOL    C83 3499   2.294   7.363   2.418 -0.1738  0.8561 -0.8253
   29MOL    H84 3500   2.329   7.328   2.515 -1.2757 -0.2290 -0.7976
   29MOL    H85 3501   2.227   7.282   2.387  0.9384 -0.3603 -0.0707
   29MOL    C86 3502   2.413   7.341   2.313  0.1847  0.7236  0.3253
   29MOL   Cl87 3503   2.346   7.310   2.151 -0.3172 -0.0099 -0.4234
   29MOL   Cl88 3504   2.497   7.188   2.363 -0.1178 -0.1208  0.2037
   29MOL    C89 3505   2.516   7.461   2.314 -0.6339 -0.3320 -0.5416
   29MOL    H90 3506   2.569   7.447   2.220  0.4816  0.2829 -0.0153
   29MOL    H91 3507   2.463   7.556   2.308 -0.3167 -0.2550 -2.3063
   29MOL    C92 3508   2.633   7.474   2.414 -0.8382 -0.6698 -0.0327
   29MOL   Cl93 3509   2.762   7.366   2.367  0.4586 -0.4865  0.0205
   29MOL   Cl94 3510   2.587   7.422   2.574 -0.0944  0.3879 -0.0025
   29MOL    C95 3511   2.696   7.613   2.440 -0.1416  0.3210 -0.7631
   29MOL    H96 3512   2.616   7.675   2.482  0.3061  0.8352 -0.6544
   29MOL    H97 3513   2.769   7.590   2.517 -0.1989 -1.2425 -1.1655
   29MOL    C98 3514   2.753   7.707   2.332 -0.0428 -0.4143 -0.3677
   29MOL   Cl99 3515   2.620   7.762   2.223  0.2544 -0.3338  0.4557
   29MOL  Cl100 3516   2.889   7.638   2.239  0.4085 -0.5344  0.2578
   29MOL   C101 3517   2.817   7.836   2.388 -0.5734  0.1247  0.4788
   29MOL   H102 3518   2.823   7.906   2.305 -0.1566  0.8502  1.1135
   29MOL   H103 3519   2.739   7.887   2.445 -0.4815  0.3094  0.4369
   29MOL   C104 3520   2.939   7.856   2.477  0.2364 -0.2848 -0.1727
   29MOL  Cl105 3521   2.906   7.780   2.634 -0.2539 -0.1222  0.0974
   29MOL  Cl106 3522   2.960   8.027   2.516 -0.4402  0.1289  0.4090
   29MOL   C107 3523   3.075   7.799   2.424  0.1773  0.5239  0.0391
   29MOL   H108 3524   3.061   7.691   2.430 -0.1900  0.6181  1.0924
   29MOL   H109 3525   3.079   7.827   2.319  0.5686  0.4553  0.0355
   29MOL   C110 3526   3.219   7.816   2.483  0.3793 -0.2266  0.0053
   29MOL  Cl111 3527   3.218   7.772   2.654 -0.0081  0.0915  0.0319
   29MOL  Cl112 3528   3.283   7.990   2.469 -0.2260  0.0137 -0.2369
   29MOL   C113 3529   3.337   7.728   2.429 -0.1594 -0.0477  0.4237
   29MOL   H114 3530   3.430   7.771   2.467 -0.9564  0.4351  1.8689
   29MOL   H115 3531   3.337   7.632   2.480  3.5494  0.4223  1.5001
   29MOL   C116 3532   3.347   7.682   2.280 -0.0735 -0.0653  0.3333
   29MOL  Cl117 3533   3.339   7.831   2.181  0.1207  0.2302  0.0602
   29MOL  Cl118 3534   3.219   7.565   2.224 -0.1586  0.5040 -0.0464
   29MOL   C119 3535   3.483   7.622   2.249 -0.5127  0.1919  0.1106
   29MOL   H120 3536   3.499   7.533   2.310 -0.9824 -0.0306 -0.0940
   29MOL   H121 3537   3.495   7.601   2.143  0.0080  0.5207  0.0985
   29MOL   H122 3538   3.571   7.678   2.281  0.6151 -0.8018 -1.1730
   30MOL     C1 3539   3.920   8.224   5.709  0.0828  1.1263 -0.1826
   30MOL    Cl2 3540   4.029   8.282   5.840  0.2382 -0.1207 -0.1502
   30MOL    Cl3 3541   3.750   8.264   5.748  0.1498 -0.3064  0.4800
   30MOL     C4 3542   3.960   8.296   5.575  0.0009  0.4111 -0.4193
   30MOL     H5 3543   3.865   8.284   5.523  0.4171 -2.7201 -0.5828
   30MOL     H6 3544   3.976   8.402   5.595  2.1754  0.2395 -1.1460
   30MOL     H7 3545   3.928   8.116   5.695  0.4637  0.7926  2.3604
   30MOL     C8 3546   4.080   8.232   5.494 -0.6838  0.3459 -0.0783
   30MOL    Cl9 3547   4.101   8.328   5.346 -0.3120 -0.3319  0.1073
   30MOL   Cl10 3548   4.035   8.064   5.446 -0.2260  0.0094  0.1340
   30MOL    C11 3549   4.202   8.231   5.587 -0.1329  0.2276 -0.4840
   30MOL    H12 3550   4.221   8.334   5.619  1.7764 -0.5906  1.0834
   30MOL    H13 3551   4.169   8.174   5.674 -0.7891  1.6348  0.2235
   30MOL    C14 3552   4.346   8.188   5.541  0.8079 -0.3422 -0.1023
   30MOL   Cl15 3553   4.407   8.290   5.407  0.4112 -0.3077  0.2358
   30MOL   Cl16 3554   4.348   8.025   5.473  0.0492  0.1594 -0.3319
   30MOL    C17 3555   4.454   8.206   5.653 -0.2912  0.1095  0.3541
   30MOL    H18 3556   4.550   8.223   5.606 -0.5614 -0.2057 -0.3141
   30MOL    H19 3557   4.426   8.302   5.696  0.1323  0.6030 -0.4751
   30MOL    C20 3558   4.476   8.093   5.768  0.5210 -0.0280  0.4466
   30MOL   Cl21 3559   4.322   8.061   5.850  0.0399 -0.5950 -0.2411
   30MOL   Cl22 3560   4.564   8.179   5.886 -0.3646 -0.2972  0.1403
   30MOL    C23 3561   4.540   7.956   5.734  0.0653  0.5002  0.3939
   30MOL    H24 3562   4.538   7.904   5.830 -0.4818  0.4871  0.3752
   30MOL    H25 3563   4.460   7.907   5.678 -0.6865  1.9389  0.1885
   30MOL    C26 3564   4.678   7.939   5.671 -0.3304  0.4166  0.0690
   30MOL   Cl27 3565   4.806   8.022   5.763  0.5637 -0.4116 -0.4255
   30MOL   Cl28 3566   4.672   8.005   5.505  0.2685 -0.0489  0.0454
   30MOL    C29 3567   4.709   7.787   5.673  0.2019 -0.2250 -0.6877
   30MOL    H30 3568   4.707   7.752   5.776 -2.3958  2.5475  0.2509
   30MOL    H31 3569   4.616   7.741   5.638  0.9125 -1.4136 -1.0478
   30MOL    C32 3570   4.831   7.711   5.601  0.7965 -0.5099  0.3539
   30MOL   Cl33 3571   4.781   7.696   5.425 -0.2751 -0.6079  0.0797
   30MOL   Cl34 3572   4.840   7.550   5.674 -0.3372  0.0747  0.1654
   30MOL    C35 3573   4.973   7.778   5.612  0.3236 -0.4068  0.0032
   30MOL    H36 3574   4.972   7.885   5.593  0.4476 -0.9366 -3.2445
   30MOL    H37 3575   4.994   7.761   5.717  0.0883  0.0956  0.1348
   30MOL    C38 3576   5.097   7.725   5.531  0.1645 -0.2856 -0.9611
   30MOL   Cl39 3577   5.236   7.787   5.627  0.0962 -0.4221  0.0668
   30MOL   Cl40 3578   5.096   7.814   5.371 -0.3464  0.3181 -0.0365
   30MOL    C41 3579   5.106   7.569   5.515  0.4807  0.2207  0.0050
   30MOL    H42 3580   5.099   7.526   5.615 -2.5600 -2.9996 -1.4940
   30MOL    H43 3581   5.006   7.532   5.490 -0.0916  1.7654 -0.0637
   30MOL    C44 3582   5.200   7.493   5.418 -0.0949 -0.0963 -0.1515
   30MOL   Cl45 3583   5.190   7.330   5.474 -0.3670  0.0367  0.0931
   30MOL   Cl46 3584   5.371   7.552   5.426 -0.0494 -0.1036 -0.1792
   30MOL    C47 3585   5.161   7.506   5.267 -0.5015  0.4367 -0.6826
   30MOL    H48 3586   5.053   7.513   5.252 -1.0352 -1.6919  1.7186
   30MOL    H49 3587   5.189   7.608   5.241 -0.5932  1.1656  1.8809
   30MOL    C50 3588   5.221   7.404   5.164  0.4897 -0.3993 -0.3410
   30MOL   Cl51 3589   5.221   7.496   5.008 -0.0538  0.0566 -0.1418
   30MOL   Cl52 3590   5.105   7.270   5.161  0.1540 -0.1434 -0.0163
   30MOL    C53 3591   5.367   7.348   5.188  0.0321  0.0613 -0.1971
   30MOL    H54 3592   5.427   7.437   5.205  0.7664 -0.6333  0.9328
   30MOL    H55 3593   5.362   7.307   5.289 -2.3111  1.7692  0.4263
   30MOL    C56 3594   5.433   7.252   5.087 -0.5307  0.1345  0.5676
   30MOL   Cl57 3595   5.496   7.343   4.944  0.0178 -0.1583 -0.4278
   30MOL   Cl58 3596   5.331   7.116   5.034  0.3043 -0.0804  0.0347
   30MOL    C59 3597   5.566   7.181   5.142  0.8729  0.6970  0.1052
   30MOL    H60 3598   5.575   7.093   5.078 -1.7207 -0.0255  0.6587
   30MOL    H61 3599   5.652   7.246   5.129  0.9602  0.6295  0.3448
   30MOL    C62 3600   5.582   7.137   5.286 -0.0001 -0.5731 -0.0124
   30MOL   Cl63 3601   5.440   7.053   5.342  0.1038  0.3331  0.1703
   30MOL   Cl64 3602   5.610   7.289   5.385 -0.0150  0.2732  0.0974
   30MOL    C65 3603   5.711   7.046   5.316  0.1376  0.5518  0.5606
   30MOL    H66 3604   5.797   7.112   5.308  0.1559  0.1657 -3.0953
   30MOL    H67 3605   5.702   7.039   5.424  1.0491  0.7475  0.6512
   30MOL    C68 3606   5.738   6.912   5.241 -0.2570 -0.0870 -0.4505
   30MOL   Cl69 3607   5.822   6.965   5.098 -0.0376 -0.2513 -0.1545
   30MOL   Cl70 3608   5.592   6.827   5.184 -0.0899  0.3399  0.1867
   30MOL    C71 3609   5.837   6.815   5.310  0.2397 -0.8365  0.5088
   30MOL    H72 3610   5.843   6.725   5.249  1.8185  0.4703 -1.2959
   30MOL    H73 3611   5.938   6.854   5.298  0.5100 -1.9519 -0.9692
   30MOL    C74 3612   5.816   6.776   5.464 -0.4687  0.0420 -0.0508
   30MOL   Cl75 3613   5.640   6.745   5.493 -0.5147 -0.3774 -0.1111
   30MOL   Cl76 3614   5.887   6.905   5.564 -0.0456 -0.1826  0.1345
   30MOL    C77 3615   5.897   6.645   5.491 -0.0222 -0.0998 -0.3147
   30MOL    H78 3616   5.891   6.579   5.404 -0.4218 -0.0477 -0.3268
   30MOL    H79 3617   6.004   6.663   5.497  0.4525 -2.5698 -0.5872
   30MOL    C80 3618   5.874   6.552   5.612  1.0660  0.7102  0.1876
   30MOL   Cl81 3619   6.001   6.433   5.606 -0.3905  0.0284  0.5291
   30MOL   Cl82 3620   5.724   6.458   5.578  0.1798  0.2152 -0.2451
   30MOL    C83 3621   5.869   6.627   5.748 -0.0298  0.1345 -0.0504
   30MOL    H84 3622   5.974   6.657   5.753  0.6878 -2.3528  0.4589
   30MOL    H85 3623   5.793   6.703   5.734 -0.5402 -0.5427 -0.9866
   30MOL    C86 3624   5.837   6.553   5.883 -0.5884  0.0606 -0.1650
   30MOL   Cl87 3625   5.915   6.394   5.888  0.3077  0.4818 -0.2375
   30MOL   Cl88 3626   5.666   6.525   5.898 -0.2221 -0.1428  0.0436
   30MOL    C89 3627   5.889   6.628   6.004 -0.7011  0.3658  0.0496
   30MOL    H90 3628   5.897   6.561   6.090  0.4442 -1.7200 -1.6414
   30MOL    H91 3629   5.996   6.642   5.989 -0.6744 -0.9535 -1.0998
   30MOL    C92 3630   5.833   6.764   6.062 -0.1591  0.2371 -0.4504
   30MOL   Cl93 3631   5.681   6.734   6.150  0.2769  0.1620  0.3081
   30MOL   Cl94 3632   5.772   6.879   5.936 -0.0821 -0.4940 -0.0996
   30MOL    C95 3633   5.921   6.843   6.163  0.3092  0.4209  0.4617
   30MOL    H96 3634   5.857   6.925   6.197 -2.6268 -1.2119 -0.9751
   30MOL    H97 3635   5.914   6.786   6.255 -0.0165 -1.2609 -0.5964
   30MOL    C98 3636   6.066   6.889   6.134 -0.8453 -1.0054  0.1452
   30MOL   Cl99 3637   6.082   6.926   5.953 -0.4114 -0.0669 -0.0287
   30MOL  Cl100 3638   6.171   6.747   6.178 -0.6982  0.1479 -0.1835
   30MOL   C101 3639   6.124   7.005   6.219 -0.4317  0.0250  0.0975
   30MOL   H102 3640   6.145   6.981   6.324 -0.6127 -1.2194 -0.1479
   30MOL   H103 3641   6.218   7.029   6.170  0.1972  0.3712  1.4576
   30MOL   C104 3642   6.054   7.145   6.236  0.3859 -0.6772  1.2521
   30MOL  Cl105 3643   5.925   7.135   6.356  0.5629  0.1278  0.2962
   30MOL  Cl106 3644   5.979   7.202   6.084  0.0002  0.0656 -0.3398
   30MOL   C107 3645   6.150   7.260   6.264  0.5559  0.4086  0.2287
   30MOL   H108 3646   6.207   7.289   6.175 -0.9572 -0.3883 -1.0221
   30MOL   H109 3647   6.080   7.343   6.274  0.6394  0.3657  1.1429
   30MOL   C110 3648   6.256   7.272   6.389 -0.1804 -1.0397 -0.4926
   30MOL  Cl111 3649   6.379   7.145   6.379  0.0717 -0.0931  0.0873
   30MOL  Cl112 3650   6.157   7.246   6.539  0.1855 -0.0337  0.3581
   30MOL   C113 3651   6.322   7.412   6.417 -0.6973 -0.2412 -0.0864
   30MOL   H114 3652   6.244   7.485   6.439  1.0655  2.3209 -2.0093
   30MOL   H115 3653   6.388   7.407   6.503  0.5338 -0.2729 -1.0174
   30MOL   C116 3654   6.395   7.484   6.296 -0.3750  0.4484  0.3754
   30MOL  Cl117 3655   6.441   7.643   6.360 -0.1613  0.0920  0.2393
   30MOL  Cl118 3656   6.288   7.515   6.156  0.2473 -0.2698  0.2462
   30MOL   C119 3657   6.516   7.414   6.242 -0.7168  0.2117 -0.0816
   30MOL   H120 3658   6.569   7.375   6.328 -1.4140  0.7500  0.6004
   30MOL   H121 3659   6.480   7.333   6.178 -1.7958 -0.4073  1.2784
   30MOL   H122 3660   6.563   7.493   6.184 -0.0451  0.2929  0.5776
   31MOL     C1 3661   0.984   2.014   6.701  0.3902 -0.1956  0.3235
   31MOL    Cl2 3662   0.971   1.923   6.546 -0.2074 -0.1979 -0.2499
   31MOL    Cl3 3663   0.831   2.108   6.740  0.0984  0.1718  0.1996
   31MOL     C4 3664   1.027   1.916   6.808 -0.2867  0.4158  0.1508
   31MOL     H5 3665   0.952   1.844   6.841  1.0362 -0.4023  1.4263
   31MOL     H6 3666   1.099   1.849   6.761  0.8261 -0.4251  2.9539
   31MOL     H7 3667   1.060   2.091   6.693  0.4900 -0.4508 -1.3656
   31MOL     C8 3668   1.097   1.967   6.942 -0.6516  0.0401 -0.4124
   31MOL    Cl9 3669   0.974   2.057   7.045  0.4263 -0.1790 -0.0476
   31MOL   Cl10 3670   1.219   2.092   6.890  0.0807 -0.0899  0.2579
   31MOL    C11 3671   1.170   1.865   7.034  0.5335  0.2481  0.0488
   31MOL    H12 3672   1.254   1.826   6.976 -1.1061  1.1346 -2.9804
   31MOL    H13 3673   1.212   1.917   7.120  0.8368  2.6002 -1.4773
   31MOL    C14 3674   1.100   1.744   7.098  0.6190 -0.5805  0.7028
   31MOL   Cl15 3675   1.066   1.619   6.966  0.5423  0.0701  0.0206
   31MOL   Cl16 3676   0.940   1.767   7.167  0.2479 -0.4486 -0.1411
   31MOL    C17 3677   1.170   1.662   7.210 -0.0903 -0.4408 -0.3941
   31MOL    H18 3678   1.151   1.732   7.292 -0.0333 -0.9944  0.0976
   31MOL    H19 3679   1.109   1.579   7.245 -0.6060  0.1311  0.0772
   31MOL    C20 3680   1.324   1.637   7.212 -1.0521 -0.1284  0.7538
   31MOL   Cl21 3681   1.410   1.790   7.212 -0.3457 -0.0889  0.0923
   31MOL   Cl22 3682   1.363   1.555   7.056 -0.2269  0.6064  0.0588
   31MOL    C23 3683   1.378   1.533   7.315 -0.5398 -0.5855 -0.3065
   31MOL    H24 3684   1.332   1.440   7.282 -0.0300 -0.3279 -1.8366
   31MOL    H25 3685   1.487   1.526   7.303 -0.2682 -1.5058  2.3465
   31MOL    C26 3686   1.346   1.555   7.468 -0.3681  0.4983 -0.3086
   31MOL   Cl27 3687   1.456   1.439   7.545  0.4846  0.1539 -0.2470
   31MOL   Cl28 3688   1.176   1.504   7.485 -0.1517  0.6210  0.5406
   31MOL    C29 3689   1.375   1.702   7.510 -0.7033  0.1052  0.4434
   31MOL    H30 3690   1.475   1.733   7.479 -1.5369  1.3429 -1.0727
   31MOL    H31 3691   1.305   1.770   7.461  0.0771 -0.7349 -1.8831
   31MOL    C32 3692   1.372   1.745   7.658  1.4278  0.4180 -0.4172
   31MOL   Cl33 3693   1.346   1.923   7.652 -0.0842  0.1924  0.2216
   31MOL   Cl34 3694   1.536   1.705   7.717  0.8751  0.0276  0.2671
   31MOL    C35 3695   1.266   1.677   7.742 -0.0566 -0.3855 -0.3176
   31MOL    H36 3696   1.176   1.713   7.693  0.5720  2.5866  0.5839
   31MOL    H37 3697   1.278   1.574   7.709  1.0917  0.0926 -1.4182
   31MOL    C38 3698   1.252   1.700   7.899  0.0894 -0.5585  0.6244
   31MOL   Cl39 3699   1.254   1.876   7.938  0.2395  0.0507 -0.0442
   31MOL   Cl40 3700   1.391   1.625   7.993 -0.0454 -0.2748  0.1410
   31MOL    C41 3701   1.121   1.646   7.957  0.7580 -0.3484 -0.1875
   31MOL    H42 3702   1.129   1.649   8.066  1.0911  2.2116 -0.2420
   31MOL    H43 3703   1.038   1.715   7.941 -1.1191 -2.7355 -0.9808
   31MOL    C44 3704   1.055   1.507   7.912  0.1875 -0.0130  0.2421
   31MOL   Cl45 3705   0.996   1.534   7.741 -0.0048  0.3601 -0.4383
   31MOL   Cl46 3706   0.918   1.470   8.019 -0.2007  0.0144  0.6277
   31MOL    C47 3707   1.150   1.392   7.924  0.0110 -0.2586  0.2683
   31MOL    H48 3708   1.246   1.415   7.878  0.0407  0.2176  0.5623
   31MOL    H49 3709   1.182   1.373   8.026 -0.9104 -0.4988  0.5174
   31MOL    C50 3710   1.117   1.252   7.867  0.3913  0.4496 -0.5911
   31MOL   Cl51 3711   1.234   1.135   7.932 -0.7426  0.3414  0.3104
   31MOL   Cl52 3712   1.157   1.253   7.700  0.0691  0.2176  0.2438
   31MOL    C53 3713   0.968   1.193   7.883  0.1110  0.1832 -0.2258
   31MOL    H54 3714   0.916   1.226   7.972  0.4928  0.2988 -0.0447
   31MOL    H55 3715   0.899   1.235   7.810 -0.4401  0.2358  0.3239
   31MOL    C56 3716   0.950   1.040   7.901  0.2162 -0.6578  0.6796
   31MOL   Cl57 3717   1.025   0.949   7.763  0.1993 -0.4676  0.1017
   31MOL   Cl58 3718   0.770   1.009   7.881 -0.2077 -0.0471 -0.1732
   31MOL    C59 3719   0.992   0.970   8.040 -0.3490  0.0775  0.1237
   31MOL    H60 3720   0.938   0.877   8.059  0.5543 -0.7617 -1.4030
   31MOL    H61 3721   1.094   0.932   8.040 -0.1754  0.5263  0.7428
   31MOL    C62 3722   0.968   1.043   8.175 -0.2406  0.3413  0.0679
   31MOL   Cl63 3723   0.795   1.092   8.190  0.2118  0.1181 -0.0009
   31MOL   Cl64 3724   1.078   1.190   8.197 -0.0073  0.4040 -0.0590
   31MOL    C65 3725   0.987   0.953   8.303  0.0303 -0.4496  0.1764
   31MOL    H66 3726   0.998   1.023   8.385 -2.5141  0.1001  0.1000
   31MOL    H67 3727   0.894   0.900   8.324  0.7743 -2.3174 -1.0315
   31MOL    C68 3728   1.093   0.846   8.321  0.2651  0.0015 -0.1484
   31MOL   Cl69 3729   1.248   0.906   8.261  0.3208  0.3814 -0.1059
   31MOL   Cl70 3730   1.046   0.699   8.233  0.0718 -0.9064 -0.5184
   31MOL    C71 3731   1.127   0.809   8.468  1.0468 -0.4821 -0.7675
   31MOL    H72 3732   1.204   0.733   8.477  0.9217 -0.4621  0.6693
   31MOL    H73 3733   1.175   0.897   8.511 -1.5312  1.8548 -2.4599
   31MOL    C74 3734   1.014   0.776   8.574 -0.2181  0.7457 -0.3172
   31MOL   Cl75 3735   0.942   0.920   8.646  0.1663  0.1574  0.2444
   31MOL   Cl76 3736   1.109   0.704   8.707  0.0465  0.0766  0.4922
   31MOL    C77 3737   0.908   0.671   8.528 -0.0454 -0.0349  0.2322
   31MOL    H78 3738   0.871   0.700   8.429  1.4655  1.9705  0.2012
   31MOL    H79 3739   0.964   0.579   8.514 -0.5310  0.0760 -2.8487
   31MOL    C80 3740   0.771   0.637   8.609  0.0639 -0.8062  0.3341
   31MOL   Cl81 3741   0.660   0.783   8.612  0.3694  0.0965 -0.3440
   31MOL   Cl82 3742   0.795   0.598   8.780 -0.2328  0.1703  0.2063
   31MOL    C83 3743   0.700   0.524   8.528 -0.4520 -0.4751  0.2480
   31MOL    H84 3744   0.672   0.578   8.438  0.6528  0.5124  0.4797
   31MOL    H85 3745   0.776   0.454   8.494  1.1088  1.0017  0.6027
   31MOL    C86 3746   0.584   0.426   8.580  0.1800 -0.2103 -0.1650
   31MOL   Cl87 3747   0.523   0.330   8.438  0.0657 -0.0393 -0.0944
   31MOL   Cl88 3748   0.449   0.527   8.630 -0.1971  0.3197 -0.2282
   31MOL    C89 3749   0.615   0.329   8.705  0.0548  0.7989  0.2300
   31MOL    H90 3750   0.634   0.376   8.801  0.5915 -2.3989  1.7709
   31MOL    H91 3751   0.523   0.274   8.728  0.2918  0.2895 -0.0392
   31MOL    C92 3752   0.729   0.216   8.701 -0.1042  0.0031 -0.0893
   31MOL   Cl93 3753   0.890   0.288   8.672  0.0846 -0.0716  0.3913
   31MOL   Cl94 3754   0.693   0.099   8.573  0.7230  0.2573 -0.0776
   31MOL    C95 3755   0.740   0.139   8.836  0.0105 -0.1653  0.3508
   31MOL    H96 3756   0.779   0.215   8.903 -2.2317  2.0514 -0.7798
   31MOL    H97 3757   0.639   0.127   8.873 -0.6774  1.5237 -0.9004
   31MOL    C98 3758   0.820   0.008   8.848  1.0141 -1.0670  0.5273
   31MOL   Cl99 3759   0.729   9.047   8.798  0.3724  0.1872  0.0365
   31MOL  Cl100 3760   0.835   9.170   9.023  0.3894  0.3641 -0.2332
   31MOL   C101 3761   0.969   0.011   8.785 -0.1433  0.0253 -0.2302
   31MOL   H102 3762   0.931   0.021   8.684 -0.5045 -0.2292 -0.1187
   31MOL   H103 3763   1.028   0.097   8.817  0.2731 -0.8644  1.4779
   31MOL   C104 3764   1.064   9.067   8.777  1.2118  0.4403  0.7862
   31MOL  Cl105 3765   1.213   9.132   8.712  0.2224  0.0364  0.3348
   31MOL  Cl106 3766   0.992   8.974   8.633 -0.0386 -0.0153  0.1219
   31MOL   C107 3767   1.090   8.985   8.905 -0.1459 -0.2039 -0.0550
   31MOL   H108 3768   1.122   9.062   8.975  1.3061 -1.7035  0.9417
   31MOL   H109 3769   0.989   8.954   8.932 -0.9618  2.0382 -0.4249
   31MOL   C110 3770   1.185   8.857   8.917  0.4347 -0.4921 -0.3044
   31MOL  Cl111 3771   1.360   8.901   8.906  0.1004 -0.3279  0.1107
   31MOL  Cl112 3772   1.165   8.743   8.783 -0.3849 -0.0742  0.1567
   31MOL   C113 3773   1.153   8.767   9.042 -0.0674 -0.1031 -0.1769
   31MOL   H114 3774   1.048   8.738   9.037  0.0024 -0.2174 -1.1347
   31MOL   H115 3775   1.209   8.676   9.019 -1.4030 -0.6244 -1.4577
   31MOL   C116 3776   1.176   8.822   0.010  0.4423  0.2214 -0.0343
   31MOL  Cl117 3777   1.057   8.959   0.047  0.0117  0.1182  0.0610
   31MOL  Cl118 3778   1.341   8.870   0.036  0.3848 -0.0599 -0.1117
   31MOL   C119 3779   1.138   8.715   0.111 -0.7375 -0.1585  0.0848
   31MOL   H120 3780   1.031   8.696   0.108 -0.8673  0.6339 -0.2945
   31MOL   H121 3781   1.186   8.618   0.092 -0.1562  0.0584  0.4232
   31MOL   H122 3782   1.166   8.753   0.209  0.4818 -1.5041  0.2851
   32MOL     C1 3783   0.860   8.187   7.779 -0.0209 -0.1147 -0.5279
   32MOL    Cl2 3784   0.693   8.253   7.752  0.2849 -0.0059 -0.0609
   32MOL    Cl3 3785   0.916   8.231   7.939 -0.6024  0.4214  0.3928
   32MOL     C4 3786   0.882   8.034   7.764 -0.7220 -0.2442 -0.8075
   32MOL     H5 3787   0.987   8.022   7.789 -0.8256 -0.1001 -0.2944
   32MOL     H6 3788   0.823   7.981   7.838  0.7642 -0.0514  0.5436
   32MOL     H7 3789   0.929   8.238   7.711 -0.5379  1.8631  0.4051
   32MOL     C8 3790   0.879   7.972   7.619 -0.2459  0.2948  0.4640
   32MOL    Cl9 3791   0.978   8.069   7.507  0.1549  0.5126 -0.0283
   32MOL   Cl10 3792   0.716   7.985   7.552  0.0290  0.2238  0.0653
   32MOL    C11 3793   0.928   7.829   7.623 -0.2276  0.0898  0.0385
   32MOL    H12 3794   0.905   7.781   7.529 -1.5940 -2.8344  1.8015
   32MOL    H13 3795   1.037   7.823   7.629 -0.3061 -0.2828  1.4822
   32MOL    C14 3796   0.891   7.726   7.724 -0.5499 -0.3313 -0.4089
   32MOL   Cl15 3797   0.981   7.764   7.877  0.0116  0.0378  0.2311
   32MOL   Cl16 3798   0.968   7.579   7.661  0.1955 -0.2251  0.6176
   32MOL    C17 3799   0.735   7.701   7.732  0.0232 -0.6839 -0.5176
   32MOL    H18 3800   0.676   7.793   7.721  1.3491  0.2668  0.1321
   32MOL    H19 3801   0.701   7.641   7.648  1.6628 -2.6224  0.1700
   32MOL    C20 3802   0.665   7.630   7.857 -0.4295 -0.8283 -0.0995
   32MOL   Cl21 3803   0.497   7.603   7.820  0.3304 -0.0319  0.3674
   32MOL   Cl22 3804   0.675   7.751   7.986  0.1981 -0.2390  0.1492
   32MOL    C23 3805   0.732   7.500   7.896 -0.1519  0.1229  0.0659
   32MOL    H24 3806   0.740   7.444   7.802 -1.1162 -0.3976  0.2824
   32MOL    H25 3807   0.835   7.513   7.926  0.0053  1.1584 -0.8740
   32MOL    C26 3808   0.664   7.410   8.004 -0.2101 -0.5149 -0.3802
   32MOL   Cl27 3809   0.623   7.497   8.151 -0.1160 -0.1971  0.0679
   32MOL   Cl28 3810   0.803   7.305   8.055  0.0588  0.0461 -0.1882
   32MOL    C29 3811   0.537   7.332   7.965  0.6767  0.1681 -0.7910
   32MOL    H30 3812   0.514   7.265   8.049 -2.8508 -0.1009 -1.8698
   32MOL    H31 3813   0.453   7.400   7.977  0.6291 -0.3791  2.5448
   32MOL    C32 3814   0.534   7.243   7.842 -0.8531  0.3160 -0.5131
   32MOL   Cl33 3815   0.583   7.307   7.679  0.4751 -0.0983 -0.0370
   32MOL   Cl34 3816   0.349   7.224   7.835  0.5349 -0.1543 -0.2940
   32MOL    C35 3817   0.598   7.103   7.866 -0.1578  0.0788 -0.1411
   32MOL    H36 3818   0.701   7.120   7.898 -0.5880 -0.1981  1.4335
   32MOL    H37 3819   0.537   7.053   7.941  1.0779  0.8380  1.4014
   32MOL    C38 3820   0.609   7.003   7.755 -0.2568 -0.1729  0.2321
   32MOL   Cl39 3821   0.448   6.959   7.700  0.0283  0.2641  0.1039
   32MOL   Cl40 3822   0.668   6.856   7.842  0.3872  0.3458  0.3024
   32MOL    C41 3823   0.705   7.030   7.629  0.6032  0.1503 -0.4167
   32MOL    H42 3824   0.685   6.938   7.573 -0.3159 -1.2858  2.1858
   32MOL    H43 3825   0.656   7.107   7.570 -0.3219  0.1423  0.3453
   32MOL    C44 3826   0.861   7.051   7.642  0.1326 -0.4947 -0.2565
   32MOL   Cl45 3827   0.950   6.931   7.727  0.2226  0.4726 -0.0726
   32MOL   Cl46 3828   0.895   7.191   7.746  0.2333  0.1218  0.0633
   32MOL    C47 3829   0.951   7.068   7.512 -0.0015  0.1498  0.2032
   32MOL    H48 3830   1.052   7.096   7.539  0.9928 -1.6227 -1.5707
   32MOL    H49 3831   0.962   6.967   7.471  2.1162  1.0400 -1.4565
   32MOL    C50 3832   0.903   7.159   7.397  0.1527 -0.3424 -0.3750
   32MOL   Cl51 3833   0.896   7.321   7.465 -0.2710 -0.4648  0.0448
   32MOL   Cl52 3834   0.739   7.117   7.349 -0.3005 -0.0108 -0.0515
   32MOL    C53 3835   0.981   7.167   7.265 -0.5470 -0.0383  0.0185
   32MOL    H54 3836   0.947   7.096   7.190 -1.9478 -2.1687  2.5828
   32MOL    H55 3837   0.951   7.264   7.226 -0.4211 -0.5632 -1.4200
   32MOL    C56 3838   1.138   7.152   7.265 -0.2714  0.5880  0.0019
   32MOL   Cl57 3839   1.197   6.977   7.304  0.0085  0.3633 -0.1081
   32MOL   Cl58 3840   1.219   7.258   7.390  0.1300 -0.1872 -0.0984
   32MOL    C59 3841   1.203   7.182   7.134 -0.0014  0.2782  1.0133
   32MOL    H60 3842   1.312   7.188   7.138  0.0605 -0.3611  0.4199
   32MOL    H61 3843   1.174   7.105   7.061 -0.2175  0.6654  0.6878
   32MOL    C62 3844   1.152   7.307   7.047  0.2063  0.6985  0.3399
   32MOL   Cl63 3845   1.155   7.450   7.148 -0.0718  0.1275 -0.0824
   32MOL   Cl64 3846   0.991   7.273   6.982 -0.2462 -0.4383  0.0669
   32MOL    C65 3847   1.251   7.342   6.928  0.0811 -0.7186  0.0077
   32MOL    H66 3848   1.198   7.420   6.874 -1.7354 -1.5998  0.4706
   32MOL    H67 3849   1.335   7.397   6.969 -1.2204  0.6940  0.8255
   32MOL    C68 3850   1.306   7.242   6.824 -0.4006  0.1432  0.2577
   32MOL   Cl69 3851   1.173   7.152   6.735  0.0629 -0.0135  0.1186
   32MOL   Cl70 3852   1.405   7.120   6.900 -0.1420  0.0545 -0.3065
   32MOL    C71 3853   1.400   7.307   6.716  0.2364 -0.3299  0.0746
   32MOL    H72 3854   1.496   7.323   6.765 -0.2249  0.0559  0.8570
   32MOL    H73 3855   1.416   7.233   6.636  0.5238 -0.6360  0.4134
   32MOL    C74 3856   1.382   7.444   6.647  0.6965 -0.6350 -0.1705
   32MOL   Cl75 3857   1.408   7.567   6.779 -0.6860 -0.4210 -0.1190
   32MOL   Cl76 3858   1.232   7.460   6.559  0.1746  0.3669  0.3161
   32MOL    C77 3859   1.495   7.466   6.543  0.2777  0.7039 -0.3780
   32MOL    H78 3860   1.592   7.430   6.578  1.0953  0.3838 -2.8770
   32MOL    H79 3861   1.476   7.401   6.458  0.9184  0.0770 -0.0456
   32MOL    C80 3862   1.536   7.613   6.498  0.7096  0.0342  0.1059
   32MOL   Cl81 3863   1.404   7.733   6.500 -0.3763  0.1647  0.0934
   32MOL   Cl82 3864   1.588   7.598   6.333 -0.0443  0.1045  0.1369
   32MOL    C83 3865   1.658   7.679   6.588 -0.1765 -0.4462 -0.6317
   32MOL    H84 3866   1.615   7.716   6.681  0.4221 -1.3921  0.0400
   32MOL    H85 3867   1.729   7.601   6.618 -1.4712 -0.6451  2.0944
   32MOL    C86 3868   1.759   7.788   6.531  0.4935 -0.6485 -0.0141
   32MOL   Cl87 3869   1.826   7.858   6.686 -0.0216 -0.0368  0.0947
   32MOL   Cl88 3870   1.675   7.928   6.455 -0.1591 -0.0615 -0.0338
   32MOL    C89 3871   1.877   7.742   6.430 -0.0279 -0.2934  0.1433
   32MOL    H90 3872   1.920   7.654   6.479 -2.2128 -1.8754 -0.6944
   32MOL    H91 3873   1.830   7.698   6.342  1.3872 -0.7956 -0.3709
   32MOL    C92 3874   1.986   7.838   6.376 -0.6415  0.0543  0.1167
   32MOL   Cl93 3875   2.090   7.729   6.273  0.3630 -0.1881  0.0997
   32MOL   Cl94 3876   2.104   7.896   6.500  0.0097  0.1540  0.1746
   32MOL    C95 3877   1.933   7.954   6.298 -0.4325 -0.5567  0.2895
   32MOL    H96 3878   1.843   7.919   6.249 -1.2772 -0.6236  1.8758
   32MOL    H97 3879   1.903   8.025   6.375 -2.2493  1.2211 -1.9931
   32MOL    C98 3880   2.010   8.034   6.187 -0.3658 -0.1326  0.5955
   32MOL   Cl99 3881   1.905   8.178   6.157 -0.1434  0.0832  0.0667
   32MOL  Cl100 3882   1.999   7.944   6.033 -0.0330 -0.1132  0.1471
   32MOL   C101 3883   2.152   8.084   6.228  0.0283  0.3871 -1.2743
   32MOL   H102 3884   2.146   8.149   6.315 -0.9128  0.8086 -1.6473
   32MOL   H103 3885   2.203   7.994   6.265  0.0731  1.1554  0.5949
   32MOL   C104 3886   2.250   8.152   6.122 -0.3607  0.5141  0.0621
   32MOL  Cl105 3887   2.173   8.299   6.054  0.0864 -0.4725 -0.0353
   32MOL  Cl106 3888   2.281   8.058   5.970  0.2308  0.2110  0.2605
   32MOL   C107 3889   2.384   8.206   6.187 -0.0387 -0.2079  0.2395
   32MOL   H108 3890   2.440   8.262   6.112 -2.6618  1.4214 -0.5738
   32MOL   H109 3891   2.351   8.280   6.259  0.4531  0.8864 -0.6458
   32MOL   C110 3892   2.477   8.112   6.273  0.3013  0.4113  0.5062
   32MOL  Cl111 3893   2.469   7.948   6.198  0.1256  0.1135 -0.1039
   32MOL  Cl112 3894   2.402   8.096   6.440 -0.6452 -0.4703 -0.3671
   32MOL   C113 3895   2.631   8.137   6.284  0.6689  0.4820 -0.3255
   32MOL   H114 3896   2.686   8.048   6.314  1.8995  1.2509 -0.2922
   32MOL   H115 3897   2.660   8.139   6.179  0.0213  0.2989 -0.5136
   32MOL   C116 3898   2.687   8.258   6.370 -0.1074  0.4362 -0.3102
   32MOL  Cl117 3899   2.703   8.206   6.547 -0.4597  0.3177 -0.1785
   32MOL  Cl118 3900   2.582   8.400   6.359 -0.0758  0.0330 -0.1837
   32MOL   C119 3901   2.829   8.286   6.316  0.1708 -0.4531  0.0085
   32MOL   H120 3902   2.861   8.381   6.360 -2.4075  0.7713 -0.6494
   32MOL   H121 3903   2.904   8.216   6.354 -1.0765 -1.2024  1.1234
   32MOL   H122 3904   2.841   8.300   6.209 -3.0067 -1.6143 -0.5326
   33MOL     C1 3905   4.207   6.223   6.006 -0.0136 -0.3044 -0.7146
   33MOL    Cl2 3906   4.298   6.152   6.137 -0.1490  0.3099  0.1332
   33MOL    Cl3 3907   4.030   6.247   6.042  0.3451 -0.5325 -0.0193
   33MOL     C4 3908   4.263   6.366   5.980  0.8515  0.0749  0.6369
   33MOL     H5 3909   4.267   6.429   6.068  2.1950  0.8748  0.0309
   33MOL     H6 3910   4.368   6.338   5.967  0.5541  0.4434 -3.1592
   33MOL     H7 3911   4.239   6.155   5.926 -0.0615  0.4105 -1.3451
   33MOL     C8 3912   4.217   6.439   5.850 -0.3183  0.2612  0.2480
   33MOL    Cl9 3913   4.047   6.504   5.872  0.0872 -0.0116 -0.2919
   33MOL   Cl10 3914   4.209   6.317   5.718 -0.2577  0.1110 -0.1347
   33MOL    C11 3915   4.305   6.544   5.789  0.6419 -0.1467  0.1425
   33MOL    H12 3916   4.392   6.494   5.748  1.3911  1.7008 -0.5772
   33MOL    H13 3917   4.274   6.590   5.695  3.3650  2.0507  0.2790
   33MOL    C14 3918   4.346   6.670   5.875 -0.6876 -0.0065 -0.0736
   33MOL   Cl15 3919   4.478   6.749   5.775  0.2632 -0.6541 -0.1695
   33MOL   Cl16 3920   4.414   6.627   6.026  0.4023 -0.1528  0.0189
   33MOL    C17 3921   4.227   6.768   5.901  0.7584  0.7979  0.1089
   33MOL    H18 3922   4.160   6.766   5.815  0.5109 -0.7325  0.3252
   33MOL    H19 3923   4.169   6.722   5.981  0.5646 -3.0088 -2.0663
   33MOL    C20 3924   4.246   6.922   5.935 -0.0837  0.3955  0.3602
   33MOL   Cl21 3925   4.079   6.978   5.979 -0.3012  0.1006  0.1221
   33MOL   Cl22 3926   4.297   7.003   5.787  0.0716 -0.2110  0.1955
   33MOL    C23 3927   4.339   6.939   6.051 -0.3479  0.8558  0.9496
   33MOL    H24 3928   4.284   6.890   6.131 -0.5377 -0.1049  0.2337
   33MOL    H25 3929   4.423   6.869   6.048 -0.9331  0.1908 -0.3249
   33MOL    C26 3930   4.393   7.075   6.108 -0.8232 -0.2071 -0.6042
   33MOL   Cl27 3931   4.490   7.032   6.250  0.0331 -0.2859  0.3012
   33MOL   Cl28 3932   4.259   7.184   6.155 -0.0781 -0.1060  0.2556
   33MOL    C29 3933   4.473   7.154   6.008 -0.9630 -0.1235  0.0979
   33MOL    H30 3934   4.528   7.087   5.942 -3.1884 -1.2210 -0.6986
   33MOL    H31 3935   4.396   7.189   5.940 -1.2243  0.4288  0.6716
   33MOL    C32 3936   4.568   7.264   6.047  0.4019  0.0164  0.0499
   33MOL   Cl33 3937   4.636   7.343   5.902  0.0462 -0.0714  0.0273
   33MOL   Cl34 3938   4.717   7.185   6.115  0.1261  0.3055  0.4519
   33MOL    C35 3939   4.512   7.369   6.146 -0.2890 -0.1027  0.1741
   33MOL    H36 3940   4.423   7.417   6.104  0.6498  2.0377  0.5759
   33MOL    H37 3941   4.472   7.311   6.229  1.3568  1.1499  1.8785
   33MOL    C38 3942   4.604   7.486   6.203  0.0824  0.0039 -0.3016
   33MOL   Cl39 3943   4.711   7.427   6.338 -0.1576  0.1635 -0.2396
   33MOL   Cl40 3944   4.493   7.602   6.285  0.1712 -0.0473 -0.0400
   33MOL    C41 3945   4.704   7.553   6.101 -0.2431 -0.5395 -0.2338
   33MOL    H42 3946   4.799   7.501   6.090 -0.1213  0.0025 -1.9207
   33MOL    H43 3947   4.650   7.554   6.006  1.4199  0.3672 -1.1890
   33MOL    C44 3948   4.741   7.710   6.122  0.3587  0.3988 -0.3627
   33MOL   Cl45 3949   4.598   7.812   6.094  0.0046 -0.1390 -0.5382
   33MOL   Cl46 3950   4.848   7.754   5.991  0.1599  0.1034 -0.0009
   33MOL    C47 3951   4.816   7.745   6.253 -0.1216 -0.0547 -0.0942
   33MOL    H48 3952   4.778   7.679   6.332  0.7354  0.2097  0.5569
   33MOL    H49 3953   4.920   7.711   6.253 -0.5868 -1.5531  0.5994
   33MOL    C50 3954   4.813   7.887   6.316  0.0681 -0.6115  0.1049
   33MOL   Cl51 3955   4.927   7.881   6.455 -0.0821  0.2497  0.2252
   33MOL   Cl52 3956   4.653   7.930   6.387 -0.2743  0.1278 -0.1455
   33MOL    C53 3957   4.849   8.009   6.217  0.0666  0.1028  0.0067
   33MOL    H54 3958   4.952   7.990   6.186 -0.3693 -1.4488 -0.5502
   33MOL    H55 3959   4.803   8.001   6.119 -0.3066  0.2931  0.1669
   33MOL    C56 3960   4.843   8.161   6.252  0.5242 -0.5117 -0.3776
   33MOL   Cl57 3961   4.659   8.199   6.254 -0.4269  0.5174  0.2600
   33MOL   Cl58 3962   4.908   8.253   6.115  0.1992 -0.1793  0.0494
   33MOL    C59 3963   4.915   8.194   6.383  0.2090 -0.0437  0.2472
   33MOL    H60 3964   4.865   8.133   6.458  0.6469 -2.8285 -1.6823
   33MOL    H61 3965   5.018   8.158   6.381  0.3106  0.1631  1.2055
   33MOL    C62 3966   4.927   8.341   6.431 -0.3275  0.4906 -0.0473
   33MOL   Cl63 3967   5.004   8.314   6.585 -0.3085  0.1590  0.3401
   33MOL   Cl64 3968   4.777   8.428   6.461  0.2247  0.2632 -0.2028
   33MOL    C65 3969   5.022   8.421   6.341 -0.3763  0.0148  0.7219
   33MOL    H66 3970   5.093   8.358   6.287 -0.0838 -0.4430  1.6293
   33MOL    H67 3971   4.969   8.457   6.252 -1.0909  0.6526  1.3923
   33MOL    C68 3972   5.109   8.537   6.398  1.0221  0.0813  0.1268
   33MOL   Cl69 3973   5.157   8.626   6.262  0.2857 -0.2000 -0.2461
   33MOL   Cl70 3974   5.265   8.470   6.461 -0.0842 -0.2914  0.1962
   33MOL    C71 3975   5.031   8.640   6.492 -0.4320  0.6034 -0.4484
   33MOL    H72 3976   4.975   8.705   6.425  0.4133  2.0307  0.2059
   33MOL    H73 3977   4.953   8.596   6.554 -1.1831  3.2955  0.6016
   33MOL    C74 3978   5.114   8.735   6.580 -0.5280  0.2911 -0.1245
   33MOL   Cl75 3979   5.184   8.636   6.715 -0.3536  0.3538  0.0139
   33MOL   Cl76 3980   5.003   8.842   6.659  0.2745 -0.1765 -0.4045
   33MOL    C77 3981   5.229   8.817   6.508  0.1708  0.6395  0.7937
   33MOL    H78 3982   5.299   8.741   6.472 -0.5431  1.6265 -2.8100
   33MOL    H79 3983   5.184   8.883   6.434 -3.2178 -0.4391  1.8086
   33MOL    C80 3984   5.313   8.927   6.580  0.1563 -0.4510  0.1387
   33MOL   Cl81 3985   5.363   8.887   6.746 -0.1637 -0.2240  0.0475
   33MOL   Cl82 3986   5.200   9.068   6.599  0.1598 -0.2709  0.3064
   33MOL    C83 3987   5.441   8.973   6.503 -0.2311 -0.1810 -0.3712
   33MOL    H84 3988   5.492   9.057   6.549  0.1565  0.7818 -2.4681
   33MOL    H85 3989   5.501   8.882   6.506  0.5999  0.3046 -1.9142
   33MOL    C86 3990   5.440   9.009   6.356  0.3531  0.2477 -0.3911
   33MOL   Cl87 3991   5.302   9.116   6.316  0.2631 -0.0090  0.2461
   33MOL   Cl88 3992   5.436   8.864   6.249 -0.3228  0.2328  0.0426
   33MOL    C89 3993   5.566   9.093   6.306  0.5112 -0.3477 -0.0594
   33MOL    H90 3994   5.563   9.082   6.197  1.6759 -1.2367 -0.0160
   33MOL    H91 3995   5.552   0.018   6.328 -0.8044 -0.5871  0.3102
   33MOL    C92 3996   5.708   9.062   6.349 -0.1786  0.6731 -0.2200
   33MOL   Cl93 3997   5.732   8.890   6.352  0.2661  0.1505  0.6071
   33MOL   Cl94 3998   5.747   9.112   6.513  0.2334 -0.4840  0.2365
   33MOL    C95 3999   5.821   9.107   6.247  0.2037 -0.4867 -0.0132
   33MOL    H96 4000   5.921   9.073   6.276  1.0761 -0.0339 -2.3777
   33MOL    H97 4001   5.808   9.065   6.147 -0.4428 -0.0432 -0.1132
   33MOL    C98 4002   5.826   0.082   6.208 -0.1022 -0.9309  0.7331
   33MOL   Cl99 4003   5.862   0.183   6.354 -0.3477  0.0353 -0.0108
   33MOL  Cl100 4004   5.679   0.143   6.129  0.2198  0.3863  0.5681
   33MOL   C101 4005   5.943   0.117   6.106  0.2123  0.3246 -0.5563
   33MOL   H102 4006   5.912   0.063   6.017 -2.1084  0.9920 -0.2009
   33MOL   H103 4007   5.939   0.225   6.092  4.7273  0.7902  0.8695
   33MOL   C104 4008   6.095   0.079   6.130  0.0536  0.0935 -0.3079
   33MOL  Cl105 4009   6.188   0.194   6.021  0.0760 -0.2720 -0.1938
   33MOL  Cl106 4010   6.112   9.095   6.064  0.5379 -0.3417  0.2190
   33MOL   C107 4011   6.146   0.093   6.283 -0.6177  0.1866 -0.1718
   33MOL   H108 4012   6.129   0.198   6.309  2.6431  0.4942  0.9083
   33MOL   H109 4013   6.077   0.030   6.340  0.7297  0.0630  1.3641
   33MOL   C110 4014   6.288   0.072   6.325 -0.2585 -0.1944 -0.4756
   33MOL  Cl111 4015   6.386   0.220   6.292  0.1900  0.4386 -0.0012
   33MOL  Cl112 4016   6.374   9.128   6.221  0.1082 -0.1439 -0.2908
   33MOL   C113 4017   6.319   0.046   6.484 -0.7254  0.3805 -0.2627
   33MOL   H114 4018   6.425   0.038   6.504 -0.8399  0.0587  0.2250
   33MOL   H115 4019   6.293   0.129   6.550  1.1939  0.5463  0.3080
   33MOL   C116 4020   6.255   9.104   6.562  0.0271 -0.4063  0.1667
   33MOL  Cl117 4021   6.260   8.957   6.465 -0.3818 -0.0243 -0.1327
   33MOL  Cl118 4022   6.078   9.143   6.589 -0.0589  0.5228  0.0376
   33MOL   C119 4023   6.329   9.080   6.694  0.0694  0.1521  0.0548
   33MOL   H120 4024   6.278   9.004   6.753 -1.5137  0.6287 -0.6711
   33MOL   H121 4025   6.421   9.031   6.663 -1.0578 -1.3168 -1.0612
   33MOL   H122 4026   6.333   9.174   6.748 -0.9983  0.3049 -0.1218
   34MOL     C1 4027   2.382   4.122   5.428 -0.1628 -0.3505  0.1794
   34MOL    Cl2 4028   2.505   4.030   5.342 -0.0083  0.4649 -0.3172
   34MOL    Cl3 4029   2.224   4.079   5.359  0.5311  0.0028  0.2470
   34MOL     C4 4030   2.397   4.099   5.585 -0.1776  0.2515  0.7254
   34MOL     H5 4031   2.402   3.991   5.599  1.5195  0.0471 -1.1883
   34MOL     H6 4032   2.498   4.130   5.613 -0.2709  0.7864  0.4815
   34MOL     H7 4033   2.393   4.230   5.418  1.5820 -0.5014  0.2222
   34MOL     C8 4034   2.306   4.169   5.695 -0.1926  0.2328 -0.7276
   34MOL    Cl9 4035   2.304   4.346   5.657 -0.1971 -0.0453  0.0639
   34MOL   Cl10 4036   2.379   4.167   5.857  0.6656  0.4466  0.0979
   34MOL    C11 4037   2.160   4.105   5.696  0.0004  0.2862 -0.0270
   34MOL    H12 4038   2.115   4.163   5.776  1.8452  0.4740  0.9074
   34MOL    H13 4039   2.108   4.135   5.605  1.1276 -0.4808 -0.9384
   34MOL    C14 4040   2.134   3.956   5.734  0.1291 -0.6822 -0.2672
   34MOL   Cl15 4041   2.177   3.838   5.595  0.1162  0.3553 -0.3771
   34MOL   Cl16 4042   1.956   3.942   5.746 -0.2222  0.0295 -0.1072
   34MOL    C17 4043   2.195   3.912   5.866 -0.3177 -0.1642  0.0187
   34MOL    H18 4044   2.302   3.910   5.847 -0.0418 -2.0506  1.5529
   34MOL    H19 4045   2.176   3.993   5.936  0.0275 -1.1903  1.3232
   34MOL    C20 4046   2.174   3.772   5.938  0.2921  0.1837 -0.6032
   34MOL   Cl21 4047   2.244   3.788   6.096  0.0595  0.0382 -0.0390
   34MOL   Cl22 4048   2.262   3.649   5.841  0.0513 -0.2376 -0.1275
   34MOL    C23 4049   2.027   3.729   5.947 -0.2996 -0.2635  0.9030
   34MOL    H24 4050   1.976   3.810   5.999 -0.4683 -0.5065  1.1181
   34MOL    H25 4051   1.986   3.729   5.846  0.0570  0.4366  0.7589
   34MOL    C26 4052   1.980   3.596   6.022 -0.7425 -0.2453 -0.4848
   34MOL   Cl27 4053   1.803   3.615   6.012 -0.0946  0.0707  0.0214
   34MOL   Cl28 4054   2.030   3.603   6.194  0.0492  0.2915 -0.1740
   34MOL    C29 4055   2.026   3.461   5.955 -1.2655 -0.2042 -0.1139
   34MOL    H30 4056   1.988   3.476   5.854 -2.5466  1.1834  0.5472
   34MOL    H31 4057   2.135   3.464   5.948 -1.0215  0.2242  3.2364
   34MOL    C32 4058   1.978   3.318   5.984  0.4957 -0.1908  0.3126
   34MOL   Cl33 4059   1.804   3.300   5.942  0.0018 -0.2796  0.0414
   34MOL   Cl34 4060   2.003   3.282   6.154 -0.0549  0.1173 -0.0095
   34MOL    C35 4061   2.040   3.210   5.896 -0.4054  0.6367  0.3469
   34MOL    H36 4062   1.987   3.126   5.939 -2.6772  1.3292 -1.0476
   34MOL    H37 4063   2.001   3.217   5.794  1.7393  0.7035 -0.5117
   34MOL    C38 4064   2.196   3.186   5.878  0.3553  0.3223  0.0024
   34MOL   Cl39 4065   2.274   3.189   6.031  0.0172  0.1016 -0.4297
   34MOL   Cl40 4066   2.259   3.319   5.778 -0.3979  0.1411  0.0612
   34MOL    C41 4067   2.207   3.039   5.821 -0.0801  0.2292 -0.2239
   34MOL    H42 4068   2.200   2.971   5.905  0.2920 -0.8070 -1.0122
   34MOL    H43 4069   2.120   3.014   5.761 -0.5677 -3.1334  1.7962
   34MOL    C44 4070   2.338   2.995   5.747  0.3032 -0.2597 -0.2430
   34MOL   Cl45 4071   2.327   3.065   5.586 -0.0098 -0.3897 -0.7219
   34MOL   Cl46 4072   2.322   2.826   5.723 -0.3993  0.5748 -0.1927
   34MOL    C47 4073   2.472   3.025   5.821 -0.4009  0.3037 -0.4621
   34MOL    H48 4074   2.477   3.119   5.877 -0.5954 -0.4938  0.9083
   34MOL    H49 4075   2.465   2.954   5.904  0.5531 -0.1819 -0.7831
   34MOL    C50 4076   2.614   3.014   5.749 -0.2669  0.2346  0.5885
   34MOL   Cl51 4077   2.622   2.858   5.669  0.0432 -0.3303  0.2891
   34MOL   Cl52 4078   2.721   3.003   5.890 -0.0231 -0.0698 -0.0538
   34MOL    C53 4079   2.646   3.135   5.657 -0.0330 -0.4264  0.5920
   34MOL    H54 4080   2.584   3.120   5.568 -1.8743 -1.1726  1.9583
   34MOL    H55 4081   2.603   3.223   5.705 -0.8341 -1.6538  2.1738
   34MOL    C56 4082   2.782   3.182   5.607  0.6600 -0.1581  0.8759
   34MOL   Cl57 4083   2.867   3.044   5.533  0.3935 -0.0799  0.4855
   34MOL   Cl58 4084   2.871   3.237   5.749 -0.2278 -0.0538  0.1897
   34MOL    C59 4085   2.776   3.293   5.497  0.0533  0.7482 -0.5946
   34MOL    H60 4086   2.879   3.321   5.473 -0.3268  1.8791 -0.9539
   34MOL    H61 4087   2.737   3.230   5.417 -1.7478 -1.5869  2.0503
   34MOL    C62 4088   2.690   3.423   5.505 -0.8876  0.3245  0.2354
   34MOL   Cl63 4089   2.716   3.495   5.667  0.3597  0.4111  0.1211
   34MOL   Cl64 4090   2.522   3.373   5.489  0.1094 -0.0397  0.1484
   34MOL    C65 4091   2.743   3.523   5.393 -0.4483  0.3775  0.7983
   34MOL    H66 4092   2.847   3.543   5.416 -0.6865  3.5120 -0.6205
   34MOL    H67 4093   2.739   3.456   5.308  0.3063 -0.1079  1.1463
   34MOL    C68 4094   2.667   3.655   5.353  0.0786  0.4003 -0.6167
   34MOL   Cl69 4095   2.691   3.764   5.495 -0.2593  0.2322 -0.2697
   34MOL   Cl70 4096   2.485   3.626   5.329 -0.1126  0.2612  0.4850
   34MOL    C71 4097   2.724   3.724   5.223  0.1020  0.6348 -0.6667
   34MOL    H72 4098   2.653   3.806   5.208 -0.7147  0.1199  0.3599
   34MOL    H73 4099   2.822   3.769   5.244  0.1305 -0.4374  1.5904
   34MOL    C74 4100   2.752   3.650   5.086  0.3243 -0.3402 -0.2112
   34MOL   Cl75 4101   2.608   3.564   5.028  0.2356  0.1734  0.2540
   34MOL   Cl76 4102   2.884   3.531   5.093 -0.5745  0.0460 -0.3575
   34MOL    C77 4103   2.805   3.747   4.981  0.2721  0.5870  0.8726
   34MOL    H78 4104   2.912   3.767   4.983  0.7236 -1.6237  0.3170
   34MOL    H79 4105   2.777   3.709   4.883 -2.4699 -0.8471  2.1638
   34MOL    C80 4106   2.741   3.888   4.956  0.5507  0.2021  0.3919
   34MOL   Cl81 4107   2.810   3.949   4.809 -0.2729  0.4317  0.0697
   34MOL   Cl82 4108   2.801   3.988   5.090  0.2491 -0.3354 -0.0787
   34MOL    C83 4109   2.586   3.888   4.947  0.1291  0.0856 -0.3540
   34MOL    H84 4110   2.544   3.793   4.912  2.0840 -0.3484 -1.6246
   34MOL    H85 4111   2.541   3.884   5.046  0.3396 -2.7360 -0.3201
   34MOL    C86 4112   2.509   4.008   4.867  0.4847  0.1805 -0.4584
   34MOL   Cl87 4113   2.332   3.974   4.898 -0.0898  0.0476  0.2065
   34MOL   Cl88 4114   2.531   3.985   4.698  0.0671  0.2736  0.0726
   34MOL    C89 4115   2.559   4.152   4.909 -0.4334  0.1624  0.5719
   34MOL    H90 4116   2.579   4.147   5.016  3.0904  0.7418 -0.0258
   34MOL    H91 4117   2.657   4.163   4.864 -0.5565  0.2007  0.3151
   34MOL    C92 4118   2.472   4.279   4.876 -0.0461  0.4544 -0.0140
   34MOL   Cl93 4119   2.347   4.313   4.998  0.1631 -0.2769 -0.2769
   34MOL   Cl94 4120   2.395   4.266   4.710 -0.0257 -0.7162 -0.1176
   34MOL    C95 4121   2.560   4.406   4.858 -0.2797 -0.2670  0.0009
   34MOL    H96 4122   2.636   4.379   4.784 -1.2165  0.0521 -1.0934
   34MOL    H97 4123   2.505   4.477   4.797  0.5450  0.0741 -0.3570
   34MOL    C98 4124   2.632   4.477   4.981 -0.2078 -0.7094  0.0892
   34MOL   Cl99 4125   2.750   4.597   4.921 -0.0314 -0.1905  0.2117
   34MOL  Cl100 4126   2.736   4.355   5.055 -0.1236 -0.2911 -0.4017
   34MOL   C101 4127   2.543   4.549   5.090  0.1834 -0.1214 -0.0032
   34MOL   H102 4128   2.485   4.469   5.135 -1.3437  1.2024  0.4328
   34MOL   H103 4129   2.615   4.588   5.162 -0.7278  3.7698 -1.0399
   34MOL   C104 4130   2.457   4.676   5.067 -0.0381  0.1943  0.0476
   34MOL  Cl105 4131   2.385   4.670   4.902  0.0389 -0.4710 -0.2780
   34MOL  Cl106 4132   2.542   4.829   5.082 -0.4431 -0.0027 -0.0827
   34MOL   C107 4133   2.330   4.673   5.151 -0.0398  0.5115 -0.0689
   34MOL   H108 4134   2.274   4.765   5.138  0.2547  0.7976  0.6325
   34MOL   H109 4135   2.258   4.599   5.116 -0.1733  1.1922 -1.2338
   34MOL   C110 4136   2.333   4.661   5.304 -0.1562 -1.0681 -0.5649
   34MOL  Cl111 4137   2.435   4.789   5.390 -0.0657 -0.0649 -0.2956
   34MOL  Cl112 4138   2.386   4.502   5.353  0.4768  0.2244  0.5760
   34MOL   C113 4139   2.189   4.682   5.368  0.1084 -0.0153 -0.0537
   34MOL   H114 4140   2.207   4.689   5.476 -2.6102  1.3496  0.3511
   34MOL   H115 4141   2.144   4.779   5.350 -0.5879 -0.2018  0.6190
   34MOL   C116 4142   2.076   4.580   5.341 -0.5560 -0.4155 -0.3204
   34MOL  Cl117 4143   1.999   4.611   5.184 -0.0298 -0.1237 -0.2383
   34MOL  Cl118 4144   1.959   4.603   5.474  0.1610 -0.0743  0.2421
   34MOL   C119 4145   2.106   4.432   5.329 -0.1281  0.4348  0.0002
   34MOL   H120 4146   2.162   4.385   5.410  1.1204  0.3430 -0.9013
   34MOL   H121 4147   2.010   4.380   5.325 -0.5339  1.2580 -0.9318
   34MOL   H122 4148   2.166   4.411   5.241  0.6883  1.0288  0.4094
   35MOL     C1 4149   2.219   4.982   4.862 -0.7046  0.4028 -0.0902
   35MOL    Cl2 4150   2.123   4.953   5.017 -0.3801  0.1132  0.2993
   35MOL    Cl3 4151   2.146   4.905   4.724 -0.0191  0.0124  0.0388
   35MOL     C4 4152   2.238   5.133   4.845 -0.1139 -0.2737  0.8102
   35MOL     H5 4153   2.261   5.141   4.738  0.2298  0.6604  0.9497
   35MOL     H6 4154   2.145   5.182   4.871  0.3980  1.5373 -0.6781
   35MOL     H7 4155   2.315   4.936   4.885  0.0219  1.9647  0.0323
   35MOL     C8 4156   2.360   5.198   4.917  0.0922 -0.1454 -0.0115
   35MOL    Cl9 4157   2.503   5.132   4.841 -0.0459  0.1023 -0.0208
   35MOL   Cl10 4158   2.357   5.155   5.090 -0.3447 -0.5138  0.0473
   35MOL    C11 4159   2.375   5.351   4.900  1.5381  0.0972 -0.3508
   35MOL    H12 4160   2.282   5.383   4.947  1.4548 -1.3011  0.4448
   35MOL    H13 4161   2.451   5.392   4.967  0.6372  0.2909  0.5614
   35MOL    C14 4162   2.395   5.416   4.762 -0.8047 -0.5494  0.2175
   35MOL   Cl15 4163   2.290   5.362   4.632  0.4523 -0.1906 -0.0070
   35MOL   Cl16 4164   2.563   5.391   4.705 -0.3770  0.2045 -0.0627
   35MOL    C17 4165   2.384   5.569   4.779  0.3558  0.2005  0.2799
   35MOL    H18 4166   2.478   5.611   4.816  0.0379  0.1070  1.1870
   35MOL    H19 4167   2.380   5.609   4.678 -1.2968 -0.6173  0.0030
   35MOL    C20 4168   2.262   5.640   4.844 -0.1802  0.4942 -0.8748
   35MOL   Cl21 4169   2.282   5.643   5.028 -0.0341 -0.3390 -0.2053
   35MOL   Cl22 4170   2.097   5.562   4.817  0.3005 -0.2070  0.7639
   35MOL    C23 4171   2.259   5.787   4.806 -0.8870  0.7658 -0.2329
   35MOL    H24 4172   2.236   5.851   4.891  2.1796  0.2931  0.9856
   35MOL    H25 4173   2.362   5.818   4.793  0.0575 -1.2562  2.1484
   35MOL    C26 4174   2.179   5.835   4.681 -0.2272 -0.1370  0.0056
   35MOL   Cl27 4175   2.005   5.848   4.724  0.4701 -0.1803 -0.2273
   35MOL   Cl28 4176   2.197   5.729   4.541  0.2006  0.2691  0.0469
   35MOL    C29 4177   2.207   5.990   4.635 -0.2768  0.6342 -0.1487
   35MOL    H30 4178   2.134   6.008   4.556  0.2783  2.8045 -0.1967
   35MOL    H31 4179   2.185   6.056   4.719  2.0167  0.3726  0.6874
   35MOL    C32 4180   2.345   6.031   4.565  0.3903  0.0700  0.3331
   35MOL   Cl33 4181   2.399   5.935   4.411 -0.4159 -0.1735 -0.0298
   35MOL   Cl34 4182   2.475   6.025   4.687  0.5754 -0.2968  0.5770
   35MOL    C35 4183   2.351   6.180   4.519 -0.4742  0.1056 -0.2666
   35MOL    H36 4184   2.388   6.238   4.603 -0.4229 -1.2282  0.6483
   35MOL    H37 4185   2.429   6.169   4.445  0.2740 -0.5441  0.6128
   35MOL    C38 4186   2.240   6.242   4.435 -0.0529 -0.7083  0.3495
   35MOL   Cl39 4187   2.084   6.258   4.525 -0.5172 -0.2217  0.2258
   35MOL   Cl40 4188   2.203   6.145   4.294 -0.0816  0.3725 -0.0415
   35MOL    C41 4189   2.271   6.399   4.385 -0.2127  0.6906 -0.7713
   35MOL    H42 4190   2.180   6.422   4.331 -1.8382 -1.9422  0.7114
   35MOL    H43 4191   2.277   6.446   4.483  0.3665  0.7243 -0.8179
   35MOL    C44 4192   2.395   6.441   4.305  0.9365  0.4351 -0.5745
   35MOL   Cl45 4193   2.412   6.347   4.156  0.1338  0.0118  0.1437
   35MOL   Cl46 4194   2.540   6.412   4.410  0.4725  0.4883 -0.2899
   35MOL    C47 4195   2.385   6.592   4.258  0.8745  0.1184  0.1020
   35MOL    H48 4196   2.484   6.609   4.217  0.7251 -1.4221 -0.9449
   35MOL    H49 4197   2.316   6.598   4.174  0.7432  1.8337  0.3200
   35MOL    C50 4198   2.353   6.710   4.346  0.0329  0.2677  0.3944
   35MOL   Cl51 4199   2.440   6.708   4.504  0.0736 -0.0626 -0.2779
   35MOL   Cl52 4200   2.179   6.693   4.380  0.6356  0.0056  0.3455
   35MOL    C53 4201   2.365   6.847   4.270 -1.2310 -0.6405  0.4024
   35MOL    H54 4202   2.277   6.856   4.207 -1.0442 -2.5584 -0.1852
   35MOL    H55 4203   2.357   6.916   4.354  1.8381 -0.3714  0.5159
   35MOL    C56 4204   2.495   6.886   4.188  0.7998 -0.3134 -0.0571
   35MOL   Cl57 4205   2.504   6.798   4.030 -0.1408  0.1823  0.6514
   35MOL   Cl58 4206   2.646   6.851   4.280 -0.0227  0.3099  0.3453
   35MOL    C59 4207   2.493   7.042   4.180 -0.0296  0.1907  0.2750
   35MOL    H60 4208   2.391   7.073   4.200 -0.3156  0.6089 -1.8110
   35MOL    H61 4209   2.552   7.081   4.263 -0.5904  0.4373  0.5620
   35MOL    C62 4210   2.549   7.124   4.059  0.0285 -1.2751  0.1111
   35MOL   Cl63 4211   2.712   7.073   4.019 -0.5600  0.2405 -0.4085
   35MOL   Cl64 4212   2.557   7.301   4.098  0.5137  0.0803  0.5230
   35MOL    C65 4213   2.470   7.113   3.922  0.8834 -0.1608 -0.4920
   35MOL    H66 4214   2.510   7.185   3.851 -1.8033  0.7271 -1.1285
   35MOL    H67 4215   2.490   7.012   3.886  1.5626 -0.7097  1.3881
   35MOL    C68 4216   2.324   7.132   3.919 -0.1368 -0.1045  0.1853
   35MOL   Cl69 4217   2.282   7.301   3.966  0.3124  0.0657 -0.1708
   35MOL   Cl70 4218   2.227   7.030   4.022 -0.5457  0.3119 -0.0930
   35MOL    C71 4219   2.258   7.116   3.773  0.4787  0.4334  0.3145
   35MOL    H72 4220   2.150   7.102   3.787  0.3415  1.9555  0.9035
   35MOL    H73 4221   2.257   7.216   3.729 -1.1578  1.1950  2.0089
   35MOL    C74 4222   2.308   7.002   3.676 -0.5486  0.6247  0.0684
   35MOL   Cl75 4223   2.325   6.843   3.753  0.1379 -0.3370  0.2466
   35MOL   Cl76 4224   2.467   7.047   3.605  0.3080  0.0075 -0.2910
   35MOL    C77 4225   2.207   6.977   3.561 -0.1997  0.1626  0.2725
   35MOL    H78 4226   2.268   6.924   3.487 -3.5034 -0.9651 -1.7679
   35MOL    H79 4227   2.146   6.894   3.597 -0.3970  0.1046 -0.1887
   35MOL    C80 4228   2.138   7.087   3.476 -0.1249 -0.5480 -0.2956
   35MOL   Cl81 4229   2.249   7.208   3.430 -0.2673 -0.0234 -0.2698
   35MOL   Cl82 4230   2.022   7.171   3.576  0.1321 -0.0374 -0.2859
   35MOL    C83 4231   2.076   7.035   3.342 -0.1708  0.1248 -0.4892
   35MOL    H84 4232   2.031   7.120   3.291  0.6268  0.0235 -1.3814
   35MOL    H85 4233   2.160   7.026   3.272  0.1509  1.9707 -0.3911
   35MOL    C86 4234   1.995   6.899   3.325  0.0490  0.4626  0.5008
   35MOL   Cl87 4235   1.866   6.893   3.449 -0.2038 -0.1628 -0.0711
   35MOL   Cl88 4236   2.094   6.755   3.350 -0.0363 -0.3119  0.1860
   35MOL    C89 4237   1.918   6.890   3.184  0.3566 -0.6621  0.6007
   35MOL    H90 4238   1.884   6.787   3.189  1.8104 -1.1490  0.7935
   35MOL    H91 4239   1.830   6.953   3.199  1.0836  0.0992  1.8072
   35MOL    C92 4240   1.995   6.915   3.049  0.5106 -0.6552  0.4005
   35MOL   Cl93 4241   2.151   6.825   3.054  0.0250 -0.0710  0.1362
   35MOL   Cl94 4242   2.019   7.090   3.032 -0.1770  0.0388  0.6528
   35MOL    C95 4243   1.905   6.862   2.930 -0.4797 -0.2230  0.1199
   35MOL    H96 4244   1.901   6.753   2.934  3.1529 -0.4906 -1.0174
   35MOL    H97 4245   1.805   6.904   2.937 -0.6103 -0.6610  0.8651
   35MOL    C98 4246   1.928   6.874   2.776  0.6095  0.8413 -0.1686
   35MOL   Cl99 4247   1.897   7.047   2.741 -0.1747 -0.1620  0.1778
   35MOL  Cl100 4248   1.801   6.782   2.692  0.2061  0.2591 -0.6601
   35MOL   C101 4249   2.074   6.821   2.742  0.7506  0.1030  0.0600
   35MOL   H102 4250   2.144   6.891   2.787  1.0933  0.6775 -1.3279
   35MOL   H103 4251   2.082   6.724   2.790  2.1809  0.9724  1.6548
   35MOL   C104 4252   2.123   6.797   2.600 -0.9191 -0.5749 -0.4789
   35MOL  Cl105 4253   2.052   6.643   2.557 -0.0163  0.0958 -0.2638
   35MOL  Cl106 4254   2.306   6.783   2.617  0.1005 -0.1234  0.2722
   35MOL   C107 4255   2.080   6.909   2.498 -0.7128  0.1524  0.7975
   35MOL   H108 4256   1.972   6.905   2.486 -0.5877  2.6533 -1.7818
   35MOL   H109 4257   2.109   7.010   2.528 -1.4553  0.9418 -1.0601
   35MOL   C110 4258   2.142   6.901   2.353  0.0833 -0.1591 -0.0045
   35MOL  Cl111 4259   2.084   6.747   2.281 -0.3104 -0.3543 -0.1287
   35MOL  Cl112 4260   2.320   6.908   2.340  0.1712 -0.0277  0.1857
   35MOL   C113 4261   2.107   7.010   2.246 -0.4617 -0.0630 -0.3900
   35MOL   H114 4262   2.176   7.094   2.254  0.9155 -1.2388  0.3081
   35MOL   H115 4263   2.127   6.983   2.143 -0.4447 -0.4267 -0.2910
   35MOL   C116 4264   1.963   7.073   2.244  0.2276  0.3154  0.6214
   35MOL  Cl117 4265   1.927   7.176   2.395  0.0150 -0.1083  0.6466
   35MOL  Cl118 4266   1.838   6.951   2.237  0.3613 -0.1200 -0.2879
   35MOL   C119 4267   1.939   7.163   2.123 -0.0411 -0.4973 -0.0426
   35MOL   H120 4268   2.027   7.225   2.106  0.2748 -0.9456 -0.0616
   35MOL   H121 4269   1.929   7.107   2.029 -2.1458  0.7774 -0.6110
   35MOL   H122 4270   1.845   7.218   2.119 -0.2671 -0.9206 -0.7737
   36MOL     C1 4271   9.021   7.852   3.117  0.3384  0.0818  0.1746
   36MOL    Cl2 4272   8.862   7.833   3.197  0.0696 -0.2819  0.0146
   36MOL    Cl3 4273   9.037   7.775   2.955 -0.7400 -0.0086 -0.1332
   36MOL     C4 4274   9.049   7.997   3.106 -0.2892 -0.1334 -0.0164
   36MOL     H5 4275   9.122   8.003   3.026 -0.7151 -0.7936 -0.4577
   36MOL     H6 4276   8.967   8.053   3.061 -1.7038 -3.4887 -1.8077
   36MOL     H7 4277   9.075   7.800   3.196 -3.0306 -3.1059  0.4994
   36MOL     C8 4278   9.107   8.070   3.227 -0.4536 -0.4832 -0.3286
   36MOL    Cl9 4279   9.129   8.240   3.184  0.2004 -0.0066  0.4726
   36MOL   Cl10 4280   0.092   8.007   3.254  0.1747  0.3143 -0.2041
   36MOL    C11 4281   9.030   8.048   3.360 -0.2367  0.1170  0.2046
   36MOL    H12 4282   8.921   8.053   3.350 -0.1531 -0.1200 -0.9493
   36MOL    H13 4283   9.048   7.948   3.399 -0.1509  0.2683  0.5542
   36MOL    C14 4284   9.062   8.135   3.482  0.6835 -0.3083  0.3788
   36MOL   Cl15 4285   8.974   8.061   3.612 -0.0464  0.1710 -0.1541
   36MOL   Cl16 4286   8.974   8.288   3.460  0.1724 -0.3567  0.0591
   36MOL    C17 4287   0.029   8.155   3.521 -0.2632 -0.3921  0.4918
   36MOL    H18 4288   0.082   8.061   3.513  2.1694  0.9771  0.1946
   36MOL    H19 4289   0.076   8.214   3.442 -1.1206  0.3551  0.5274
   36MOL    C20 4290   0.071   8.209   3.665 -0.4261  0.2337  0.0619
   36MOL   Cl21 4291   0.239   8.268   3.653 -0.1783 -0.1352  0.0610
   36MOL   Cl22 4292   0.071   8.067   3.775  0.4787 -0.1601 -0.4173
   36MOL    C23 4293   9.137   8.313   3.728  0.1433  0.1032  0.4667
   36MOL    H24 4294   9.122   8.390   3.653 -0.4630  0.2142  0.6996
   36MOL    H25 4295   9.044   8.257   3.741  0.5388 -0.5995  0.2827
   36MOL    C26 4296   9.157   8.386   3.866 -0.6258  0.0933  0.0507
   36MOL   Cl27 4297   9.020   8.488   3.859  0.2588 -0.0324 -0.0535
   36MOL   Cl28 4298   0.127   8.489   3.869 -0.2073  0.0050 -0.0059
   36MOL    C29 4299   9.166   8.292   3.989 -0.0199  0.5664  0.5980
   36MOL    H30 4300   9.102   8.207   3.969  0.6914  0.1442  0.0887
   36MOL    H31 4301   0.088   8.254   3.984 -0.1548  0.4300 -1.5585
   36MOL    C32 4302   9.115   8.324   4.134 -0.9699  0.4791 -0.1387
   36MOL   Cl33 4303   9.157   8.180   4.225  0.6044  0.1213 -0.3668
   36MOL   Cl34 4304   8.935   8.350   4.134 -0.1167 -0.0254  0.0640
   36MOL    C35 4305   0.016   8.437   4.193 -0.4766 -0.3361 -0.6018
   36MOL    H36 4306   0.122   8.414   4.180 -0.8285 -2.0465 -0.4574
   36MOL    H37 4307   0.014   8.526   4.130 -1.5331 -0.5679 -0.9015
   36MOL    C38 4308   0.005   8.475   4.348  0.0466  0.2667 -0.2791
   36MOL   Cl39 4309   0.104   8.620   4.383  0.6070 -0.0721 -0.0140
   36MOL   Cl40 4310   0.094   8.355   4.456  0.0524 -0.1227 -0.0015
   36MOL    C41 4311   9.045   8.497   4.412 -0.0027  0.5326  0.4009
   36MOL    H42 4312   8.986   8.412   4.375  1.8355 -2.0248  3.1773
   36MOL    H43 4313   9.056   8.477   4.518 -0.8126  1.1902  0.6210
   36MOL    C44 4314   8.954   8.624   4.393 -0.2374 -0.0655 -0.3918
   36MOL   Cl45 4315   8.789   8.558   4.425  0.0994  0.6960 -0.4252
   36MOL   Cl46 4316   8.950   8.681   4.225 -0.2817 -0.2647  0.4556
   36MOL    C47 4317   8.992   8.733   4.495  0.1986 -0.2348  0.4841
   36MOL    H48 4318   9.018   8.684   4.589  3.8194 -0.0739 -0.3940
   36MOL    H49 4319   9.080   8.773   4.445 -0.7088  0.4838 -0.5491
   36MOL    C50 4320   8.903   8.868   4.527 -0.2710  0.2946 -0.2137
   36MOL   Cl51 4321   8.758   8.813   4.608 -0.0043 -0.0050 -0.2621
   36MOL   Cl52 4322   8.865   8.937   4.379 -0.0106 -0.0274 -0.7763
   36MOL    C53 4323   8.978   8.976   4.618  0.4349  0.7848 -0.0854
   36MOL    H54 4324   9.034   8.919   4.692 -0.8393 -0.6315 -0.1820
   36MOL    H55 4325   9.061   9.007   4.554  0.0818 -0.4154 -1.1561
   36MOL    C56 4326   8.899   9.095   4.682 -0.0557 -0.4087  0.8741
   36MOL   Cl57 4327   9.022   0.024   4.754 -0.5859 -0.4072 -0.1675
   36MOL   Cl58 4328   8.805   9.032   4.821 -0.4109 -0.3474 -0.0984
   36MOL    C59 4329   8.810   0.005   4.586  0.6898  1.1141 -0.3545
   36MOL    H60 4330   8.859   0.011   4.489  0.0133  1.1161 -0.6995
   36MOL    H61 4331   8.721   9.128   4.563 -1.2873  3.2767  1.5452
   36MOL    C62 4332   8.763   0.142   4.631  0.0721  0.3731 -0.5417
   36MOL   Cl63 4333   8.627   0.180   4.527  0.3656  0.0656  0.0367
   36MOL   Cl64 4334   8.882   0.265   4.592 -0.1504 -0.8402  0.1830
   36MOL    C65 4335   8.716   0.149   4.785  0.3741 -0.0306  0.0626
   36MOL    H66 4336   8.646   0.067   4.804  1.0983 -0.7729 -0.4153
   36MOL    H67 4337   8.793   0.114   4.855  0.1324 -0.5377  0.0742
   36MOL    C68 4338   8.660   0.282   4.855  0.3330  0.0938  0.2355
   36MOL   Cl69 4339   8.805   0.376   4.900  0.2457 -0.1051 -0.6818
   36MOL   Cl70 4340   8.578   0.216   5.003  0.1948 -0.0133  0.0809
   36MOL    C71 4341   8.573   0.362   4.751  0.2071  0.6972  0.1049
   36MOL    H72 4342   8.631   0.404   4.669 -0.3895  3.6893  1.1423
   36MOL    H73 4343   8.495   0.295   4.713 -0.7146  0.9718  1.4692
   36MOL    C74 4344   8.483   0.477   4.807  0.1056  0.3456  0.2025
   36MOL   Cl75 4345   8.573   0.584   4.924  0.1961  0.1090  0.2690
   36MOL   Cl76 4346   8.347   0.397   4.887 -0.2581 -0.0845  0.1518
   36MOL    C77 4347   8.438   0.585   4.704 -0.5220 -0.1629 -0.0590
   36MOL    H78 4348   8.400   0.673   4.755 -3.2223 -2.2888  1.8044
   36MOL    H79 4349   8.530   0.625   4.661  0.3828  0.8238  2.7053
   36MOL    C80 4350   8.330   0.564   4.591 -0.2831  0.0965 -0.0205
   36MOL   Cl81 4351   8.168   0.569   4.669 -0.2395  0.2484  0.2467
   36MOL   Cl82 4352   8.340   0.405   4.518  0.3165  0.1297 -0.1366
   36MOL    C83 4353   8.326   0.682   4.488  0.8028  0.0239  1.0311
   36MOL    H84 4354   8.274   0.649   4.398  2.0021  1.7245 -0.3235
   36MOL    H85 4355   8.279   0.768   4.535  1.7701  1.1680 -0.0444
   36MOL    C86 4356   8.462   0.740   4.426  0.3159 -0.5561 -0.4969
   36MOL   Cl87 4357   8.584   0.619   4.396 -0.1911  0.1606  0.5225
   36MOL   Cl88 4358   8.545   0.845   4.543  0.5512 -0.0800 -0.1124
   36MOL    C89 4359   8.443   0.806   4.286 -0.2900  0.1729  0.3624
   36MOL    H90 4360   8.544   0.833   4.256 -0.4153  2.1722  1.6727
   36MOL    H91 4361   8.416   0.733   4.210  0.0312  1.1700 -0.7225
   36MOL    C92 4362   8.350   0.927   4.270  0.0076 -0.0205 -0.6132
   36MOL   Cl93 4363   8.366   1.057   4.390  0.3355  0.0288 -0.2187
   36MOL   Cl94 4364   8.175   0.888   4.278  0.3201  0.1925  0.3630
   36MOL    C95 4365   8.372   0.998   4.138  0.8178  0.3514  0.1636
   36MOL    H96 4366   8.303   1.081   4.119 -0.2698 -0.3243  1.1103
   36MOL    H97 4367   8.469   1.047   4.149  1.0500  0.2363 -1.1918
   36MOL    C98 4368   8.364   0.919   4.004  0.9192 -0.1663 -0.3765
   36MOL   Cl99 4369   8.503   0.809   3.993 -0.1946  0.1883 -0.2448
   36MOL  Cl100 4370   8.377   1.048   3.871  0.5317 -0.3195 -0.2932
   36MOL   C101 4371   8.232   0.834   3.980 -0.6144 -0.3994 -0.0155
   36MOL   H102 4372   8.241   0.755   4.055  1.9546 -0.6890 -0.5589
   36MOL   H103 4373   8.144   0.892   4.008  0.0942  2.0645 -2.6560
   36MOL   C104 4374   8.201   0.772   3.844 -0.1879  0.1150  0.0332
   36MOL  Cl105 4375   8.135   0.606   3.883 -0.3052  0.0048  0.2759
   36MOL  Cl106 4376   8.338   0.758   3.727  0.5602  0.2480  0.0936
   36MOL   C107 4377   8.095   0.859   3.770  0.7591  0.3391  0.1708
   36MOL   H108 4378   8.121   0.964   3.783  0.5834  0.2551  1.2643
   36MOL   H109 4379   8.113   0.850   3.663  0.1124 -0.0146  0.0914
   36MOL   C110 4380   7.943   0.831   3.795 -0.0327 -0.5155 -1.2670
   36MOL  Cl111 4381   7.901   0.812   3.971  0.0193 -0.3037 -0.0998
   36MOL  Cl112 4382   7.900   0.689   3.691  0.2284  0.1930  0.3387
   36MOL   C113 4383   7.867   0.955   3.743 -0.0056 -0.2624  0.7103
   36MOL   H114 4384   7.905   1.033   3.808  1.4228  0.9974 -1.5730
   36MOL   H115 4385   7.912   0.967   3.644 -0.3714  1.5304  0.7430
   36MOL   C116 4386   7.712   0.974   3.743  0.3237  0.3491 -0.9713
   36MOL  Cl117 4387   7.671   1.119   3.645 -0.1481  0.0238  0.3074
   36MOL  Cl118 4388   7.640   1.009   3.902  0.7541  0.0904 -0.2887
   36MOL   C119 4389   7.640   0.860   3.673  0.0360  0.6575 -0.0266
   36MOL   H120 4390   7.683   0.834   3.576 -0.4940 -0.9752  0.1588
   36MOL   H121 4391   7.653   0.774   3.739  0.5079  1.7420  1.3171
   36MOL   H122 4392   7.533   0.878   3.664 -0.2880 -0.9717  0.3620
   37MOL     C1 4393   8.159   4.432   2.292 -0.4865 -0.0228 -0.3193
   37MOL    Cl2 4394   8.072   4.581   2.331 -0.0847  0.0027  0.2648
   37MOL    Cl3 4395   8.313   4.480   2.222 -0.0255 -0.0799 -0.0583
   37MOL     C4 4396   8.181   4.341   2.406  0.0715  1.0900  0.5528
   37MOL     H5 4397   8.252   4.266   2.374 -2.8815 -0.8633 -1.6403
   37MOL     H6 4398   8.223   4.392   2.493  2.4417 -2.3223  1.5163
   37MOL     H7 4399   8.103   4.384   2.212 -0.4254  0.1426 -0.4606
   37MOL     C8 4400   8.061   4.257   2.466  0.6924  0.3478 -0.2098
   37MOL    Cl9 4401   8.127   4.154   2.590  0.1214  0.0398  0.1596
   37MOL   Cl10 4402   7.996   4.148   2.343  0.2436 -0.4099  0.1812
   37MOL    C11 4403   7.950   4.350   2.530  0.3853  0.0480  0.5301
   37MOL    H12 4404   7.996   4.426   2.592  1.1334  1.6093 -1.8867
   37MOL    H13 4405   7.910   4.405   2.445  0.3576 -1.1896 -0.2770
   37MOL    C14 4406   7.821   4.313   2.602 -0.1695 -0.1738  0.5878
   37MOL   Cl15 4407   7.840   4.176   2.716  0.3253 -0.0914 -0.3565
   37MOL   Cl16 4408   7.699   4.260   2.484  0.3052 -0.2519 -0.3520
   37MOL    C17 4409   7.756   4.425   2.686 -0.1792 -0.1750 -0.8979
   37MOL    H18 4410   7.659   4.389   2.720  0.7724 -1.6098  0.3836
   37MOL    H19 4411   7.804   4.435   2.784 -0.9101 -1.6198 -0.3783
   37MOL    C20 4412   7.721   4.577   2.633 -0.2744 -0.3210 -0.2855
   37MOL   Cl21 4413   7.875   4.664   2.617  0.4604 -0.4274 -0.1717
   37MOL   Cl22 4414   7.625   4.661   2.765 -0.0025  0.1614 -0.1573
   37MOL    C23 4415   7.640   4.578   2.504 -0.7297 -0.2132 -0.2901
   37MOL    H24 4416   7.713   4.530   2.439 -0.3387  0.8290 -0.6370
   37MOL    H25 4417   7.562   4.506   2.528 -0.1062 -0.5050  0.9280
   37MOL    C26 4418   7.580   4.708   2.437 -0.5208  0.0270 -0.2107
   37MOL   Cl27 4419   7.448   4.780   2.533  0.0444  0.1979  0.0643
   37MOL   Cl28 4420   7.514   4.645   2.290  0.2960  0.0206  0.0243
   37MOL    C29 4421   7.681   4.829   2.421 -0.1605 -1.1071  0.7051
   37MOL    H30 4422   7.693   4.869   2.521 -1.1905  2.9984 -0.6916
   37MOL    H31 4423   7.774   4.777   2.396 -0.0496 -0.6085  0.0472
   37MOL    C32 4424   7.672   4.946   2.313 -0.9290  0.3643  0.2339
   37MOL   Cl33 4425   7.509   4.998   2.298  0.0593  0.2050  0.4263
   37MOL   Cl34 4426   7.710   4.871   2.158  0.0773  0.1259 -0.0176
   37MOL    C35 4427   7.755   5.079   2.319  0.4284  0.2749 -0.4947
   37MOL    H36 4428   7.855   5.054   2.284  0.5285  1.6542 -1.2658
   37MOL    H37 4429   7.718   5.158   2.253 -0.1225 -0.7384 -1.4310
   37MOL    C38 4430   7.762   5.142   2.460  0.2254  0.4635  0.0090
   37MOL   Cl39 4431   7.887   5.046   2.557 -0.4776 -0.2323  0.3781
   37MOL   Cl40 4432   7.609   5.143   2.551 -0.4193 -0.1116 -0.0266
   37MOL    C41 4433   7.803   5.292   2.457  0.2205  0.5409 -0.1734
   37MOL    H42 4434   7.712   5.344   2.429 -0.8800 -0.9856  0.4802
   37MOL    H43 4435   7.810   5.329   2.560  0.8861  2.1715 -0.7871
   37MOL    C44 4436   7.928   5.353   2.380 -0.4319  0.2061  0.3007
   37MOL   Cl45 4437   7.898   5.341   2.208 -0.4728 -0.2339  0.3995
   37MOL   Cl46 4438   8.070   5.269   2.420  0.4276 -0.3706  0.3130
   37MOL    C47 4439   7.947   5.504   2.416 -0.6152 -0.1700 -0.0067
   37MOL    H48 4440   7.858   5.550   2.373 -0.5655 -0.2153 -0.1598
   37MOL    H49 4441   7.921   5.512   2.521 -0.0877 -0.2656  0.1330
   37MOL    C50 4442   8.075   5.589   2.388 -0.2660  0.5054  0.3874
   37MOL   Cl51 4443   8.214   5.545   2.487  0.5326 -0.1004  0.2261
   37MOL   Cl52 4444   8.023   5.758   2.424 -0.0322 -0.2123 -0.5412
   37MOL    C53 4445   8.105   5.591   2.234 -0.6035  0.1806  0.4365
   37MOL    H54 4446   8.110   5.485   2.209  0.0643  0.1260  0.8113
   37MOL    H55 4447   8.016   5.633   2.185 -0.6074 -0.2819  0.0464
   37MOL    C56 4448   8.225   5.670   2.173  0.3192  0.3553 -0.2066
   37MOL   Cl57 4449   8.197   5.660   1.999  0.1554 -0.0365  0.0282
   37MOL   Cl58 4450   8.370   5.575   2.198  0.2183 -0.0550 -0.0862
   37MOL    C59 4451   8.252   5.816   2.214 -0.4106  0.4080  0.2482
   37MOL    H60 4452   8.153   5.862   2.209 -0.9518 -0.9222 -2.1239
   37MOL    H61 4453   8.285   5.804   2.317 -2.5055 -0.0720  0.8942
   37MOL    C62 4454   8.339   5.912   2.131 -1.1401 -0.6361 -0.2010
   37MOL   Cl63 4455   8.262   5.958   1.980  0.0172  0.0476 -0.3029
   37MOL   Cl64 4456   8.503   5.843   2.087  0.4802  0.1287 -0.1506
   37MOL    C65 4457   8.377   6.037   2.212 -0.3278 -0.4260  1.1717
   37MOL    H66 4458   8.448   6.005   2.288  0.3029  0.2290  0.8605
   37MOL    H67 4459   8.434   6.100   2.143 -0.2744  0.2532  1.8304
   37MOL    C68 4460   8.271   6.124   2.282  0.8548  0.2877 -0.1933
   37MOL   Cl69 4461   8.205   6.052   2.437 -0.0459 -0.0997  0.3013
   37MOL   Cl70 4462   8.121   6.148   2.186  0.0344  0.1583 -0.1693
   37MOL    C71 4463   8.319   6.263   2.322  0.0458  0.3452  0.1491
   37MOL    H72 4464   8.332   6.318   2.229  1.7309  2.6133  1.6790
   37MOL    H73 4465   8.238   6.308   2.379 -0.9120  1.2470 -1.8794
   37MOL    C74 4466   8.442   6.286   2.415  0.3058 -0.0048 -0.2328
   37MOL   Cl75 4467   8.421   6.456   2.456  0.0539 -0.0265 -0.0353
   37MOL   Cl76 4468   8.585   6.257   2.318 -0.0965  0.0167 -0.2839
   37MOL    C77 4469   8.447   6.215   2.549  0.1450  0.4507 -0.8183
   37MOL    H78 4470   8.353   6.224   2.605 -0.5815 -0.4454 -1.8704
   37MOL    H79 4471   8.444   6.108   2.528  1.7636  0.8624 -3.2558
   37MOL    C80 4472   8.565   6.241   2.658 -0.2970  0.0197  0.5946
   37MOL   Cl81 4473   8.561   6.404   2.714  0.0161 -0.2474  0.1332
   37MOL   Cl82 4474   8.731   6.205   2.590 -0.1180  0.0753 -0.2668
   37MOL    C83 4475   8.546   6.161   2.786  0.5340  0.4834  0.0278
   37MOL    H84 4476   8.642   6.176   2.837 -0.2398 -1.9072  2.3763
   37MOL    H85 4477   8.462   6.207   2.837 -0.4296 -0.6788 -0.4777
   37MOL    C86 4478   8.513   6.009   2.777 -0.3158  0.3959 -0.7522
   37MOL   Cl87 4479   8.341   5.991   2.735 -0.3822  0.4133  0.3673
   37MOL   Cl88 4480   8.532   5.949   2.944  0.3065  0.1953 -0.1867
   37MOL    C89 4481   8.614   5.925   2.692 -0.2430  0.1220  0.0024
   37MOL    H90 4482   8.643   5.985   2.606 -0.3349 -0.2081 -0.2577
   37MOL    H91 4483   8.702   5.922   2.757  0.1987 -1.0808 -0.6516
   37MOL    C92 4484   8.597   5.780   2.636 -0.2781 -0.6246 -0.0206
   37MOL   Cl93 4485   8.470   5.785   2.508 -0.0171  0.2463  0.1720
   37MOL   Cl94 4486   8.537   5.670   2.765  0.2432  0.1094 -0.3955
   37MOL    C95 4487   8.723   5.725   2.563 -0.2790 -0.2733  0.8487
   37MOL    H96 4488   8.729   5.787   2.474 -2.1337 -3.8655 -1.8591
   37MOL    H97 4489   8.812   5.744   2.623  1.2504 -1.3001 -1.0685
   37MOL    C98 4490   8.747   5.575   2.539 -0.2891 -0.1984  0.0428
   37MOL   Cl99 4491   8.804   5.513   2.694  0.0954 -0.1694 -0.2183
   37MOL  Cl100 4492   8.886   5.568   2.442  0.0230 -0.0165  0.1622
   37MOL   C101 4493   8.630   5.503   2.472 -0.3058 -0.5196 -0.3206
   37MOL   H102 4494   8.544   5.535   2.530 -0.8806  1.0824 -1.9997
   37MOL   H103 4495   8.596   5.544   2.377  2.1474  0.9168 -0.6211
   37MOL   C104 4496   8.631   5.348   2.453 -0.0574 -0.1044 -0.5890
   37MOL  Cl105 4497   8.604   5.280   2.617 -0.0509 -0.0487 -0.4183
   37MOL  Cl106 4498   8.786   5.287   2.396  0.8125  0.1396 -0.1365
   37MOL   C107 4499   8.520   5.319   2.346  0.3746  0.4926  0.4821
   37MOL   H108 4500   8.432   5.376   2.375 -0.6901 -0.8836  0.0227
   37MOL   H109 4501   8.565   5.364   2.257  1.3763 -1.8253 -0.2451
   37MOL   C110 4502   8.467   5.175   2.307 -0.1649  0.4383  0.6956
   37MOL  Cl111 4503   8.593   5.078   2.235 -0.1935 -0.2870  0.5054
   37MOL  Cl112 4504   8.353   5.208   2.176  0.2348  0.1407  0.2560
   37MOL   C113 4505   8.400   5.098   2.428 -0.1841 -0.7124  0.7783
   37MOL   H114 4506   8.483   5.083   2.498  0.7372  1.8711  0.3123
   37MOL   H115 4507   8.327   5.162   2.477  1.2966  0.4860  1.4588
   37MOL   C116 4508   8.332   4.959   2.401 -0.3178 -0.1549  0.3393
   37MOL  Cl117 4509   8.255   4.906   2.558 -0.0924 -0.1170  0.6533
   37MOL  Cl118 4510   8.456   4.844   2.378  0.1829  0.0113  0.1664
   37MOL   C119 4511   8.224   4.953   2.302  0.1932  0.4210 -0.4189
   37MOL   H120 4512   8.189   4.850   2.301 -1.9122  1.0766  1.2497
   37MOL   H121 4513   8.145   5.024   2.326 -0.3812 -1.2026  2.8411
   37MOL   H122 4514   8.251   4.966   2.197  3.0909 -2.8019 -0.1594
   38MOL     C1 4515   3.538   4.498   1.204 -0.2568  0.1174 -0.7030
   38MOL    Cl2 4516   3.502   4.648   1.117 -0.4191  0.0316 -0.1967
   38MOL    Cl3 4517   3.544   4.380   1.068  0.0970  0.1397  0.0701
   38MOL     C4 4518   3.670   4.506   1.282  0.0795 -0.5029 -0.5908
   38MOL     H5 4519   3.740   4.502   1.198  0.1067 -0.7720 -0.5543
   38MOL     H6 4520   3.680   4.605   1.327  1.1934 -1.0742  0.4293
   38MOL     H7 4521   3.463   4.479   1.280  0.0674 -0.4415 -0.5190
   38MOL     C8 4522   3.712   4.405   1.386  0.4058 -0.0875 -0.0620
   38MOL    Cl9 4523   3.679   4.237   1.333  0.0367  0.0130  0.2738
   38MOL   Cl10 4524   3.619   4.434   1.539  0.3090 -0.0401  0.1708
   38MOL    C11 4525   3.857   4.413   1.439  0.0559  0.7039 -0.5924
   38MOL    H12 4526   3.859   4.476   1.528  1.5053 -0.3986  0.1712
   38MOL    H13 4527   3.879   4.315   1.479  1.1754  1.1915 -0.0053
   38MOL    C14 4528   3.972   4.462   1.342  0.3165 -0.1811 -0.8609
   38MOL   Cl15 4529   3.953   4.640   1.306 -0.0541 -0.2067  0.0163
   38MOL   Cl16 4530   3.965   4.375   1.182 -0.1367  0.2162  0.0563
   38MOL    C17 4531   4.121   4.437   1.398  0.1165  0.5429 -0.6460
   38MOL    H18 4532   4.140   4.330   1.385 -0.4138  0.2728  0.6574
   38MOL    H19 4533   4.190   4.497   1.339  3.3205 -1.0327  1.2888
   38MOL    C20 4534   4.157   4.463   1.551 -0.3100  0.1158  0.5437
   38MOL   Cl21 4535   4.326   4.423   1.579 -0.0039  0.0744  0.1474
   38MOL   Cl22 4536   4.068   4.346   1.651  0.1993  0.1225  0.1198
   38MOL    C23 4537   4.123   4.605   1.612 -0.7572  0.3074 -0.3591
   38MOL    H24 4538   4.023   4.639   1.587 -0.7896 -0.5567 -1.4266
   38MOL    H25 4539   4.117   4.597   1.721 -1.0291 -0.6399 -0.4390
   38MOL    C26 4540   4.210   4.733   1.589  0.2397  0.2447 -0.9195
   38MOL   Cl27 4541   4.093   4.860   1.646  0.1125 -0.2511 -0.2995
   38MOL   Cl28 4542   4.254   4.762   1.420  0.0245 -0.0671 -0.4989
   38MOL    C29 4543   4.335   4.744   1.680 -0.1581  0.5771 -0.1468
   38MOL    H30 4544   4.307   4.729   1.784  0.9507 -1.1859 -0.0892
   38MOL    H31 4545   4.393   4.655   1.657  0.7666  1.5634 -1.7252
   38MOL    C32 4546   4.441   4.864   1.682  1.4491  0.5845  0.0110
   38MOL   Cl33 4547   4.548   4.841   1.535  0.3241 -0.1725 -0.2211
   38MOL   Cl34 4548   4.537   4.853   1.832 -0.1765 -0.3543  0.0187
   38MOL    C35 4549   4.375   5.007   1.662  0.1789 -0.8540  0.6602
   38MOL    H36 4550   4.366   4.993   1.554  0.4689  0.9855  0.3789
   38MOL    H37 4551   4.275   5.020   1.705  1.3856  3.2409  2.4891
   38MOL    C38 4552   4.463   5.135   1.687 -0.6616  0.8920  0.5606
   38MOL   Cl39 4553   4.439   5.187   1.857  0.1642 -0.0004 -0.1392
   38MOL   Cl40 4554   4.379   5.266   1.600  0.2424 -0.1253  0.1227
   38MOL    C41 4555   4.609   5.137   1.641 -0.3873  0.2065  0.2218
   38MOL    H42 4556   4.663   5.055   1.687 -0.2441 -0.7320 -1.5918
   38MOL    H43 4557   4.613   5.124   1.533  3.0396  2.0877  0.0469
   38MOL    C44 4558   4.709   5.257   1.672 -0.3101 -0.5860  0.1815
   38MOL   Cl45 4559   4.855   5.196   1.598  0.4679  0.0389 -0.0095
   38MOL   Cl46 4560   4.740   5.266   1.846  0.2302 -0.0302  0.2078
   38MOL    C47 4561   4.680   5.401   1.613 -0.2134 -0.8307 -0.0881
   38MOL    H48 4562   4.661   5.384   1.507 -0.9327 -1.1589  0.0877
   38MOL    H49 4563   4.581   5.428   1.650  0.6772  2.6970 -0.0512
   38MOL    C50 4564   4.788   5.522   1.629  0.2931  0.2964 -0.1395
   38MOL   Cl51 4565   4.950   5.475   1.563  0.1413 -0.3380  0.3202
   38MOL   Cl52 4566   4.787   5.555   1.800 -0.0447  0.2717  0.0894
   38MOL    C53 4567   4.741   5.660   1.564 -0.5396  0.2060 -0.2675
   38MOL    H54 4568   4.690   5.647   1.468  2.5776  0.9527 -2.1360
   38MOL    H55 4569   4.657   5.696   1.623 -1.5309  1.6341 -2.4640
   38MOL    C56 4570   4.851   5.782   1.555 -0.4119  0.0460 -0.3424
   38MOL   Cl57 4571   4.961   5.755   1.418 -0.1263  0.0917 -0.0092
   38MOL   Cl58 4572   4.963   5.793   1.699 -0.1971 -0.5729 -0.3173
   38MOL    C59 4573   4.787   5.925   1.534 -0.3540  0.2586 -0.3116
   38MOL    H60 4574   4.739   5.948   1.630  1.0974 -1.2785  0.8206
   38MOL    H61 4575   4.876   5.987   1.525 -1.4574  2.1373  1.2694
   38MOL    C62 4576   4.678   5.961   1.427 -1.2412  0.0449  0.5515
   38MOL   Cl63 4577   4.531   5.880   1.469 -0.1753  0.1127  0.1862
   38MOL   Cl64 4578   4.731   5.900   1.268  0.1470  0.0397  0.1542
   38MOL    C65 4579   4.656   6.115   1.426 -0.0748  0.2215 -0.1689
   38MOL    H66 4580   4.623   6.149   1.525 -1.6443 -0.3811 -0.4709
   38MOL    H67 4581   4.748   6.170   1.409 -0.4167  0.7736 -0.2395
   38MOL    C68 4582   4.546   6.185   1.341  0.3414  0.3997  0.4503
   38MOL   Cl69 4583   4.578   6.152   1.171  0.2731  0.0995 -0.3096
   38MOL   Cl70 4584   4.558   6.363   1.370  0.1970  0.2630  0.2178
   38MOL    C71 4585   4.391   6.141   1.362 -0.1643  0.5815  0.7111
   38MOL    H72 4586   4.379   6.043   1.318  0.8092  0.6815  0.2026
   38MOL    H73 4587   4.360   6.119   1.464 -1.9055  0.4570  0.1617
   38MOL    C74 4588   4.263   6.227   1.307  0.4755 -0.2660  0.3243
   38MOL   Cl75 4589   4.304   6.321   1.156  0.0878  0.4061  0.0878
   38MOL   Cl76 4590   4.207   6.335   1.432  0.1572  0.2156 -0.2365
   38MOL    C77 4591   4.146   6.136   1.258 -0.9080  0.5254 -0.8006
   38MOL    H78 4592   4.072   6.196   1.205 -1.6957 -1.0591 -1.5379
   38MOL    H79 4593   4.188   6.066   1.186 -0.2428 -0.1596  0.2196
   38MOL    C80 4594   4.060   6.050   1.353  0.4184 -0.0569 -0.0521
   38MOL   Cl81 4595   4.166   5.947   1.457  0.1186  0.0671  0.1751
   38MOL   Cl82 4596   3.983   5.931   1.248  0.1024  0.2924  0.0696
   38MOL    C83 4597   3.951   6.133   1.421  0.6567  0.3252 -0.0860
   38MOL    H84 4598   3.995   6.222   1.467 -0.1320  0.6928 -0.0501
   38MOL    H85 4599   3.888   6.174   1.342 -0.4487  1.8496  1.5463
   38MOL    C86 4600   3.855   6.073   1.527 -0.4309  0.4273 -0.2094
   38MOL   Cl87 4601   3.731   6.188   1.556 -0.0253 -0.3499 -0.3603
   38MOL   Cl88 4602   3.969   6.072   1.675 -0.2592  0.1919 -0.0010
   38MOL    C89 4603   3.795   5.926   1.499 -0.6591  0.4601 -0.5462
   38MOL    H90 4604   3.768   5.906   1.395 -0.9056 -0.8028 -0.2484
   38MOL    H91 4605   3.882   5.860   1.502 -0.6176  0.5931  1.5150
   38MOL    C92 4606   3.673   5.863   1.585 -0.2517  0.3596 -0.1594
   38MOL   Cl93 4607   3.688   5.691   1.545  0.3883 -0.1420 -0.0683
   38MOL   Cl94 4608   3.518   5.920   1.516  0.1368 -0.2301  0.4084
   38MOL    C95 4609   3.683   5.884   1.742  0.2314 -0.1004  0.4236
   38MOL    H96 4610   3.755   5.811   1.779  0.9045  0.6661  0.6413
   38MOL    H97 4611   3.729   5.979   1.766 -0.0760 -0.2055  1.5046
   38MOL    C98 4612   3.555   5.864   1.834 -0.4459 -0.5209 -0.1340
   38MOL   Cl99 4613   3.480   5.707   1.789 -0.0274  0.2409  0.0706
   38MOL  Cl100 4614   3.448   6.000   1.829  0.2121  0.1313 -0.1015
   38MOL   C101 4615   3.585   5.847   1.984  0.0166 -0.1050  1.3446
   38MOL   H102 4616   3.493   5.834   2.042 -0.3424 -0.3007  0.7328
   38MOL   H103 4617   3.639   5.754   1.996  0.1577  0.1402  2.6567
   38MOL   C104 4618   3.665   5.952   2.068  0.4440  0.1696  0.5145
   38MOL  Cl105 4619   3.827   5.969   2.004 -0.2572  0.2056  0.0911
   38MOL  Cl106 4620   3.674   5.871   2.226  0.1460  0.3202 -0.3110
   38MOL   C107 4621   3.587   6.088   2.095  0.1604 -0.3409  0.0029
   38MOL   H108 4622   3.554   6.132   2.001 -0.2038 -0.3942  0.1060
   38MOL   H109 4623   3.496   6.066   2.151  0.4515 -1.9049 -0.1117
   38MOL   C110 4624   3.661   6.213   2.158  0.1789  0.0154 -0.1289
   38MOL  Cl111 4625   3.531   6.320   2.217 -0.2509  0.1691 -0.1658
   38MOL  Cl112 4626   3.738   6.297   2.019 -0.2530 -0.2405 -0.0066
   38MOL   C113 4627   3.759   6.190   2.277  0.0339 -0.2250 -0.1057
   38MOL   H114 4628   3.696   6.144   2.353 -1.5943  0.1865 -1.1697
   38MOL   H115 4629   3.833   6.130   2.224 -0.5330 -0.9509 -0.0873
   38MOL   C116 4630   3.853   6.299   2.339 -1.2491  0.2761  0.9995
   38MOL  Cl117 4631   3.980   6.354   2.222  0.1316 -0.2826 -0.2308
   38MOL  Cl118 4632   3.936   6.222   2.478  0.2395 -0.1149 -0.2858
   38MOL   C119 4633   3.776   6.409   2.388  0.6014  0.5322 -0.7790
   38MOL   H120 4634   3.716   6.458   2.312  0.4876  2.6830  0.6622
   38MOL   H121 4635   3.704   6.362   2.456  3.3226  0.3319  2.0981
   38MOL   H122 4636   3.826   6.489   2.442  0.7681  1.1380 -1.8204
   39MOL     C1 4637   1.431   6.776   3.847  0.7959 -0.0085  0.1557
   39MOL    Cl2 4638   1.410   6.851   4.004 -0.2218 -0.1739 -0.3528
   39MOL    Cl3 4639   1.350   6.876   3.721  0.3251  0.1370 -0.0160
   39MOL     C4 4640   1.581   6.752   3.822  0.4267 -0.4303 -0.7965
   39MOL     H5 4641   1.614   6.843   3.772  1.6134  0.3313  1.3115
   39MOL     H6 4642   1.641   6.749   3.913  0.3649 -2.4768 -0.7948
   39MOL     H7 4643   1.375   6.683   3.847  0.7039  0.0462 -0.3389
   39MOL     C8 4644   1.622   6.635   3.726 -0.1143  0.3137 -0.6798
   39MOL    Cl9 4645   1.541   6.639   3.569  0.4521 -0.0017  0.5018
   39MOL   Cl10 4646   1.567   6.476   3.810  0.1085  0.0242 -0.3686
   39MOL    C11 4647   1.772   6.644   3.692 -0.0333  0.7066 -0.0193
   39MOL    H12 4648   1.792   6.576   3.610 -2.6326  2.2572 -2.0226
   39MOL    H13 4649   1.784   6.737   3.637  3.1001  0.6689  0.4846
   39MOL    C14 4650   1.883   6.638   3.801  0.4295 -0.0102 -0.6264
   39MOL   Cl15 4651   1.900   6.788   3.900  0.4832 -0.4382 -0.4422
   39MOL   Cl16 4652   2.026   6.625   3.706 -0.0588 -0.1168  0.1981
   39MOL    C17 4653   1.872   6.511   3.889  0.1517  0.0408 -0.0771
   39MOL    H18 4654   1.798   6.526   3.968  0.3639 -0.9413  0.3182
   39MOL    H19 4655   1.811   6.431   3.846  0.3843 -1.1914  1.8073
   39MOL    C20 4656   2.000   6.441   3.952  0.1479 -0.0880 -0.4515
   39MOL   Cl21 4657   1.944   6.352   4.099  0.0045  0.3425  0.2455
   39MOL   Cl22 4658   2.109   6.571   4.016 -0.3999 -0.5036  0.0224
   39MOL    C23 4659   2.083   6.342   3.866  0.3213 -0.3952  0.5346
   39MOL    H24 4660   2.155   6.398   3.807 -2.2441  1.7521 -0.6701
   39MOL    H25 4661   2.148   6.291   3.937 -0.1244  0.1257  1.3183
   39MOL    C26 4662   2.011   6.232   3.773  0.9595  0.2374  0.5976
   39MOL   Cl27 4663   1.948   6.312   3.634  0.2520 -0.0978 -0.0688
   39MOL   Cl28 4664   1.867   6.171   3.848 -0.0833 -0.1873 -0.1018
   39MOL    C29 4665   2.094   6.115   3.719  0.0858  0.3853  0.6519
   39MOL    H30 4666   2.022   6.034   3.704 -0.2501  0.1104  3.5761
   39MOL    H31 4667   2.120   6.144   3.617 -1.0242  0.2758  0.3285
   39MOL    C32 4668   2.219   6.058   3.777 -0.5984  0.4207 -0.6953
   39MOL   Cl33 4669   2.190   6.009   3.955 -0.0445  0.3099  0.0261
   39MOL   Cl34 4670   2.352   6.177   3.781 -0.3453 -0.2364  0.0184
   39MOL    C35 4671   2.270   5.924   3.708  0.1155  0.2295 -0.0744
   39MOL    H36 4672   2.366   5.900   3.753  1.6090  1.6903 -2.3665
   39MOL    H37 4673   2.212   5.839   3.744 -0.5290  0.7271  0.0694
   39MOL    C38 4674   2.273   5.916   3.548 -0.1439  0.3201 -0.2482
   39MOL   Cl39 4675   2.100   5.916   3.492  0.1721 -0.1223 -0.4220
   39MOL   Cl40 4676   2.355   5.768   3.504  0.0275  0.4062 -0.0589
   39MOL    C41 4677   2.353   6.034   3.485  0.0218 -0.1608  0.4107
   39MOL    H42 4678   2.287   6.118   3.505 -2.2565 -1.2010 -2.3955
   39MOL    H43 4679   2.451   6.047   3.530  0.4727 -2.0411  0.0060
   39MOL    C44 4680   2.378   6.040   3.331 -0.1967  0.0946 -0.6977
   39MOL   Cl45 4681   2.239   6.002   3.226 -0.1362  0.3609  0.4491
   39MOL   Cl46 4682   2.504   5.930   3.280  0.3060 -0.1339  0.1007
   39MOL    C47 4683   2.411   6.192   3.309 -0.2989  0.4386 -0.2577
   39MOL    H48 4684   2.320   6.244   3.338 -1.4202 -0.6956 -1.6387
   39MOL    H49 4685   2.489   6.216   3.381 -0.4688 -1.7522  0.6810
   39MOL    C50 4686   2.465   6.259   3.171 -0.4395 -0.4552 -0.3246
   39MOL   Cl51 4687   2.624   6.190   3.131  0.4603 -0.3004  0.2449
   39MOL   Cl52 4688   2.490   6.435   3.210  0.0679 -0.1152  0.1676
   39MOL    C53 4689   2.387   6.248   3.041 -0.7171  0.8270  0.7233
   39MOL    H54 4690   2.456   6.279   2.964  0.7019 -1.2570  1.1287
   39MOL    H55 4691   2.364   6.142   3.031 -1.2306  0.9200  0.9104
   39MOL    C56 4692   2.253   6.322   3.011 -0.0684 -0.5785  0.3003
   39MOL   Cl57 4693   2.267   6.500   2.979 -0.0785 -0.1832  0.5644
   39MOL   Cl58 4694   2.139   6.301   3.142 -0.0099 -0.1077  0.3867
   39MOL    C59 4695   2.194   6.253   2.877 -0.4925  0.1730 -0.0922
   39MOL    H60 4696   2.252   6.290   2.793 -0.4955 -0.8763 -0.5629
   39MOL    H61 4697   2.207   6.147   2.900 -2.2833 -0.1626 -0.5124
   39MOL    C62 4698   2.049   6.277   2.827  0.1979  0.1606  0.0796
   39MOL   Cl63 4699   2.002   6.450   2.835 -0.2015 -0.1610 -0.2097
   39MOL   Cl64 4700   1.938   6.188   2.928 -0.2203  0.2169  0.2931
   39MOL    C65 4701   2.044   6.234   2.677 -0.0065  0.1818 -0.3383
   39MOL    H66 4702   2.115   6.303   2.632  0.5917  0.0087  0.3225
   39MOL    H67 4703   2.097   6.139   2.674 -0.2394 -0.0245  1.3556
   39MOL    C68 4704   1.923   6.233   2.585  0.2372 -1.0633  0.1978
   39MOL   Cl69 4705   1.848   6.083   2.621 -0.1508 -0.2206  0.2080
   39MOL   Cl70 4706   1.990   6.233   2.418  0.0425 -0.3129  0.4065
   39MOL    C71 4707   1.823   6.347   2.605 -0.1451  0.9611 -0.0405
   39MOL    H72 4708   1.772   6.330   2.700 -1.5667 -1.5808 -1.2135
   39MOL    H73 4709   1.881   6.439   2.611  0.2490  0.6467  1.0056
   39MOL    C74 4710   1.700   6.374   2.514 -0.3961 -0.4384 -0.0496
   39MOL   Cl75 4711   1.597   6.491   2.596 -0.1419  0.3671 -0.1055
   39MOL   Cl76 4712   1.607   6.222   2.488  0.0979  0.0983  0.0789
   39MOL    C77 4713   1.751   6.429   2.368  0.8650 -0.2250 -0.3879
   39MOL    H78 4714   1.854   6.463   2.375  1.3943 -1.8823  0.2579
   39MOL    H79 4715   1.761   6.333   2.317  1.1737  0.8242 -2.3263
   39MOL    C80 4716   1.657   6.534   2.296  0.4623  0.2131 -1.0155
   39MOL   Cl81 4717   1.663   6.697   2.372  0.0994  0.5259 -0.0437
   39MOL   Cl82 4718   1.484   6.502   2.283 -0.3809  0.1470 -0.4909
   39MOL    C83 4719   1.705   6.566   2.155  0.2044 -0.2260 -0.4109
   39MOL    H84 4720   1.628   6.632   2.115  1.5822  1.4541 -0.4044
   39MOL    H85 4721   1.790   6.634   2.167 -0.6890  0.6395  1.2097
   39MOL    C86 4722   1.740   6.457   2.048 -0.5914 -0.2923  0.5821
   39MOL   Cl87 4723   1.609   6.339   2.035 -0.1989  0.0308  0.0070
   39MOL   Cl88 4724   1.884   6.363   2.086 -0.2725  0.0119  0.2575
   39MOL    C89 4725   1.747   6.531   1.907  0.0361 -0.0059  0.5200
   39MOL    H90 4726   1.779   6.454   1.836 -1.4520 -0.8089  0.7093
   39MOL    H91 4727   1.647   6.554   1.872 -0.2380 -2.6756 -0.5952
   39MOL    C92 4728   1.816   6.668   1.886 -0.1139 -0.2453 -0.9283
   39MOL   Cl93 4729   1.966   6.661   1.975 -0.2478  0.1691  0.2870
   39MOL   Cl94 4730   1.716   6.802   1.948  0.0203 -0.2612  0.5936
   39MOL    C95 4731   1.835   6.712   1.742  0.1143 -0.2802  0.0991
   39MOL    H96 4732   1.735   6.728   1.702  1.3121  2.2876 -2.0112
   39MOL    H97 4733   1.873   6.813   1.753  1.3401 -0.8727  1.4334
   39MOL    C98 4734   1.917   6.649   1.628 -0.1247 -0.2528 -0.4622
   39MOL   Cl99 4735   1.822   6.502   1.578 -0.2553 -0.0815  0.2819
   39MOL  Cl100 4736   2.077   6.590   1.684 -0.2943 -0.2655  0.2775
   39MOL   C101 4737   1.949   6.744   1.510 -0.3040 -0.3016 -0.9901
   39MOL   H102 4738   2.018   6.825   1.534  2.2538 -2.1023 -1.9316
   39MOL   H103 4739   2.002   6.690   1.432 -2.1948 -1.2663 -1.6318
   39MOL   C104 4740   1.833   6.820   1.429  0.4085 -0.2621  0.0250
   39MOL  Cl105 4741   1.925   6.914   1.304 -0.0412 -0.1268  0.0439
   39MOL  Cl106 4742   1.760   6.946   1.535 -0.1075 -0.2227 -0.1042
   39MOL   C107 4743   1.729   6.722   1.365 -0.3724 -0.3191 -0.3483
   39MOL   H108 4744   1.789   6.636   1.334 -0.0510 -0.2639  0.1255
   39MOL   H109 4745   1.669   6.695   1.451  1.0477  0.6792  0.9797
   39MOL   C110 4746   1.629   6.767   1.255  0.3425 -0.0300 -0.2992
   39MOL  Cl111 4747   1.710   6.777   1.101 -0.5168 -0.1765  0.0804
   39MOL  Cl112 4748   1.554   6.924   1.272 -0.4085  0.2015  0.0506
   39MOL   C113 4749   1.523   6.663   1.220  0.2027  0.6205  0.2692
   39MOL   H114 4750   1.450   6.711   1.155 -0.6903 -0.6592  0.3303
   39MOL   H115 4751   1.554   6.582   1.154 -0.2718  2.4319 -2.2650
   39MOL   C116 4752   1.433   6.602   1.322 -0.6956  0.0653  0.3446
   39MOL  Cl117 4753   1.390   6.703   1.465 -0.4401 -0.5635 -0.3861
   39MOL  Cl118 4754   1.504   6.449   1.368  0.0215  0.3053  0.1193
   39MOL   C119 4755   1.305   6.545   1.258 -0.2084 -0.0088 -0.3058
   39MOL   H120 4756   1.333   6.485   1.172 -2.1387  1.6061 -2.1346
   39MOL   H121 4757   1.257   6.484   1.334  2.2402  0.6909  1.8913
   39MOL   H122 4758   1.244   6.627   1.221  1.4009  1.4523  0.1845
   40MOL     C1 4759   2.768   2.262   6.450  1.1238  0.0702  0.0146
   40MOL    Cl2 4760   2.658   2.168   6.550  0.1835 -0.1455 -0.3802
   40MOL    Cl3 4761   2.774   2.183   6.291  0.3540 -0.1984 -0.1911
   40MOL     C4 4762   2.710   2.405   6.431 -0.1868 -0.5470 -0.6741
   40MOL     H5 4763   2.770   2.449   6.351  1.1605 -0.9281  0.0926
   40MOL     H6 4764   2.607   2.391   6.399  0.0258 -3.9285 -0.0257
   40MOL     H7 4765   2.873   2.267   6.480  1.4052 -0.1607 -0.8981
   40MOL     C8 4766   2.725   2.501   6.545  0.0691  0.9486  0.2535
   40MOL    Cl9 4767   2.896   2.536   6.562 -0.4770 -0.1117 -0.2368
   40MOL   Cl10 4768   2.650   2.452   6.694  0.1344 -0.3286  0.1694
   40MOL    C11 4769   2.667   2.644   6.516  0.3185 -0.2254 -0.0129
   40MOL    H12 4770   2.648   2.685   6.615  1.1975 -2.9666  1.3413
   40MOL    H13 4771   2.743   2.701   6.463 -1.9016  1.3264 -1.6095
   40MOL    C14 4772   2.543   2.668   6.432  0.5876  0.4943  0.7597
   40MOL   Cl15 4773   2.402   2.577   6.489 -0.0853  0.1778  0.4896
   40MOL   Cl16 4774   2.574   2.627   6.257  0.1273  0.0958 -0.3043
   40MOL    C17 4775   2.506   2.818   6.443  0.2465  0.2577 -0.2465
   40MOL    H18 4776   2.492   2.834   6.550  1.2252  1.2595 -0.2593
   40MOL    H19 4777   2.593   2.882   6.425 -0.1616  1.3564  1.5523
   40MOL    C20 4778   2.389   2.892   6.368 -0.2575 -0.1044  0.7836
   40MOL   Cl21 4779   2.230   2.817   6.383 -0.1225 -0.1651  0.0945
   40MOL   Cl22 4780   2.435   2.915   6.195  0.2067  0.4842  0.1143
   40MOL    C23 4781   2.368   3.030   6.430 -0.0795 -0.6566  0.0382
   40MOL    H24 4782   2.446   3.094   6.389  1.9272 -1.3930  2.5500
   40MOL    H25 4783   2.275   3.061   6.384  0.5403 -1.3621 -1.7525
   40MOL    C26 4784   2.363   3.060   6.583 -0.1048  0.9719 -0.1370
   40MOL   Cl27 4785   2.535   3.087   6.636 -0.1838  0.4194 -0.0433
   40MOL   Cl28 4786   2.297   2.928   6.682  0.5145 -0.8458 -0.2178
   40MOL    C29 4787   2.287   3.189   6.608  1.1326  0.7582 -0.2863
   40MOL    H30 4788   2.179   3.173   6.604  0.9402  1.4552  1.7342
   40MOL    H31 4789   2.310   3.199   6.714  0.8212  1.2002 -0.2557
   40MOL    C32 4790   2.310   3.328   6.534 -1.2812  0.2836 -0.5579
   40MOL   Cl33 4791   2.305   3.322   6.355 -0.1548 -0.3628 -0.0299
   40MOL   Cl34 4792   2.475   3.385   6.572 -0.2216  0.0486 -0.2492
   40MOL    C35 4793   2.201   3.435   6.583 -0.3928 -0.1620  0.1360
   40MOL    H36 4794   2.230   3.532   6.541 -1.9671  0.9630  1.5767
   40MOL    H37 4795   2.113   3.402   6.528  0.3967  1.5490 -2.2478
   40MOL    C38 4796   2.161   3.463   6.735  0.2472 -0.0738 -0.3063
   40MOL   Cl39 4797   2.319   3.515   6.799 -0.0406 -0.2050 -0.1328
   40MOL   Cl40 4798   2.105   3.311   6.819  0.2039  0.1401 -0.0055
   40MOL    C41 4799   2.065   3.585   6.759  0.7804  0.0160  0.3474
   40MOL    H42 4800   2.054   3.587   6.867  0.7229 -1.3366  0.3660
   40MOL    H43 4801   2.116   3.680   6.741  1.7911 -0.5190  0.3703
   40MOL    C44 4802   1.917   3.575   6.701 -0.8584  0.2327 -0.7012
   40MOL   Cl45 4803   1.822   3.427   6.731 -0.4594 -0.2272  0.1299
   40MOL   Cl46 4804   1.928   3.583   6.526 -0.0336  0.1371  0.1886
   40MOL    C47 4805   1.837   3.698   6.746 -0.0903 -0.3135 -0.7334
   40MOL    H48 4806   1.866   3.784   6.686 -0.3704  0.8400  0.7446
   40MOL    H49 4807   1.733   3.696   6.714 -1.1128  0.0208  2.3890
   40MOL    C50 4808   1.823   3.753   6.894  0.3778  0.1414  0.0847
   40MOL   Cl51 4809   1.969   3.843   6.954 -0.2285  0.2370 -0.0268
   40MOL   Cl52 4810   1.803   3.612   7.001 -0.0255  0.2752 -0.2851
   40MOL    C53 4811   1.695   3.840   6.928 -0.3665 -0.9127  1.0817
   40MOL    H54 4812   1.609   3.780   6.899 -0.5907  0.8912 -2.1499
   40MOL    H55 4813   1.698   3.848   7.037  0.5278  0.0067  0.9973
   40MOL    C56 4814   1.671   3.977   6.859 -0.0347  0.5942  0.2051
   40MOL   Cl57 4815   1.656   3.957   6.679 -0.6267 -0.1871 -0.0058
   40MOL   Cl58 4816   1.792   4.104   6.890 -0.0327 -0.1535 -0.6135
   40MOL    C59 4817   1.532   4.040   6.908 -0.4591 -0.3525  0.3687
   40MOL    H60 4818   1.555   4.100   6.996  1.2997  0.6926 -0.7857
   40MOL    H61 4819   1.518   4.121   6.837  0.9416  1.7163  2.4073
   40MOL    C62 4820   1.404   3.952   6.929  0.1583  0.5118 -0.6489
   40MOL   Cl63 4821   1.418   3.845   7.077 -0.4523 -0.0668  0.0108
   40MOL   Cl64 4822   1.372   3.850   6.784  0.1974 -0.1422  0.3944
   40MOL    C65 4823   1.266   4.031   6.946  0.1946 -0.0187 -0.0769
   40MOL    H66 4824   1.227   4.071   6.852  2.0764  2.7630  0.2716
   40MOL    H67 4825   1.192   3.959   6.982 -0.3198 -0.7773 -2.5123
   40MOL    C68 4826   1.249   4.158   7.039  0.0065  0.9675  0.3448
   40MOL   Cl69 4827   1.312   4.301   6.951  0.1238 -0.0761 -0.0285
   40MOL   Cl70 4828   1.349   4.140   7.185  0.0090 -0.1111 -0.0065
   40MOL    C71 4829   1.107   4.186   7.091  0.1216 -0.4339 -0.0428
   40MOL    H72 4830   1.086   4.124   7.178 -1.8208 -1.3473 -1.1206
   40MOL    H73 4831   1.117   4.286   7.132  0.5659 -0.9402  1.0909
   40MOL    C74 4832   0.983   4.177   6.987 -0.0801  0.2656 -0.0533
   40MOL   Cl75 4833   0.950   4.009   6.944 -0.1718  0.3987  0.2564
   40MOL   Cl76 4834   1.022   4.272   6.840 -0.1535 -0.0975  0.0622
   40MOL    C77 4835   0.849   4.238   7.044  0.0375 -0.2625  0.3241
   40MOL    H78 4836   0.870   4.345   7.048 -1.0917 -0.0734  1.4590
   40MOL    H79 4837   0.765   4.213   6.979 -0.9499  0.3956  1.3290
   40MOL    C80 4838   0.802   4.215   7.185  0.6858  0.5397  0.2304
   40MOL   Cl81 4839   0.901   4.301   7.315 -0.2266 -0.1048 -0.0106
   40MOL   Cl82 4840   0.805   4.038   7.206 -0.2923  0.0203 -0.2181
   40MOL    C83 4841   0.658   4.254   7.209 -0.0274 -0.2342 -0.7298
   40MOL    H84 4842   0.605   4.175   7.155 -0.3494  1.1145 -2.4354
   40MOL    H85 4843   0.638   4.227   7.312  0.1473 -0.3420 -0.7233
   40MOL    C86 4844   0.595   4.395   7.185 -0.2574 -0.5344  0.0413
   40MOL   Cl87 4845   0.593   4.421   7.004  0.0361 -0.4784 -0.2249
   40MOL   Cl88 4846   0.694   4.525   7.261 -0.3282  0.3019  0.1209
   40MOL    C89 4847   0.447   4.393   7.251 -0.2449 -0.2182  0.2686
   40MOL    H90 4848   0.393   4.312   7.203  1.7142 -2.4653  1.7868
   40MOL    H91 4849   0.455   4.360   7.354  0.5378 -2.1108 -0.3785
   40MOL    C92 4850   0.370   4.532   7.264 -0.1335  0.3081  0.0342
   40MOL   Cl93 4851   0.440   4.613   7.407 -0.2490  0.0029 -0.1662
   40MOL   Cl94 4852   0.200   4.481   7.295  0.1446  0.1705  0.0921
   40MOL    C95 4853   0.378   4.642   7.154 -0.1880  0.0647 -0.6315
   40MOL    H96 4854   0.482   4.671   7.146  0.5482 -1.5226  2.2089
   40MOL    H97 4855   0.352   4.596   7.058 -2.6545 -0.5305  0.2840
   40MOL    C98 4856   0.293   4.772   7.145 -0.4119 -0.5253  0.3406
   40MOL   Cl99 4857   0.128   4.715   7.099 -0.2675 -0.4268 -0.1433
   40MOL  Cl100 4858   0.372   4.859   7.013  0.4361  0.3411 -0.3037
   40MOL   C101 4859   0.288   4.861   7.274 -0.0792  0.6773 -0.1094
   40MOL   H102 4860   0.253   4.800   7.358 -0.1691  0.3882 -0.3591
   40MOL   H103 4861   0.390   4.896   7.292  0.6647 -1.6720  0.5504
   40MOL   C104 4862   0.198   4.990   7.282 -0.7033  0.0179 -0.4692
   40MOL  Cl105 4863   0.024   4.969   7.276 -0.2514 -0.5414  0.2590
   40MOL  Cl106 4864   0.234   5.101   7.148  0.0521 -0.2326 -0.5149
   40MOL   C107 4865   0.228   5.070   7.415 -0.1358  0.1696 -0.0841
   40MOL   H108 4866   0.163   5.157   7.420 -0.9159 -0.3205 -1.3163
   40MOL   H109 4867   0.192   5.006   7.497  2.3595 -0.0654  0.8693
   40MOL   C110 4868   0.369   5.107   7.479 -0.2084 -0.1229 -0.8736
   40MOL  Cl111 4869   0.491   5.147   7.358  0.0556  0.1092  0.3637
   40MOL  Cl112 4870   0.435   4.971   7.571 -0.1580  0.1715  0.1514
   40MOL   C113 4871   0.370   5.235   7.568 -0.2857 -0.2224 -0.3502
   40MOL   H114 4872   0.468   5.249   7.612 -0.9887  0.0141  1.1848
   40MOL   H115 4873   0.362   5.321   7.501 -1.2090 -0.0180  0.0104
   40MOL   C116 4874   0.273   5.250   7.684 -0.2203 -0.4571  0.7087
   40MOL  Cl117 4875   0.306   5.412   7.743 -0.4941  0.3580  0.3212
   40MOL  Cl118 4876   0.307   5.141   7.825 -0.4185 -0.4702 -0.2365
   40MOL   C119 4877   0.119   5.251   7.650  0.0024  0.3215  0.2379
   40MOL   H120 4878   0.073   5.160   7.613  0.9514 -0.3352  0.6648
   40MOL   H121 4879   0.063   5.265   7.742  1.2067 -1.4731  1.2830
   40MOL   H122 4880   0.099   5.332   7.580  1.9565  0.8315  0.2197
   41MOL     C1 4881   3.354   2.311   7.670  0.1761  0.0867 -0.8890
   41MOL    Cl2 4882   3.442   2.202   7.565 -0.0712  0.2434 -0.2035
   41MOL    Cl3 4883   3.239   2.226   7.772 -0.1306 -0.0102  0.1996
   41MOL     C4 4884   3.437   2.400   7.757 -0.2961 -0.2320  0.0429
   41MOL     H5 4885   3.364   2.447   7.823  0.0610  0.3682  0.0133
   41MOL     H6 4886   3.493   2.335   7.824 -1.4963 -0.8322  0.4664
   41MOL     H7 4887   3.299   2.375   7.601  1.4464  1.6091 -0.5032
   41MOL     C8 4888   3.515   2.515   7.700 -0.3273 -0.1155  0.7212
   41MOL    Cl9 4889   3.540   2.627   7.838 -0.2692 -0.0967  0.0785
   41MOL   Cl10 4890   3.413   2.590   7.590 -0.1428 -0.1014 -0.1732
   41MOL    C11 4891   3.652   2.471   7.637 -0.3153  0.5448  0.1479
   41MOL    H12 4892   3.706   2.412   7.711  0.5729  0.7762 -0.3063
   41MOL    H13 4893   3.646   2.392   7.562  0.1786  0.0476  0.6267
   41MOL    C14 4894   3.772   2.562   7.611 -0.0506  0.6604 -0.0982
   41MOL   Cl15 4895   3.904   2.452   7.545 -0.1846  0.1686 -0.6367
   41MOL   Cl16 4896   3.830   2.624   7.763 -0.1831 -0.2915 -0.1321
   41MOL    C17 4897   3.741   2.692   7.520  0.0054 -0.1340 -0.0471
   41MOL    H18 4898   3.680   2.650   7.440  0.6572  2.4364 -1.9468
   41MOL    H19 4899   3.663   2.745   7.574 -0.2782  1.4082 -1.9267
   41MOL    C20 4900   3.836   2.791   7.457 -0.2178 -0.1948  0.4143
   41MOL   Cl21 4901   3.740   2.920   7.379 -0.5175  0.2325  0.3774
   41MOL   Cl22 4902   3.922   2.709   7.315 -0.0480  0.1802 -0.0957
   41MOL    C23 4903   3.938   2.849   7.551  1.0685  0.6230  0.1000
   41MOL    H24 4904   3.883   2.877   7.641 -0.1996 -1.8745  0.1374
   41MOL    H25 4905   3.990   2.756   7.574 -1.3670 -0.6230  0.7572
   41MOL    C26 4906   4.022   2.974   7.524 -0.5672  0.2690 -0.2284
   41MOL   Cl27 4907   3.930   3.126   7.540 -0.1739  0.1658 -0.0957
   41MOL   Cl28 4908   4.086   2.964   7.364  0.3412 -0.0070  0.2778
   41MOL    C29 4909   4.152   2.991   7.611  0.5341 -0.0219  0.6145
   41MOL    H30 4910   4.228   3.052   7.561  0.1227  1.5294  1.8396
   41MOL    H31 4911   4.124   3.051   7.698  2.5568 -0.7584  1.8195
   41MOL    C32 4912   4.238   2.880   7.674 -0.6291 -0.1698 -0.2734
   41MOL   Cl33 4913   4.261   2.755   7.555 -0.0424 -0.1777 -0.1054
   41MOL   Cl34 4914   4.134   2.806   7.800  0.2426  0.2836  0.0311
   41MOL    C35 4915   4.384   2.916   7.744 -0.3476  0.3419  0.0342
   41MOL    H36 4916   4.427   2.825   7.785 -0.2262  1.2512  2.0018
   41MOL    H37 4917   4.431   2.939   7.649 -1.5201  0.1586 -0.6058
   41MOL    C38 4918   4.392   3.042   7.842  1.0951 -0.5410 -0.2957
   41MOL   Cl39 4919   4.298   3.006   7.991 -0.1699  0.1633  0.3250
   41MOL   Cl40 4920   4.332   3.202   7.775  0.4460  0.1637  0.1816
   41MOL    C41 4921   4.540   3.079   7.876 -0.0306 -0.6192 -0.4216
   41MOL    H42 4922   4.576   3.125   7.784 -2.2750  2.6078  0.2662
   41MOL    H43 4923   4.555   3.155   7.952 -1.2920 -0.3289 -0.4583
   41MOL    C44 4924   4.642   2.967   7.931  0.1430  0.0928  0.4796
   41MOL   Cl45 4925   4.790   3.055   7.962  0.3808 -0.0006  0.0031
   41MOL   Cl46 4926   4.677   2.851   7.798 -0.1121  0.0740  0.2017
   41MOL    C47 4927   4.593   2.875   8.052 -0.5997  0.1957 -0.2007
   41MOL    H48 4928   4.534   2.942   8.116 -2.2928 -0.5516 -0.9644
   41MOL    H49 4929   4.519   2.805   8.012 -0.7592 -0.0432  0.5032
   41MOL    C50 4930   4.694   2.801   8.148  0.4159  0.6379  0.1025
   41MOL   Cl51 4931   4.782   2.921   8.243  0.2185 -0.0762  0.1990
   41MOL   Cl52 4932   4.813   2.708   8.051  0.0216 -0.1706 -0.2666
   41MOL    C53 4933   4.619   2.720   8.258  0.6164 -0.2055  0.4975
   41MOL    H54 4934   4.690   2.660   8.315  0.3411 -0.9065  0.1095
   41MOL    H55 4935   4.576   2.775   8.342  0.5068 -0.4714  0.6182
   41MOL    C56 4936   4.496   2.620   8.221  0.7286 -0.3104  1.0911
   41MOL   Cl57 4937   4.524   2.531   8.068 -0.3970 -0.0132 -0.0903
   41MOL   Cl58 4938   4.339   2.706   8.197  0.1416  0.3183  0.0349
   41MOL    C59 4939   4.472   2.493   8.311 -0.1445  0.7422 -0.6829
   41MOL    H60 4940   4.403   2.426   8.260  1.2753 -1.1853 -0.1281
   41MOL    H61 4941   4.570   2.446   8.321 -0.1773  0.3643 -2.0474
   41MOL    C62 4942   4.417   2.499   8.458  0.2075 -0.4728 -0.0153
   41MOL   Cl63 4943   4.244   2.560   8.461 -0.0632 -0.0327 -0.1686
   41MOL   Cl64 4944   4.537   2.604   8.541  0.2820 -0.2237 -0.2864
   41MOL    C65 4945   4.421   2.370   8.535  0.1884  0.1993  0.7787
   41MOL    H66 4946   4.526   2.349   8.554  0.3599  1.2626  1.0374
   41MOL    H67 4947   4.378   2.393   8.633 -1.5974  0.3627 -0.0163
   41MOL    C68 4948   4.358   2.237   8.488  0.2334  0.4740  0.5273
   41MOL   Cl69 4949   4.418   2.190   8.326  0.0066  0.1379  0.0235
   41MOL   Cl70 4950   4.182   2.235   8.481  0.1719  0.3138  0.2893
   41MOL    C71 4951   4.381   2.118   8.592 -0.5468  0.2159  0.0775
   41MOL    H72 4952   4.347   2.150   8.690  2.0419 -2.3026  1.8866
   41MOL    H73 4953   4.306   2.045   8.562  1.0449 -1.4442  0.0058
   41MOL    C74 4954   4.519   2.039   8.624 -0.1569 -0.8870  0.4572
   41MOL   Cl75 4955   4.659   2.144   8.644 -0.0637 -0.1632 -0.1398
   41MOL   Cl76 4956   4.562   1.949   8.470  0.2475 -0.0998 -0.2732
   41MOL    C77 4957   4.510   1.954   8.755  0.3847  0.5836  0.3555
   41MOL    H78 4958   4.600   1.892   8.753 -0.9999 -1.4959  0.6428
   41MOL    H79 4959   4.521   2.021   8.841  1.5066  0.7764  0.0826
   41MOL    C80 4960   4.380   1.862   8.791 -0.3357 -0.6589 -0.1907
   41MOL   Cl81 4961   4.327   1.788   8.641  0.1760 -0.1977 -0.1199
   41MOL   Cl82 4962   4.245   1.967   8.839  0.5590 -0.2102  0.0382
   41MOL    C83 4963   4.401   1.749   8.903  0.0564  0.0488  0.3367
   41MOL    H84 4964   4.445   1.667   8.846  1.5888  0.5251  0.8058
   41MOL    H85 4965   4.492   1.772   8.959  0.3307 -0.2753  0.0305
   41MOL    C86 4966   4.297   1.692   8.992 -0.4154  0.5833  0.1544
   41MOL   Cl87 4967   4.367   1.543   9.056 -0.2146  0.0647 -0.4209
   41MOL   Cl88 4968   4.150   1.641   8.903  0.3398  0.0778 -0.4757
   41MOL    C89 4969   4.253   1.783   9.110  0.3862  0.9193 -0.0676
   41MOL    H90 4970   4.193   1.866   9.073  0.0085  0.5512 -0.2828
   41MOL    H91 4971   4.184   1.727   9.173  0.3944 -0.4422 -1.2495
   41MOL    C92 4972   4.353   1.849   0.031 -0.2340 -0.3131 -0.8113
   41MOL   Cl93 4973   4.481   1.944   9.134  0.1069 -0.4385  0.4950
   41MOL   Cl94 4974   4.430   1.719   0.128  0.4533  0.1742  0.2529
   41MOL    C95 4975   4.276   1.929   0.146 -0.0789  0.1000  0.1835
   41MOL    H96 4976   4.236   1.860   0.220 -0.5078 -2.9896 -2.7749
   41MOL    H97 4977   4.354   1.988   0.194  0.8877 -2.3528  1.7053
   41MOL    C98 4978   4.155   2.017   0.109 -0.2950 -0.1275 -0.7146
   41MOL   Cl99 4979   4.010   1.922   0.071 -0.0261  0.0152  0.0697
   41MOL  Cl100 4980   4.190   2.122   9.155  0.1112  0.0642 -0.1289
   41MOL   C101 4981   4.120   2.115   0.231 -0.1711 -0.3457  0.4136
   41MOL   H102 4982   4.196   2.194   0.238 -0.1790 -0.2536 -0.5204
   41MOL   H103 4983   4.028   2.165   0.201  0.2659  0.9908  1.2456
   41MOL   C104 4984   4.102   2.063   0.384 -0.4727 -0.6170  0.1060
   41MOL  Cl105 4985   4.269   2.027   0.451  0.3497 -0.2715  0.2916
   41MOL  Cl106 4986   3.999   1.913   0.388  0.0749  0.2884 -0.0447
   41MOL   C107 4987   4.049   2.166   0.485  0.9176 -0.5626 -0.0199
   41MOL   H108 4988   4.006   2.117   0.573  1.5606 -0.4128  0.3803
   41MOL   H109 4989   4.126   2.232   0.524  0.3143 -0.2732  0.6961
   41MOL   C110 4990   3.929   2.264   0.440  0.2785  0.1012 -0.2376
   41MOL  Cl111 4991   3.810   2.185   0.345  0.4698  0.1884  0.1207
   41MOL  Cl112 4992   4.003   2.391   0.339 -0.0646  0.2701  0.3726
   41MOL   C113 4993   3.871   2.351   0.553  0.1601 -0.1714 -0.5226
   41MOL   H114 4994   3.949   2.415   0.593 -0.2285 -1.5289  2.5886
   41MOL   H115 4995   3.804   2.418   0.499  0.4588 -0.3479 -1.1103
   41MOL   C116 4996   3.805   2.302   0.682 -0.4967 -0.0569  0.7514
   41MOL  Cl117 4997   3.769   2.452   0.768  0.1415 -0.2563  0.2322
   41MOL  Cl118 4998   3.906   2.195   0.780 -0.1615 -0.3101 -0.3213
   41MOL   C119 4999   3.670   2.224   0.662  0.4173 -0.7270  0.6413
   41MOL   H120 5000   3.619   2.198   0.755  2.0866 -0.5339  1.6224
   41MOL   H121 5001   3.601   2.285   0.604  2.6600  1.1262 -0.1129
   41MOL   H122 5002   3.672   2.128   0.610 -0.6979 -0.8281  0.7695
   42MOL     C1 5003   0.375   1.054   4.699 -0.0322 -0.5309  0.0730
   42MOL    Cl2 5004   0.448   0.887   4.696  0.6069  0.1517 -0.1082
   42MOL    Cl3 5005   0.513   1.172   4.708 -0.0717 -0.0834  0.2867
   42MOL     C4 5006   0.298   1.085   4.567  0.2512  0.0217  1.2626
   42MOL     H5 5007   0.278   1.191   4.576 -2.2000 -0.3628  0.7030
   42MOL     H6 5008   0.356   1.073   4.475 -0.8838  1.4399  0.3443
   42MOL     H7 5009   0.315   1.068   4.790  1.7438  0.5508  1.0972
   42MOL     C8 5010   0.156   1.030   4.551  0.2748  0.0908 -0.4669
   42MOL    Cl9 5011   0.171   0.856   4.515 -0.0099  0.2366 -0.0689
   42MOL   Cl10 5012   0.090   1.125   4.411  0.2697 -0.3097  0.0642
   42MOL    C11 5013   0.064   1.061   4.680  0.0986 -0.2016  0.1835
   42MOL    H12 5014   0.085   0.973   4.741 -1.3058 -1.4295 -1.0571
   42MOL    H13 5015   0.088   1.154   4.731  1.4316 -0.1430 -0.5260
   42MOL    C14 5016   9.083   1.061   4.671  0.1294 -0.1201 -0.2627
   42MOL   Cl15 5017   9.028   0.923   4.568 -0.1939  0.2257  0.2187
   42MOL   Cl16 5018   9.042   1.218   4.603  0.6043  0.1027  0.5010
   42MOL    C17 5019   9.017   1.047   4.814 -0.2318  0.4263  0.1349
   42MOL    H18 5020   9.074   0.963   4.855 -2.9647 -2.1645 -1.1577
   42MOL    H19 5021   9.050   1.130   4.877 -0.5238 -0.2251  1.1617
   42MOL    C20 5022   8.864   1.028   4.840 -0.6119 -0.3060 -0.1989
   42MOL   Cl21 5023   8.827   0.856   4.836  0.0567 -0.2979  0.3304
   42MOL   Cl22 5024   8.769   1.121   4.716 -0.2736  0.1483  0.0447
   42MOL    C23 5025   8.833   1.080   4.978  0.5805 -0.4947 -0.5420
   42MOL    H24 5026   8.909   1.041   5.046 -0.3913  0.8398  1.3370
   42MOL    H25 5027   8.839   1.189   4.977 -0.9232 -0.4002 -0.4074
   42MOL    C26 5028   8.699   1.059   5.061 -0.1382 -0.3196 -0.0077
   42MOL   Cl27 5029   8.711   1.169   5.202  0.0889  0.4610  0.0274
   42MOL   Cl28 5030   8.682   0.884   5.104  0.0375 -0.1946 -0.0627
   42MOL    C29 5031   8.574   1.090   4.971  0.4660  0.3913  0.8839
   42MOL    H30 5032   8.588   1.198   4.965  1.8396  0.1616 -0.3052
   42MOL    H31 5033   8.573   1.043   4.873 -2.0944  1.6800  0.2484
   42MOL    C32 5034   8.426   1.071   5.011 -0.0607 -0.9224  0.1328
   42MOL   Cl33 5035   8.321   1.190   4.916  0.0264  0.0873  0.4183
   42MOL   Cl34 5036   8.399   1.111   5.188 -0.0045  0.0148  0.5658
   42MOL    C35 5037   8.381   0.926   4.996  0.2040  0.5294 -0.3587
   42MOL    H36 5038   8.448   0.878   4.924 -0.2602 -1.0745  0.2661
   42MOL    H37 5039   8.410   0.868   5.083 -0.7750 -0.2011 -0.5197
   42MOL    C38 5040   8.238   0.881   4.970 -0.0117 -0.5743 -0.1226
   42MOL   Cl39 5041   8.230   0.699   4.981  0.1743 -0.3321 -0.0725
   42MOL   Cl40 5042   8.218   0.908   4.795 -0.3625 -0.1648 -0.2129
   42MOL    C41 5043   8.133   0.947   5.063  0.1842 -0.0512 -0.0634
   42MOL    H42 5044   8.167   0.946   5.167 -1.8183 -0.2972  0.6057
   42MOL    H43 5045   8.139   1.052   5.035 -0.2803  0.0989  0.3917
   42MOL    C44 5046   7.990   0.897   5.080 -1.1193 -0.1949 -1.0002
   42MOL   Cl45 5047   7.995   0.744   5.179 -0.0622  0.0305 -0.0269
   42MOL   Cl46 5048   7.923   0.871   4.915 -0.4844  0.3438  0.1975
   42MOL    C47 5049   7.893   1.005   5.151 -0.6327  0.2841 -0.1238
   42MOL    H48 5050   7.793   0.987   5.112 -0.1178 -0.3603 -1.1689
   42MOL    H49 5051   7.900   0.988   5.259  1.7771 -1.6885 -0.5398
   42MOL    C50 5052   7.910   1.159   5.137  0.1769 -0.0183  0.2678
   42MOL   Cl51 5053   7.931   1.188   4.966  0.0690  0.4424 -0.1383
   42MOL   Cl52 5054   8.058   1.224   5.216  0.0939  0.0593 -0.6063
   42MOL    C53 5055   7.788   1.236   5.185  0.2615  0.5098 -0.6823
   42MOL    H54 5056   7.822   1.338   5.166 -0.4297  1.2683  2.0037
   42MOL    H55 5057   7.718   1.218   5.104 -0.2890 -0.2116 -0.0518
   42MOL    C56 5058   7.732   1.219   5.334  0.0998  0.0309  0.1308
   42MOL   Cl57 5059   7.859   1.202   5.452 -0.3299  0.1626  0.2529
   42MOL   Cl58 5060   7.628   1.072   5.330 -0.4835 -0.0206  0.2946
   42MOL    C59 5061   7.641   1.337   5.377  0.0091 -0.0303  0.5201
   42MOL    H60 5062   7.714   1.418   5.380 -0.2980  0.3010 -0.8302
   42MOL    H61 5063   7.575   1.369   5.297 -1.7785 -2.8177  0.8291
   42MOL    C62 5064   7.553   1.341   5.509  0.2597 -0.2530 -0.5331
   42MOL   Cl63 5065   7.407   1.242   5.470 -0.0103 -0.2190 -0.7101
   42MOL   Cl64 5066   7.491   1.505   5.511  0.1060  0.1796  0.0321
   42MOL    C65 5067   7.616   1.310   5.650 -0.5617 -0.4920  0.0549
   42MOL    H66 5068   7.640   1.204   5.656  0.8831 -0.1883 -0.3170
   42MOL    H67 5069   7.718   1.348   5.658 -0.4607 -0.8486  0.4542
   42MOL    C68 5070   7.531   1.339   5.774  0.4307  0.0948  0.3372
   42MOL   Cl69 5071   7.550   1.512   5.805  0.2198  0.0350  0.1259
   42MOL   Cl70 5072   7.615   1.257   5.907  0.1824 -0.1038  0.3012
   42MOL    C71 5073   7.383   1.300   5.782  0.7743 -0.6872  0.2541
   42MOL    H72 5074   7.336   1.363   5.706 -0.8636  0.0787  1.8469
   42MOL    H73 5075   7.369   1.198   5.746 -4.6081 -0.5043  1.3980
   42MOL    C74 5076   7.290   1.318   5.910 -0.6397 -0.2649  0.1135
   42MOL   Cl75 5077   7.328   1.451   6.021  0.3865 -0.0744 -0.0120
   42MOL   Cl76 5078   7.307   1.170   5.997 -0.0801  0.0751 -0.1069
   42MOL    C77 5079   7.138   1.320   5.879 -0.9341  0.1680 -0.1974
   42MOL    H78 5080   7.092   1.292   5.973 -0.4665 -1.2496 -0.3677
   42MOL    H79 5081   7.121   1.425   5.856  1.0950  0.3120 -1.2024
   42MOL    C80 5082   7.066   1.226   5.763 -0.7287 -0.3861 -0.3365
   42MOL   Cl81 5083   7.109   1.289   5.604 -0.1239  0.2019  0.0670
   42MOL   Cl82 5084   6.889   1.259   5.787 -0.1094 -0.0742  0.1563
   42MOL    C83 5085   7.082   1.071   5.777  0.1921 -0.4505 -0.3160
   42MOL    H84 5086   7.188   1.054   5.798 -0.1340 -1.4670  0.5643
   42MOL    H85 5087   7.025   1.035   5.863  1.2402 -0.1528  0.5211
   42MOL    C86 5088   7.037   0.977   5.655 -0.0071 -0.2373  0.3004
   42MOL   Cl87 5089   7.032   0.815   5.738  0.1689  0.3452 -0.0879
   42MOL   Cl88 5090   7.172   0.963   5.539  0.2853 -0.1277 -0.0282
   42MOL    C89 5091   6.896   1.009   5.581 -0.1400  0.0891 -0.1386
   42MOL    H90 5092   6.818   0.986   5.653  0.3954 -2.4268 -0.2805
   42MOL    H91 5093   6.905   1.117   5.569  0.5249  0.1017  0.4685
   42MOL    C92 5094   6.859   0.941   5.453  0.1218  0.7611  0.1674
   42MOL   Cl93 5095   6.950   1.003   5.323 -0.1731  0.2316  0.1339
   42MOL   Cl94 5096   6.689   0.995   5.426  0.0541  0.2541 -0.0234
   42MOL    C95 5097   6.877   0.783   5.456  0.0985  0.5556  0.1260
   42MOL    H96 5098   6.983   0.763   5.439  0.7476  0.8265  3.4064
   42MOL    H97 5099   6.847   0.750   5.555  2.4565 -0.3434  0.5745
   42MOL    C98 5100   6.805   0.687   5.358  0.2994 -0.6017  0.1515
   42MOL   Cl99 5101   6.630   0.670   5.396  0.0329  0.1961 -0.0688
   42MOL  Cl100 5102   6.882   0.530   5.398  0.1026 -0.1476 -0.1166
   42MOL   C101 5103   6.828   0.722   5.209  0.3735  0.8818  0.0893
   42MOL   H102 5104   6.749   0.795   5.188 -1.5136 -1.2505 -0.3870
   42MOL   H103 5105   6.920   0.780   5.200  0.6292  0.7746  1.6945
   42MOL   C104 5106   6.822   0.621   5.092 -0.1620 -0.2906  0.3396
   42MOL  Cl105 5107   6.695   0.506   5.102  0.0639 -0.4007 -0.1549
   42MOL  Cl106 5108   6.980   0.539   5.083 -0.1952 -0.3492 -0.4123
   42MOL   C107 5109   6.818   0.693   4.951  0.2202 -0.4149 -0.8429
   42MOL   H108 5110   6.911   0.747   4.934  0.2994 -0.5682 -0.8871
   42MOL   H109 5111   6.803   0.618   4.873  1.8444  0.0093 -1.5694
   42MOL   C110 5112   6.713   0.801   4.930 -0.3915  0.3999  0.1806
   42MOL  Cl111 5113   6.720   0.829   4.749  0.1184 -0.0624  0.0673
   42MOL  Cl112 5114   6.774   0.943   5.003  0.3202 -0.2517 -0.0714
   42MOL   C113 5115   6.563   0.773   4.986 -0.4028 -0.5910 -0.0934
   42MOL   H114 5116   6.527   0.677   4.949 -2.2099 -0.2591  0.7865
   42MOL   H115 5117   6.568   0.769   5.095  1.2943 -1.7070 -0.1823
   42MOL   C116 5118   6.442   0.868   4.950 -0.3191 -0.2937 -0.2572
   42MOL  Cl117 5119   6.401   0.852   4.776  0.2010  0.1104 -0.2108
   42MOL  Cl118 5120   6.468   1.040   4.992  0.2248 -0.5858 -0.1725
   42MOL   C119 5121   6.316   0.822   5.020 -0.6062  0.1085  0.1801
   42MOL   H120 5122   6.227   0.874   4.986  0.1718  0.6541 -1.0519
   42MOL   H121 5123   6.290   0.720   4.991 -2.0611  0.8308 -1.0972
   42MOL   H122 5124   6.311   0.811   5.129 -0.7264 -2.5179 -0.0582
   43MOL     C1 5125   4.614   5.526   7.070  0.2628  0.1586  0.2411
   43MOL    Cl2 5126   4.459   5.617   7.100 -0.3635 -0.2586  0.2208
   43MOL    Cl3 5127   4.696   5.601   6.934  0.3551 -0.0126  0.0297
   43MOL     C4 5128   4.695   5.535   7.199  0.2247 -0.5632 -0.9802
   43MOL     H5 5129   4.755   5.626   7.196 -0.9122  0.2270 -0.3200
   43MOL     H6 5130   4.634   5.549   7.288  0.8861 -0.9036 -0.4689
   43MOL     H7 5131   4.590   5.424   7.041 -0.5246  0.0891  1.0882
   43MOL     C8 5132   4.777   5.404   7.228 -0.3706 -0.0535 -0.3061
   43MOL    Cl9 5133   4.862   5.376   7.070  0.3543 -0.0920  0.1538
   43MOL   Cl10 5134   4.659   5.273   7.247  0.2685 -0.2522 -0.4990
   43MOL    C11 5135   4.893   5.413   7.335  0.2539 -0.3087 -0.1202
   43MOL    H12 5136   4.956   5.324   7.330  0.9331  0.1814 -0.4005
   43MOL    H13 5137   4.950   5.500   7.303  2.3443 -1.9949 -1.1170
   43MOL    C14 5138   4.865   5.432   7.488 -0.3405 -0.3407  0.5662
   43MOL   Cl15 5139   4.748   5.314   7.548 -0.3743  0.0789  0.1549
   43MOL   Cl16 5140   4.813   5.608   7.496 -0.3728 -0.0761 -0.1763
   43MOL    C17 5141   4.994   5.420   7.574  0.3340 -0.1484 -0.0212
   43MOL    H18 5142   5.037   5.325   7.542  0.6679 -0.2162  0.6326
   43MOL    H19 5143   5.061   5.493   7.528  2.3643 -3.1436 -1.9344
   43MOL    C20 5144   4.995   5.443   7.729  0.0572  0.7179  0.6797
   43MOL   Cl21 5145   4.834   5.446   7.790 -0.1545 -0.0551 -0.2464
   43MOL   Cl22 5146   5.061   5.603   7.763 -0.0869  0.1535  0.2332
   43MOL    C23 5147   5.088   5.350   7.810 -0.0557 -0.0634  0.1546
   43MOL    H24 5148   5.190   5.359   7.774  0.7684 -0.6529  2.2720
   43MOL    H25 5149   5.103   5.393   7.909 -0.2164 -0.0690  0.1811
   43MOL    C26 5150   5.044   5.203   7.848  0.4921  0.2660 -0.4283
   43MOL   Cl27 5151   4.948   5.119   7.720  0.5452  0.0800  0.1672
   43MOL   Cl28 5152   4.936   5.202   7.991 -0.4960 -0.6028 -0.1122
   43MOL    C29 5153   5.175   5.116   7.871 -0.1608 -0.0752  0.2962
   43MOL    H30 5154   5.236   5.114   7.781  0.7920 -1.9279  0.9460
   43MOL    H31 5155   5.234   5.178   7.938 -1.4671  1.3218  0.1777
   43MOL    C32 5156   5.187   4.975   7.931  0.5137  0.2191 -0.6223
   43MOL   Cl33 5157   5.358   4.937   7.967 -0.3438 -0.2101 -0.3225
   43MOL   Cl34 5158   5.136   4.857   7.817  0.4719  0.3164 -0.0228
   43MOL    C35 5159   5.119   4.943   8.062  0.4297  0.2307 -0.1555
   43MOL    H36 5160   5.012   4.956   8.045  0.5095  1.7333  0.3886
   43MOL    H37 5161   5.126   4.834   8.064 -0.5837  0.1620  0.1829
   43MOL    C38 5162   5.153   4.993   8.207  0.3318 -0.3058 -0.1222
   43MOL   Cl39 5163   4.997   5.015   8.285 -0.2378 -0.3032 -0.0073
   43MOL   Cl40 5164   5.227   5.160   8.208 -0.2172 -0.0997 -0.0312
   43MOL    C41 5165   5.244   4.901   8.291 -0.6277  0.3576  0.2238
   43MOL    H42 5166   5.234   4.800   8.252 -0.0512  0.7318 -0.9377
   43MOL    H43 5167   5.349   4.921   8.270 -0.8351  0.4434 -0.7531
   43MOL    C44 5168   5.236   4.893   8.446 -0.6522 -0.6065  1.1168
   43MOL   Cl45 5169   5.373   4.784   8.508  0.1021  0.3559  0.0358
   43MOL   Cl46 5170   5.090   4.806   8.496 -0.3678  0.1173  0.1657
   43MOL    C47 5171   5.253   5.028   8.510  0.2779  0.1131 -0.2826
   43MOL    H48 5172   5.350   5.067   8.481  1.3748 -1.5380  1.1159
   43MOL    H49 5173   5.181   5.087   8.454 -0.3737 -1.0287 -0.6685
   43MOL    C50 5174   5.246   5.050   8.665  0.5120 -1.2228  0.7493
   43MOL   Cl51 5175   5.377   4.976   8.760 -0.0642 -0.1811  0.0501
   43MOL   Cl52 5176   5.098   4.989   8.748  0.2441 -0.4378 -0.6009
   43MOL    C53 5177   5.248   5.200   8.699 -0.7887 -0.7549 -0.2084
   43MOL    H54 5178   5.145   5.230   8.677 -0.1913  0.9663 -0.7185
   43MOL    H55 5179   5.248   5.218   8.807 -2.0484 -1.0195 -0.1484
   43MOL    C56 5180   5.340   5.307   8.626 -0.0070 -0.3846  0.4699
   43MOL   Cl57 5181   5.275   5.340   8.464 -0.2495  0.1273  0.3076
   43MOL   Cl58 5182   5.507   5.246   8.606 -0.1957 -0.1594 -0.0583
   43MOL    C59 5183   5.363   5.444   8.708 -0.3436 -0.3739  0.7151
   43MOL    H60 5184   5.394   5.418   8.809  0.0803 -0.6073  0.5240
   43MOL    H61 5185   5.449   5.495   8.665  0.7736 -0.6229  2.6268
   43MOL    C62 5186   5.248   5.546   8.720  0.3537  0.0140  0.0750
   43MOL   Cl63 5187   5.095   5.468   8.776 -0.2961 -0.4002  0.8053
   43MOL   Cl64 5188   5.213   5.637   8.569  0.0490 -0.2322 -0.2108
   43MOL    C65 5189   5.282   5.650   8.837  0.0474 -0.3390  0.7090
   43MOL    H66 5190   5.202   5.723   8.828 -0.4941 -0.8086  1.6333
   43MOL    H67 5191   5.289   5.586   8.926  2.4453 -1.7501 -0.4268
   43MOL    C68 5192   5.410   5.733   8.841 -0.1349  0.4336  0.0810
   43MOL   Cl69 5193   5.448   5.807   8.678  0.4180  0.4051  0.3790
   43MOL   Cl70 5194   5.547   5.628   8.877 -0.0436  0.2635  0.1932
   43MOL    C71 5195   5.407   5.852   8.943  0.2818  0.0934  0.0195
   43MOL    H72 5196   5.488   5.916   8.909  1.0830 -1.0170 -0.2100
   43MOL    H73 5197   5.322   5.917   8.920 -0.8760 -1.7586 -1.0884
   43MOL    C74 5198   5.415   5.844   9.101 -0.3791  0.2252  0.3297
   43MOL   Cl75 5199   5.360   5.996   9.157 -0.0799 -0.3593  0.0868
   43MOL   Cl76 5200   5.587   5.830   9.152 -0.1449 -0.1250  0.4748
   43MOL    C77 5201   5.342   5.726   9.159 -0.1475  0.4524  0.1299
   43MOL    H78 5202   5.258   5.702   9.093  0.5388  0.4340 -0.7491
   43MOL    H79 5203   5.394   5.630   9.161 -0.8274  0.0758  0.1966
   43MOL    C80 5204   5.274   5.737   0.116 -0.1686  0.2287  0.2165
   43MOL   Cl81 5205   5.225   5.564   0.144 -0.0470 -0.2633 -0.1509
   43MOL   Cl82 5206   5.121   5.823   0.096 -0.2529 -0.1987  0.2251
   43MOL    C83 5207   5.360   5.780   0.237 -0.4850  0.0183 -0.3837
   43MOL    H84 5208   5.455   5.727   0.239 -0.1984  0.5090 -0.9133
   43MOL    H85 5209   5.386   5.886   0.225  0.6773 -0.1576  0.5657
   43MOL    C86 5210   5.313   5.770   0.383  0.1961 -0.2314  0.4199
   43MOL   Cl87 5211   5.328   5.599   0.435  0.0673  0.6652 -0.3252
   43MOL   Cl88 5212   5.145   5.806   0.409  0.0523 -0.4080 -0.0809
   43MOL    C89 5213   5.382   5.860   0.491 -0.6780  0.4866  0.1508
   43MOL    H90 5214   5.347   5.962   0.477 -0.2811  0.5849 -0.1443
   43MOL    H91 5215   5.328   5.837   0.582 -0.7785 -1.3471 -0.3497
   43MOL    C92 5216   5.537   5.873   0.513 -0.6314 -0.2729 -0.1548
   43MOL   Cl93 5217   5.630   5.901   0.367  0.3471  0.0794  0.2367
   43MOL   Cl94 5218   5.606   5.721   0.568  0.1181 -0.3837  0.1405
   43MOL    C95 5219   5.578   5.986   0.610 -0.1996  0.8428 -0.6607
   43MOL    H96 5220   5.687   5.977   0.606 -0.1572  0.4542  1.0928
   43MOL    H97 5221   5.554   6.086   0.573  2.0729  1.3928 -0.7581
   43MOL    C98 5222   5.538   5.999   0.762 -0.4001  0.3392 -0.2342
   43MOL   Cl99 5223   5.560   5.850   0.851 -0.3685  0.1541 -0.0792
   43MOL  Cl100 5224   5.369   6.037   0.773 -0.2506 -0.0409  0.0458
   43MOL   C101 5225   5.620   6.100   0.854 -0.5583 -0.0738  0.2713
   43MOL   H102 5226   5.557   6.119   0.941 -2.7816  2.8774 -1.8782
   43MOL   H103 5227   5.711   6.049   0.884  0.4247  3.1284  3.0522
   43MOL   C104 5228   5.652   6.243   0.803  0.9339 -0.3069  0.8121
   43MOL  Cl105 5229   5.514   6.318   0.715  0.4670  0.3499  0.3054
   43MOL  Cl106 5230   5.779   6.224   0.677 -0.3466 -0.2997  0.2661
   43MOL   C107 5231   5.696   6.343   0.907  1.1114 -0.1945  0.3243
   43MOL   H108 5232   5.732   6.422   0.841  0.2017  0.5780  0.7527
   43MOL   H109 5233   5.606   6.373   0.960  2.2598 -0.0450  2.2437
   43MOL   C110 5234   5.803   6.313   1.017  0.0881 -0.3964  0.0424
   43MOL  Cl111 5235   5.958   6.267   0.939  0.3407  0.0696 -0.4516
   43MOL  Cl112 5236   5.750   6.175   1.118  0.0779 -0.1791 -0.0387
   43MOL   C113 5237   5.825   6.434   1.108 -1.0717 -0.5541  0.9181
   43MOL   H114 5238   5.729   6.457   1.154 -0.9673  2.6316 -0.3898
   43MOL   H115 5239   5.898   6.397   1.181 -0.6754 -0.0016  0.8007
   43MOL   C116 5240   5.886   6.568   1.059  0.5469 -0.0453  0.4984
   43MOL  Cl117 5241   5.928   6.664   1.203 -0.2566 -0.0396 -0.1904
   43MOL  Cl118 5242   5.768   6.650   0.966  0.1369  0.5556 -0.4546
   43MOL   C119 5243   6.016   6.571   0.994  0.7165 -0.1928  0.3614
   43MOL   H120 5244   6.089   6.503   1.038  0.8432  0.0787  0.5714
   43MOL   H121 5245   6.010   6.539   0.890 -2.7679  1.5243 -0.0407
   43MOL   H122 5246   6.061   6.670   0.979 -0.1482  0.1234 -0.1734
   44MOL     C1 5247   7.379   7.046   6.544 -0.0974 -0.7554 -0.5428
   44MOL    Cl2 5248   7.479   7.176   6.478  0.1491 -0.0168  0.1434
   44MOL    Cl3 5249   7.369   6.920   6.424 -0.4710  0.0256  0.1552
   44MOL     C4 5250   7.443   6.982   6.678 -0.3500 -0.0435  0.1529
   44MOL     H5 5251   7.409   6.879   6.690  0.2434 -0.1460  0.9862
   44MOL     H6 5252   7.549   6.968   6.657 -0.2191  0.5385  0.4415
   44MOL     H7 5253   7.275   7.075   6.561 -0.2160 -1.1412 -0.5887
   44MOL     C8 5254   7.420   7.060   6.807  0.6705  0.0011 -0.5553
   44MOL    Cl9 5255   7.247   7.123   6.813  0.0845 -0.5087 -0.4470
   44MOL   Cl10 5256   7.532   7.191   6.801 -0.3229 -0.0626  0.3342
   44MOL    C11 5257   7.448   6.983   6.937 -0.1597 -0.8175  0.2971
   44MOL    H12 5258   7.534   6.925   6.904 -0.4715 -1.1937  0.1409
   44MOL    H13 5259   7.496   7.049   7.009  1.1209  0.0788 -1.3385
   44MOL    C14 5260   7.342   6.907   7.004 -0.1477 -0.0551 -0.2305
   44MOL   Cl15 5261   7.431   6.792   7.096 -0.0573  0.5618 -0.0784
   44MOL   Cl16 5262   7.249   6.803   6.890 -0.0829 -0.1696 -0.4465
   44MOL    C17 5263   7.245   6.972   7.107  0.1081 -0.5582  0.1905
   44MOL    H18 5264   7.164   7.004   7.042 -0.9309 -0.2967  1.6017
   44MOL    H19 5265   7.187   6.896   7.159  0.8394  0.4597  2.5888
   44MOL    C20 5266   7.301   7.081   7.201  0.0015 -0.4063 -0.3355
   44MOL   Cl21 5267   7.309   7.244   7.117 -0.4360 -0.6699 -0.2955
   44MOL   Cl22 5268   7.458   7.034   7.283 -0.0508  0.1178 -0.1241
   44MOL    C23 5269   7.211   7.094   7.332  0.0531 -0.5220  0.4233
   44MOL    H24 5270   7.210   6.995   7.376 -0.5972 -1.3924 -1.5029
   44MOL    H25 5271   7.253   7.159   7.409  1.4927  0.2551 -0.9818
   44MOL    C26 5272   7.054   7.125   7.329 -0.3391  0.1886 -0.2210
   44MOL   Cl27 5273   6.959   7.027   7.216  0.1929  0.3892  0.0559
   44MOL   Cl28 5274   7.043   7.296   7.282  0.8886  0.1656 -0.1952
   44MOL    C29 5275   6.993   7.114   7.475  0.1668 -0.1068  0.1493
   44MOL    H30 5276   6.891   7.152   7.480  1.1960  2.6562  1.1347
   44MOL    H31 5277   6.964   7.009   7.483 -1.2895  0.5144  4.3996
   44MOL    C32 5278   7.064   7.143   7.616 -0.1272 -0.0800 -0.1447
   44MOL   Cl33 5279   7.120   7.313   7.616  0.4252  0.0218  0.2656
   44MOL   Cl34 5280   7.204   7.035   7.647  0.3284 -0.0837 -0.5401
   44MOL    C35 5281   6.973   7.138   7.736  0.2972  0.1366 -0.0553
   44MOL    H36 5282   7.028   7.151   7.829  0.4888 -2.8307  0.3209
   44MOL    H37 5283   6.904   7.220   7.718 -2.7907 -1.6847  2.7932
   44MOL    C38 5284   6.877   7.014   7.765  0.3492  0.1539  0.8075
   44MOL   Cl39 5285   6.967   6.856   7.755 -0.2737  0.0875 -0.0991
   44MOL   Cl40 5286   6.743   7.006   7.649 -0.3682 -0.2494 -0.3277
   44MOL    C41 5287   6.814   7.023   7.911 -0.6546 -0.0044  0.6033
   44MOL    H42 5288   6.754   6.932   7.920  0.3206 -0.6143  1.0842
   44MOL    H43 5289   6.891   7.001   7.986 -1.1528 -1.6990  0.6513
   44MOL    C44 5290   6.734   7.148   7.964  0.2489  0.7809  0.0559
   44MOL   Cl45 5291   6.602   7.206   7.852 -0.1021 -0.5387  0.1265
   44MOL   Cl46 5292   6.840   7.289   7.975  0.1420 -0.3176 -0.0092
   44MOL    C47 5293   6.677   7.141   8.106 -0.0983  0.1214  0.2224
   44MOL    H48 5294   6.759   7.135   8.178 -1.6154  1.2703  2.0926
   44MOL    H49 5295   6.616   7.228   8.130  0.5737  1.4827 -2.7907
   44MOL    C50 5296   6.597   7.015   8.150  0.0764 -0.2692 -0.8791
   44MOL   Cl51 5297   6.680   6.859   8.137 -0.0425 -0.0652  0.1144
   44MOL   Cl52 5298   6.448   7.009   8.049  0.2572 -0.1474 -0.0095
   44MOL    C53 5299   6.548   7.012   8.295 -0.0114  0.8050 -0.2411
   44MOL    H54 5300   6.461   6.947   8.294  1.3293 -1.1660  3.8166
   44MOL    H55 5301   6.611   6.955   8.363 -0.9710  0.9100  0.7410
   44MOL    C56 5302   6.502   7.144   8.370 -0.0614 -0.1245  0.1043
   44MOL   Cl57 5303   6.394   7.240   8.277 -0.2046 -0.2986  0.2892
   44MOL   Cl58 5304   6.636   7.257   8.398 -0.6798 -0.3883 -0.2984
   44MOL    C59 5305   6.421   7.117   8.507  0.0427 -0.1885  0.5856
   44MOL    H60 5306   6.386   7.213   8.545 -1.6888 -0.1281 -1.1039
   44MOL    H61 5307   6.324   7.071   8.491 -0.1506 -0.0074  1.1911
   44MOL    C62 5308   6.481   7.032   8.627 -0.3432  0.3563 -1.1078
   44MOL   Cl63 5309   6.644   7.100   8.674  0.2442 -0.5266  0.2401
   44MOL   Cl64 5310   6.487   6.866   8.569 -0.0263 -0.3777 -0.1856
   44MOL    C65 5311   6.402   7.037   8.758 -0.0046 -0.3742 -0.2352
   44MOL    H66 5312   6.435   7.134   8.796 -0.1423 -0.9143  1.2848
   44MOL    H67 5313   6.297   7.059   8.743 -0.0761 -0.2389  0.4282
   44MOL    C68 5314   6.419   6.934   8.870  0.3292 -0.2707 -0.0123
   44MOL   Cl69 5315   6.587   6.872   8.895  0.0902  0.1533 -0.1253
   44MOL   Cl70 5316   6.320   6.791   8.829 -0.1717 -0.0189 -0.3785
   44MOL    C71 5317   6.357   6.988   9.000  0.5554 -0.7063 -0.3416
   44MOL    H72 5318   6.249   6.974   8.997  0.8024 -2.7271 -0.1937
   44MOL    H73 5319   6.378   6.916   9.079 -0.3112  0.7017  1.1997
   44MOL    C74 5320   6.395   7.132   9.050 -0.0134 -0.0672  0.0315
   44MOL   Cl75 5321   6.297   7.249   8.963 -0.1028 -0.1443 -0.4537
   44MOL   Cl76 5322   6.562   7.173   9.011  0.1160  0.0214  0.1738
   44MOL    C77 5323   6.371   7.164   0.022  0.0352 -0.1705 -0.2378
   44MOL    H78 5324   6.364   7.272   0.031 -2.0206 -0.3249  0.1514
   44MOL    H79 5325   6.273   7.123   0.045  0.3798 -1.5175 -1.1051
   44MOL    C80 5326   6.466   7.114   0.134  0.2207  0.1746  0.9208
   44MOL   Cl81 5327   6.631   7.171   0.119  0.1202 -0.3125  0.1399
   44MOL   Cl82 5328   6.472   6.938   0.140  0.2519 -0.2334 -0.0929
   44MOL    C83 5329   6.422   7.174   0.272 -0.1556  0.7246  0.3434
   44MOL    H84 5330   6.477   7.127   0.353  0.7282  2.0081  0.5081
   44MOL    H85 5331   6.444   7.281   0.270 -0.3056  0.7408 -0.4030
   44MOL    C86 5332   6.273   7.177   0.320  0.0564 -0.1598 -0.3614
   44MOL   Cl87 5333   6.182   7.025   0.271 -0.1423 -0.0732  0.4833
   44MOL   Cl88 5334   6.185   7.316   0.242  0.1408  0.4935 -0.0801
   44MOL    C89 5335   6.270   7.177   0.475 -0.5379 -0.7071  0.2429
   44MOL    H90 5336   6.161   7.172   0.488 -0.3491 -1.6199  1.6049
   44MOL    H91 5337   6.317   7.084   0.506  1.2272  0.1925  0.2886
   44MOL    C92 5338   6.331   7.291   0.558 -0.8963 -0.4509  0.0350
   44MOL   Cl93 5339   6.251   7.455   0.532  0.2696 -0.0331  0.0734
   44MOL   Cl94 5340   6.499   7.315   0.521  0.2728 -0.1517 -0.0973
   44MOL    C95 5341   6.321   7.272   0.713  0.3660 -0.2065 -0.8703
   44MOL    H96 5342   6.390   7.343   0.758  0.2867  0.7011 -2.1783
   44MOL    H97 5343   6.223   7.308   0.744 -0.4767 -3.5337  0.5385
   44MOL    C98 5344   6.341   7.138   0.789  0.2161 -0.4131  0.0918
   44MOL   Cl99 5345   6.490   7.065   0.731 -0.2010  0.0912 -0.1166
   44MOL  Cl100 5346   6.200   7.030   0.754 -0.1465 -0.2819  0.5765
   44MOL   C101 5347   6.366   7.164   0.949  0.2617  0.4731 -0.5292
   44MOL   H102 5348   6.471   7.190   0.950 -0.0169  1.6000  0.1597
   44MOL   H103 5349   6.308   7.254   0.971 -1.1293 -0.4060 -0.4949
   44MOL   C104 5350   6.344   7.045   1.050  1.0839  0.5053  0.3129
   44MOL  Cl105 5351   6.423   7.087   1.206 -0.2483 -0.3680 -0.1425
   44MOL  Cl106 5352   6.434   6.898   0.999 -0.2913 -0.2003  0.1362
   44MOL   C107 5353   6.195   7.004   1.080 -0.0991  0.2856 -0.0561
   44MOL   H108 5354   6.160   6.939   1.000  0.2978  0.0423 -0.0292
   44MOL   H109 5355   6.197   6.938   1.167 -3.7126 -1.2850 -1.0522
   44MOL   C110 5356   6.079   7.108   1.116  1.0188 -0.0629 -0.0652
   44MOL  Cl111 5357   6.038   7.192   0.962 -0.4905 -0.2261 -0.0330
   44MOL  Cl112 5358   6.127   7.226   1.234  0.3485  0.1211 -0.0474
   44MOL   C113 5359   5.966   7.032   1.178  0.2744 -0.1368 -0.1594
   44MOL   H114 5360   5.942   6.950   1.111 -1.2091 -1.8730  2.3986
   44MOL   H115 5361   6.001   6.996   1.275  0.1865  1.2832  0.4204
   44MOL   C116 5362   5.819   7.087   1.207 -0.1171 -0.8787 -0.1658
   44MOL  Cl117 5363   5.734   6.994   1.339 -0.5605  0.1520  0.2403
   44MOL  Cl118 5364   5.720   7.070   1.064 -0.1955  0.0930 -0.3862
   44MOL   C119 5365   5.817   7.238   1.247  0.4451  0.0007 -0.0893
   44MOL   H120 5366   5.868   7.262   1.341 -0.9031 -0.9725  0.9202
   44MOL   H121 5367   5.872   7.295   1.173 -0.3553 -2.1205 -2.3704
   44MOL   H122 5368   5.712   7.267   1.261  0.6350 -0.1096  1.6968
   45MOL     C1 5369   5.764   2.020   6.248  0.4034 -0.1976 -0.5518
   45MOL    Cl2 5370   5.866   2.004   6.393  0.3187  0.4945 -0.2445
   45MOL    Cl3 5371   5.833   2.130   6.131  0.4816  0.1129  0.4543
   45MOL     C4 5372   5.712   1.888   6.184 -0.0255 -0.4283  0.4095
   45MOL     H5 5373   5.781   1.858   6.105 -0.9449 -1.0845 -0.1431
   45MOL     H6 5374   5.732   1.812   6.259 -1.6702 -0.4291  0.8670
   45MOL     H7 5375   5.678   2.082   6.275  1.3185  2.0723 -2.6376
   45MOL     C8 5376   5.564   1.888   6.134 -0.0845 -0.9045  0.3760
   45MOL    Cl9 5377   5.556   2.039   6.033 -0.1282 -0.4828  0.1121
   45MOL   Cl10 5378   5.441   1.903   6.259  0.0654 -0.0367 -0.1580
   45MOL    C11 5379   5.525   1.774   6.035 -0.6070  0.5455 -0.0846
   45MOL    H12 5380   5.416   1.761   6.030 -0.2711 -3.6957  1.2703
   45MOL    H13 5381   5.554   1.810   5.936  2.7428 -0.1174  0.6065
   45MOL    C14 5382   5.590   1.627   6.048  0.1572  0.2319  0.1687
   45MOL   Cl15 5383   5.610   1.596   6.217  0.3987  0.0829  0.3696
   45MOL   Cl16 5384   5.752   1.629   5.976  0.3232  0.1205 -0.2338
   45MOL    C17 5385   5.500   1.511   5.994 -0.2702  0.6199 -0.0050
   45MOL    H18 5386   5.528   1.414   6.036 -2.7204 -0.6959 -1.2862
   45MOL    H19 5387   5.402   1.503   6.042 -0.4673  0.2565 -0.4588
   45MOL    C20 5388   5.468   1.507   5.840  0.3887 -0.2674 -0.3499
   45MOL   Cl21 5389   5.395   1.660   5.786  0.1406  0.2013 -0.2647
   45MOL   Cl22 5390   5.359   1.374   5.814  0.2011 -0.1604  0.1673
   45MOL    C23 5391   5.591   1.480   5.755  0.0011 -0.1775  0.1705
   45MOL    H24 5392   5.646   1.575   5.746 -1.5565  0.9499  2.1830
   45MOL    H25 5393   5.664   1.428   5.817 -0.9538  0.8333  2.2045
   45MOL    C26 5394   5.602   1.406   5.618 -1.0757  0.1876  0.1519
   45MOL   Cl27 5395   5.767   1.440   5.564  0.0745  0.0435  0.0544
   45MOL   Cl28 5396   5.507   1.499   5.503 -0.0021  0.2362 -0.6825
   45MOL    C29 5397   5.574   1.252   5.599 -0.2189  0.8752  0.4543
   45MOL    H30 5398   5.468   1.240   5.617 -0.7334 -0.5419 -3.2146
   45MOL    H31 5399   5.568   1.233   5.492 -0.4531  0.0996  0.6045
   45MOL    C32 5400   5.653   1.144   5.666  0.2215  0.6927 -0.2430
   45MOL   Cl33 5401   5.628   1.180   5.841 -0.0383 -0.3427 -0.2693
   45MOL   Cl34 5402   5.836   1.144   5.633  0.3679 -0.4778  0.2357
   45MOL    C35 5403   5.595   1.002   5.655  0.1136  0.5918  0.5384
   45MOL    H36 5404   5.636   0.942   5.736  2.2518 -0.2784 -1.1836
   45MOL    H37 5405   5.493   1.013   5.692  0.0498 -3.6141  1.8766
   45MOL    C38 5406   5.611   0.910   5.526 -0.4546  0.3118  0.2890
   45MOL   Cl39 5407   5.779   0.905   5.471  0.0279  0.0345 -0.1808
   45MOL   Cl40 5408   5.517   0.976   5.389  0.0278 -0.0253  0.0581
   45MOL    C41 5409   5.568   0.762   5.565  0.1918 -0.3705 -0.4022
   45MOL    H42 5410   5.605   0.692   5.490  1.4354 -0.8848  0.6916
   45MOL    H43 5411   5.615   0.739   5.660 -1.6609 -0.4521  0.5187
   45MOL    C44 5412   5.419   0.721   5.596  0.0071  0.8250  0.9674
   45MOL   Cl45 5413   5.331   0.751   5.444 -0.3198 -0.0565  0.2517
   45MOL   Cl46 5414   5.335   0.809   5.729  0.0186  0.1987  0.0699
   45MOL    C47 5415   5.395   0.569   5.619  0.4566 -0.5580 -0.0020
   45MOL    H48 5416   5.288   0.548   5.625  0.1529  1.1282  1.0277
   45MOL    H49 5417   5.422   0.521   5.525 -1.3840  0.1262 -0.9180
   45MOL    C50 5418   5.455   0.484   5.730 -0.8061 -1.0903  0.0296
   45MOL   Cl51 5419   5.411   0.536   5.887  0.5869  0.0854 -0.1630
   45MOL   Cl52 5420   5.634   0.486   5.715  0.1628  0.0487 -0.1509
   45MOL    C53 5421   5.419   0.327   5.725 -0.0861 -0.3177  0.0722
   45MOL    H54 5422   5.483   0.273   5.655  2.1010 -0.2760  1.9875
   45MOL    H55 5423   5.448   0.294   5.824  1.1420 -0.9286 -0.4868
   45MOL    C56 5424   5.275   0.262   5.706 -0.3058  0.5080  0.2019
   45MOL   Cl57 5425   5.244   0.276   5.528  0.3441 -0.5011 -0.4537
   45MOL   Cl58 5426   5.139   0.357   5.784 -0.0781 -0.0086  0.3693
   45MOL    C59 5427   5.247   0.111   5.737  0.2565 -0.3203 -0.5828
   45MOL    H60 5428   5.140   0.091   5.734  0.0062  0.6098  1.3406
   45MOL    H61 5429   5.270   0.054   5.647 -0.4043  3.2003 -3.1126
   45MOL    C62 5430   5.307   0.047   5.867  0.1848 -0.2498  0.5810
   45MOL   Cl63 5431   5.298   0.152   6.007 -0.1012 -0.2386  0.2493
   45MOL   Cl64 5432   5.479   0.021   5.834  0.2188  0.0319 -0.0918
   45MOL    C65 5433   5.258   9.078   5.900 -0.2173 -0.1375  0.3187
   45MOL    H66 5434   5.292   9.013   5.819 -2.2737 -1.7670  0.7165
   45MOL    H67 5435   5.307   9.051   5.994  0.8113  1.0195  0.1297
   45MOL    C68 5436   5.105   9.039   5.914 -0.3954 -0.6210  0.2925
   45MOL   Cl69 5437   5.113   8.870   5.968  0.1829 -0.3086 -0.0436
   45MOL   Cl70 5438   5.029   9.052   5.759  0.1766 -0.2033  0.0441
   45MOL    C71 5439   5.048   9.130   6.023 -0.3197  0.6489 -1.2427
   45MOL    H72 5440   5.125   9.147   6.098 -2.2360  1.2492  0.6328
   45MOL    H73 5441   5.039   0.050   5.980  3.5685  1.9701  0.7760
   45MOL    C74 5442   4.915   9.101   6.107 -0.0349 -1.0941 -0.2970
   45MOL   Cl75 5443   4.943   8.953   6.209  0.7640  0.1057  0.3538
   45MOL   Cl76 5444   4.780   9.080   5.986 -0.3181  0.4614  0.1115
   45MOL    C77 5445   4.885   0.044   6.200  0.1386 -0.4790 -0.0233
   45MOL    H78 5446   4.969   0.098   6.244  1.4316 -1.6598 -1.0058
   45MOL    H79 5447   4.837   0.117   6.134 -1.1827  0.0325  1.4575
   45MOL    C80 5448   4.775   0.024   6.316 -0.2206 -0.4163  0.3282
   45MOL   Cl81 5449   4.726   0.192   6.360 -0.0062 -0.2059  0.1295
   45MOL   Cl82 5450   4.874   9.158   6.454  0.3200 -0.4029 -0.1054
   45MOL    C83 5451   4.651   9.106   6.290  0.1956 -0.2085 -0.9814
   45MOL    H84 5452   4.590   9.155   6.214  0.9233  0.5646 -1.0699
   45MOL    H85 5453   4.694   9.015   6.249 -0.2035 -0.3136 -1.1776
   45MOL    C86 5454   4.562   9.074   6.413 -0.0969  0.4151 -0.2559
   45MOL   Cl87 5455   4.415   8.993   6.338 -0.2380  0.0855  0.0142
   45MOL   Cl88 5456   4.510   0.030   6.511 -0.1322  0.0007  0.2225
   45MOL    C89 5457   4.621   8.966   6.510  0.4787  0.3025 -0.4812
   45MOL    H90 5458   4.678   8.893   6.453 -1.2771 -1.3576 -0.1260
   45MOL    H91 5459   4.685   9.021   6.580 -0.7689  2.2316 -0.8148
   45MOL    C92 5460   4.536   8.886   6.604 -0.6127  0.6700 -0.6959
   45MOL   Cl93 5461   4.657   8.814   6.715  0.0982 -0.3547  0.0505
   45MOL   Cl94 5462   4.464   8.744   6.515 -0.0829 -0.0797  0.1658
   45MOL    C95 5463   4.430   8.953   6.698  0.3210 -0.2412  0.1722
   45MOL    H96 5464   4.479   9.011   6.777 -0.3544 -0.8688  1.0626
   45MOL    H97 5465   4.375   9.032   6.645 -2.0514 -1.3160  0.9475
   45MOL    C98 5466   4.328   8.862   6.778  0.4473  0.3250 -0.6674
   45MOL   Cl99 5467   4.194   8.802   6.677 -0.2032  0.1878  0.2536
   45MOL  Cl100 5468   4.244   8.963   6.890 -0.0823 -0.0836 -0.3409
   45MOL   C101 5469   4.389   8.742   6.857 -0.2894  0.1191 -0.3373
   45MOL   H102 5470   4.429   8.665   6.792 -3.2707  0.0420 -2.1839
   45MOL   H103 5471   4.472   8.786   6.911  1.8105 -2.5464 -1.3029
   45MOL   C104 5472   4.310   8.658   6.973  0.1867  0.7158  0.0628
   45MOL  Cl105 5473   4.309   8.748   7.125  0.0377 -0.0648  0.2380
   45MOL  Cl106 5474   4.424   8.522   6.994  0.0517  0.2096  0.0137
   45MOL   C107 5475   4.167   8.598   6.937  0.8060 -0.1977 -0.6034
   45MOL   H108 5476   4.110   8.686   6.909 -0.5344 -0.1585  2.0659
   45MOL   H109 5477   4.181   8.525   6.858 -0.5623 -0.5600 -0.5250
   45MOL   C110 5478   4.078   8.542   7.053 -0.1321 -0.1828  0.8022
   45MOL  Cl111 5479   3.986   8.667   7.145  0.3183  0.1778  0.3508
   45MOL  Cl112 5480   4.185   8.458   7.175 -0.2852 -0.9053  0.2194
   45MOL   C113 5481   3.972   8.446   6.986 -0.0964  0.7467 -0.6357
   45MOL   H114 5482   4.023   8.352   6.962  0.4181  0.5667  1.0759
   45MOL   H115 5483   3.913   8.412   7.071  0.4227 -0.1407 -0.6179
   45MOL   C116 5484   3.870   8.485   6.874 -0.0539  1.0109 -0.5325
   45MOL  Cl117 5485   3.946   8.569   6.732 -0.0789  0.1142  0.2249
   45MOL  Cl118 5486   3.741   8.591   6.932  0.0040  0.3006  0.2378
   45MOL   C119 5487   3.794   8.361   6.827 -0.2765  0.5012  0.3153
   45MOL   H120 5488   3.723   8.336   6.907  0.6867  0.8199  1.2836
   45MOL   H121 5489   3.744   8.369   6.731  0.2280  0.8879  0.0832
   45MOL   H122 5490   3.850   8.269   6.812 -0.7308  0.2432  0.1802
   46MOL     C1 5491   1.996   9.173   3.096 -0.1832 -0.4347 -0.9625
   46MOL    Cl2 5492   1.903   9.031   3.168  0.2925 -0.0385 -0.2296
   46MOL    Cl3 5493   1.876   0.105   3.031 -0.0002 -0.1548 -0.1208
   46MOL     C4 5494   2.078   0.062   3.207  0.0877  0.1008 -0.6198
   46MOL     H5 5495   2.091   0.166   3.177 -1.1206  0.7919  1.1742
   46MOL     H6 5496   2.011   0.067   3.293  1.6480  1.2476  0.5616
   46MOL     H7 5497   2.064   9.144   3.017  0.6579  0.1702 -0.4764
   46MOL     C8 5498   2.225   0.015   3.244 -0.2520 -0.1709  0.4093
   46MOL    Cl9 5499   2.333   0.028   3.108 -0.1711  0.0544 -0.1555
   46MOL   Cl10 5500   2.207   9.025   3.283 -0.1321  0.2392 -0.0880
   46MOL    C11 5501   2.292   0.070   3.376 -0.5243 -0.3233 -0.2295
   46MOL    H12 5502   2.241   0.039   3.467  0.8872  1.4583  1.2139
   46MOL    H13 5503   2.391   0.024   3.381 -0.2282  0.1909 -1.2046
   46MOL    C14 5504   2.318   0.220   3.404  0.0624 -0.4641  0.0629
   46MOL   Cl15 5505   2.163   0.307   3.410 -0.0461 -0.1283 -0.2771
   46MOL   Cl16 5506   2.428   0.275   3.269  0.0681  0.2385  0.0676
   46MOL    C17 5507   2.399   0.237   3.536 -0.0825 -0.3019 -0.4104
   46MOL    H18 5508   2.355   0.159   3.600  0.1703 -0.7948 -0.8346
   46MOL    H19 5509   2.498   0.202   3.507 -0.1894  0.3096 -1.5205
   46MOL    C20 5510   2.417   0.368   3.610 -0.3607  0.1436  0.2789
   46MOL   Cl21 5511   2.571   0.349   3.702 -0.1935  0.1732  0.1043
   46MOL   Cl22 5512   2.279   0.385   3.719  0.2545 -0.3794  0.7218
   46MOL    C23 5513   2.438   0.489   3.512 -0.2742  0.1573 -0.3820
   46MOL    H24 5514   2.511   0.468   3.433 -0.3701 -0.8486 -0.2096
   46MOL    H25 5515   2.352   0.495   3.446 -2.4115  1.7366  2.4091
   46MOL    C26 5516   2.462   0.637   3.565 -0.7397 -0.6206  0.7843
   46MOL   Cl27 5517   2.631   0.681   3.555  0.1350 -0.2553  0.3255
   46MOL   Cl28 5518   2.410   0.667   3.734 -0.1169 -0.2123 -0.4952
   46MOL    C29 5519   2.387   0.734   3.466 -0.2110 -0.2867  0.0536
   46MOL    H30 5520   2.455   0.818   3.453  0.2447 -0.8932 -1.4997
   46MOL    H31 5521   2.403   0.695   3.366 -1.2160  1.4246 -0.8084
   46MOL    C32 5522   2.238   0.778   3.488  0.1872 -0.4412 -0.1755
   46MOL   Cl33 5523   2.233   0.896   3.627 -0.1112 -0.3346  0.1908
   46MOL   Cl34 5524   2.130   0.647   3.533 -0.5723 -0.1298 -0.1048
   46MOL    C35 5525   2.179   0.859   3.368  0.0860 -0.7488  0.4487
   46MOL    H36 5526   2.077   0.891   3.390 -0.3863 -0.3462 -2.1183
   46MOL    H37 5527   2.233   0.954   3.357  1.1322 -1.5714 -1.9987
   46MOL    C38 5528   2.178   0.813   3.216  0.1783 -0.2290  0.0734
   46MOL   Cl39 5529   2.343   0.805   3.143  0.0833 -0.1597  0.0809
   46MOL   Cl40 5530   2.093   0.939   3.130 -0.0192 -0.1469  0.2909
   46MOL    C41 5531   2.122   0.666   3.198 -0.3501 -0.2417  0.1156
   46MOL    H42 5532   2.205   0.603   3.228 -1.2531 -1.9869 -0.9941
   46MOL    H43 5533   2.044   0.639   3.269 -0.2561  1.8144  1.0389
   46MOL    C44 5534   2.062   0.621   3.060 -0.1607 -0.2077 -0.5813
   46MOL   Cl45 5535   2.082   0.443   3.064 -0.1888 -0.0384 -0.0102
   46MOL   Cl46 5536   2.168   0.669   2.922 -0.6451  0.3505 -0.0959
   46MOL    C47 5537   1.914   0.652   3.024 -0.8027 -0.4581 -0.2006
   46MOL    H48 5538   1.905   0.753   2.984 -0.1787 -0.4527 -0.3342
   46MOL    H49 5539   1.883   0.602   2.932 -1.2179 -0.2001 -0.2008
   46MOL    C50 5540   1.803   0.620   3.123  0.3560 -0.3546 -0.3105
   46MOL   Cl51 5541   1.656   0.665   3.035 -0.1030  0.3907  0.3149
   46MOL   Cl52 5542   1.817   0.732   3.270  0.0491  0.0563 -0.1162
   46MOL    C53 5543   1.790   0.468   3.169 -0.0541  0.7146  0.3038
   46MOL    H54 5544   1.823   0.417   3.079  0.3170  1.4234  0.0387
   46MOL    H55 5545   1.866   0.461   3.247  0.7702 -1.2844 -0.6425
   46MOL    C56 5546   1.657   0.408   3.228  0.6691  0.1569  0.1970
   46MOL   Cl57 5547   1.702   0.252   3.303 -0.1267  0.1493  0.0647
   46MOL   Cl58 5548   1.554   0.382   3.081  0.0070 -0.2702 -0.1981
   46MOL    C59 5549   1.575   0.499   3.333 -0.5597 -0.9111  0.3111
   46MOL    H60 5550   1.646   0.521   3.413 -0.5395  0.8435 -0.1678
   46MOL    H61 5551   1.572   0.598   3.288  1.6936 -1.9563 -2.2679
   46MOL    C62 5552   1.438   0.464   3.400 -0.3269  0.1256 -0.7563
   46MOL   Cl63 5553   1.324   0.439   3.268 -0.2041  0.0828  0.0777
   46MOL   Cl64 5554   1.387   0.608   3.491  0.0583 -0.2333 -0.1420
   46MOL    C65 5555   1.443   0.340   3.492 -0.5011 -1.0044 -0.0162
   46MOL    H66 5556   1.508   0.262   3.452  0.2141 -0.1983 -0.4276
   46MOL    H67 5557   1.500   0.374   3.578  0.6642 -1.4242 -0.6025
   46MOL    C68 5558   1.316   0.265   3.541 -0.2339 -0.0402 -0.6727
   46MOL   Cl69 5559   1.196   0.377   3.607 -0.0968 -0.7428  0.3871
   46MOL   Cl70 5560   1.377   0.166   3.680  0.0906  0.2539 -0.2310
   46MOL    C71 5561   1.240   0.188   3.432 -0.2437 -0.0284 -0.4584
   46MOL    H72 5562   1.167   0.251   3.381  0.1303  0.8982  0.1323
   46MOL    H73 5563   1.312   0.170   3.352  0.8119  1.4136  0.1388
   46MOL    C74 5564   1.165   0.053   3.457  0.0065  0.0204 -0.3182
   46MOL   Cl75 5565   1.287   9.104   3.505  0.0223 -0.5573  0.4405
   46MOL   Cl76 5566   1.103   9.179   3.303  0.3154 -0.3056 -0.0146
   46MOL    C77 5567   1.051   0.075   3.560 -0.1201 -0.4546 -0.4613
   46MOL    H78 5568   1.093   0.091   3.660 -2.9492  2.6615  0.3302
   46MOL    H79 5569   1.012   0.174   3.534  1.3080  0.4667  0.7853
   46MOL    C80 5570   0.933   9.147   3.584  0.0812 -0.0286 -0.1335
   46MOL   Cl81 5571   0.992   8.982   3.555 -0.1160  0.4784 -0.1435
   46MOL   Cl82 5572   0.818   9.177   3.456 -0.3540  0.1465  0.2186
   46MOL    C83 5573   0.866   9.145   3.726 -0.9773  0.5245 -0.2301
   46MOL    H84 5574   0.810   9.052   3.725  1.5515 -1.0933  1.7323
   46MOL    H85 5575   0.952   9.127   3.791 -0.3515 -0.3026 -1.2832
   46MOL    C86 5576   0.771   0.078   3.776  0.3837  0.1628  0.1748
   46MOL   Cl87 5577   0.870   0.226   3.781 -0.0355 -0.2016  0.0163
   46MOL   Cl88 5578   0.723   0.013   3.933 -0.3530 -0.1585 -0.3566
   46MOL    C89 5579   0.643   0.103   3.688  0.3745  0.3061 -0.0878
   46MOL    H90 5580   0.672   0.150   3.594  2.8151 -0.9175  0.0210
   46MOL    H91 5581   0.607   0.005   3.657  0.0740  0.5510 -0.5159
   46MOL    C92 5582   0.527   0.188   3.752 -0.2153  0.4236  0.4604
   46MOL   Cl93 5583   0.427   0.076   3.843  0.1527 -0.2419 -0.2603
   46MOL   Cl94 5584   0.430   0.234   3.608 -0.0364 -0.3842  0.0254
   46MOL    C95 5585   0.564   0.319   3.833  0.5518 -0.5069  0.2083
   46MOL    H96 5586   0.605   0.274   3.924  0.0558  2.6898  2.0891
   46MOL    H97 5587   0.637   0.382   3.782 -0.2542  0.7958  0.6414
   46MOL    C98 5588   0.463   0.422   3.881  0.5190 -0.0650  0.2840
   46MOL   Cl99 5589   0.310   0.359   3.948  0.0073  0.0186  0.0257
   46MOL  Cl100 5590   0.412   0.513   3.737 -0.6311 -0.4107 -0.2824
   46MOL   C101 5591   0.515   0.533   3.975  0.1532  0.2877 -0.1429
   46MOL   H102 5592   0.577   0.602   3.917 -1.5968  2.0395  0.0091
   46MOL   H103 5593   0.428   0.596   3.994  0.6972  0.5866  1.4334
   46MOL   C104 5594   0.586   0.498   4.106 -0.6664  0.4869  0.1575
   46MOL  Cl105 5595   0.747   0.417   4.088  0.3850  0.3195 -0.2062
   46MOL  Cl106 5596   0.490   0.381   4.208 -0.1291 -0.0654 -0.3386
   46MOL   C107 5597   0.605   0.616   4.202  0.0065 -0.3376  0.4203
   46MOL   H108 5598   0.512   0.632   4.256 -1.9078  0.8539 -3.0809
   46MOL   H109 5599   0.667   0.568   4.278  0.4248 -1.0794 -0.3737
   46MOL   C110 5600   0.665   0.747   4.157 -0.3883 -0.2012 -0.1607
   46MOL  Cl111 5601   0.562   0.826   4.039 -0.0617 -0.0997 -0.1045
   46MOL  Cl112 5602   0.822   0.714   4.083  0.0963 -0.3246 -0.1629
   46MOL   C113 5603   0.686   0.859   4.269  1.0114  0.1635 -0.9238
   46MOL   H114 5604   0.752   0.933   4.224 -0.5039  1.7541 -0.5872
   46MOL   H115 5605   0.587   0.903   4.284  0.7242 -0.5706 -0.6501
   46MOL   C116 5606   0.746   0.816   4.409 -0.0847  0.8359  0.4987
   46MOL  Cl117 5607   0.902   0.738   4.382 -0.1212  0.5028  0.4496
   46MOL  Cl118 5608   0.630   0.718   4.502  0.4118 -0.1725  0.2175
   46MOL   C119 5609   0.772   0.940   4.495  0.5649 -0.5829  0.5349
   46MOL   H120 5610   0.835   1.007   4.436 -1.5465 -0.5855 -1.8231
   46MOL   H121 5611   0.683   0.986   4.539  0.8956 -0.2425  0.8511
   46MOL   H122 5612   0.830   0.908   4.581  1.4126  0.2754  0.2852
   47MOL     C1 5613   1.349   4.655   7.199  0.7210 -0.4305 -0.0037
   47MOL    Cl2 5614   1.465   4.675   7.062  0.2512 -0.0608  0.0852
   47MOL    Cl3 5615   1.199   4.592   7.122 -0.2494  0.2721 -0.2083
   47MOL     C4 5616   1.385   4.541   7.304 -0.0934  0.6061 -0.3465
   47MOL     H5 5617   1.295   4.493   7.341 -0.2996  2.1448  1.2469
   47MOL     H6 5618   1.445   4.471   7.247 -1.6198 -0.6979 -0.3676
   47MOL     H7 5619   1.328   4.747   7.253  0.1284  0.4117 -1.6593
   47MOL     C8 5620   1.462   4.603   7.427 -0.7753 -0.4229  0.0027
   47MOL    Cl9 5621   1.338   4.704   7.521 -0.0057 -0.1945  0.3001
   47MOL   Cl10 5622   1.592   4.723   7.368 -0.0197  0.4834 -0.6032
   47MOL    C11 5623   1.527   4.486   7.511  0.6381  0.1074  0.3978
   47MOL    H12 5624   1.471   4.394   7.495  1.8963 -0.9654  1.9959
   47MOL    H13 5625   1.626   4.469   7.467  0.6469  0.5424  0.2460
   47MOL    C14 5626   1.560   4.496   7.666  0.5549  1.2993 -0.0906
   47MOL   Cl15 5627   1.684   4.369   7.690 -0.2876  0.1529  0.5489
   47MOL   Cl16 5628   1.403   4.443   7.744  0.0905  0.2030 -0.3103
   47MOL    C17 5629   1.600   4.638   7.719  0.2605  0.5998  1.0428
   47MOL    H18 5630   1.652   4.698   7.644 -2.0217 -0.0361 -1.1341
   47MOL    H19 5631   1.503   4.685   7.735 -0.3939 -0.1204 -0.6454
   47MOL    C20 5632   1.661   4.657   7.865 -0.3046  0.4181  0.0037
   47MOL   Cl21 5633   1.830   4.598   7.853  0.1668 -0.2178 -0.2679
   47MOL   Cl22 5634   1.579   4.561   7.988  0.1853 -0.0879  0.2847
   47MOL    C23 5635   1.664   4.799   7.923  0.4630 -0.2459 -0.3827
   47MOL    H24 5636   1.571   4.826   7.973  0.4543 -1.0575  0.0581
   47MOL    H25 5637   1.740   4.794   8.000  0.3384 -1.5652 -0.3282
   47MOL    C26 5638   1.706   4.924   7.839  0.8009  0.2387  0.0839
   47MOL   Cl27 5639   1.584   4.981   7.719 -0.3632  0.0599 -0.0536
   47MOL   Cl28 5640   1.863   4.900   7.755 -0.2835 -0.0478 -0.0876
   47MOL    C29 5641   1.730   5.049   7.929  0.1727 -0.4841 -0.7266
   47MOL    H30 5642   1.827   5.053   7.979 -0.1380  4.2341 -0.2579
   47MOL    H31 5643   1.738   5.124   7.851 -1.9904  0.3783 -0.1436
   47MOL    C32 5644   1.625   5.101   8.036 -0.2363  0.3223  0.4213
   47MOL   Cl33 5645   1.636   4.988   8.177 -0.0814  0.4412  0.2007
   47MOL   Cl34 5646   1.448   5.083   7.983  0.3894 -0.1147 -0.0956
   47MOL    C35 5647   1.641   5.247   8.088 -0.3426 -0.1917  0.0701
   47MOL    H36 5648   1.549   5.245   8.146 -0.7424  0.1367 -0.5459
   47MOL    H37 5649   1.723   5.259   8.159 -0.3874 -1.5142  0.3515
   47MOL    C38 5650   1.643   5.367   7.996  0.0608  0.1212 -0.2831
   47MOL   Cl39 5651   1.807   5.386   7.923 -0.1406  0.2707 -0.4595
   47MOL   Cl40 5652   1.611   5.498   8.114  0.2999  0.2390 -0.3359
   47MOL    C41 5653   1.531   5.365   7.880 -0.1873  0.0448 -0.2382
   47MOL    H42 5654   1.548   5.275   7.820  3.1748  0.4119  0.0217
   47MOL    H43 5655   1.435   5.348   7.928  0.3638 -0.2914  0.7658
   47MOL    C44 5656   1.515   5.479   7.776  0.3309  0.4141  0.3135
   47MOL   Cl45 5657   1.369   5.427   7.684 -0.5630  0.0516 -0.0881
   47MOL   Cl46 5658   1.655   5.472   7.663  0.3237  0.0500  0.0026
   47MOL    C47 5659   1.510   5.616   7.840 -0.0863  0.2201 -0.7588
   47MOL    H48 5660   1.446   5.620   7.928  0.1166 -0.2389 -0.5875
   47MOL    H49 5661   1.609   5.637   7.882 -0.4469  0.8928 -0.2326
   47MOL    C50 5662   1.458   5.737   7.757  0.5093  0.1399  0.4487
   47MOL   Cl51 5663   1.488   5.883   7.863 -0.2096  0.2012  0.0451
   47MOL   Cl52 5664   1.277   5.735   7.744  0.4410 -0.2535 -0.2521
   47MOL    C53 5665   1.524   5.760   7.620  0.4078 -0.7056  0.4841
   47MOL    H54 5666   1.631   5.745   7.630  0.4307 -0.9233 -0.1128
   47MOL    H55 5667   1.495   5.680   7.552 -1.1361 -0.5937  0.9781
   47MOL    C56 5668   1.517   5.900   7.550  0.1398 -0.0254 -0.0942
   47MOL   Cl57 5669   1.572   5.884   7.372  0.1354 -0.0431  0.2238
   47MOL   Cl58 5670   1.640   6.004   7.624  0.2203  0.3814 -0.3710
   47MOL    C59 5671   1.375   5.970   7.559 -0.4436  0.0067 -0.5873
   47MOL    H60 5672   1.327   5.898   7.493  0.2333  0.2909 -1.3932
   47MOL    H61 5673   1.327   5.964   7.657 -1.6378  2.3601 -0.9857
   47MOL    C62 5674   1.337   6.120   7.527 -0.9401 -0.1240 -0.0488
   47MOL   Cl63 5675   1.160   6.125   7.534 -0.0086  0.3767 -0.0774
   47MOL   Cl64 5676   1.385   6.160   7.360  0.1225  0.3681 -0.3692
   47MOL    C65 5677   1.402   6.221   7.627 -0.4692 -0.0296  0.3129
   47MOL    H66 5678   1.400   6.167   7.722 -1.5327 -2.6738 -1.1383
   47MOL    H67 5679   1.508   6.226   7.601 -0.2265 -1.4621  0.9679
   47MOL    C68 5680   1.351   6.374   7.632  0.3270 -0.8167  0.3977
   47MOL   Cl69 5681   1.361   6.454   7.473  0.0582  0.0075 -0.3913
   47MOL   Cl70 5682   1.454   6.453   7.763 -0.2476  0.0490  0.1911
   47MOL    C71 5683   1.207   6.387   7.689 -0.0893  1.0776 -0.3003
   47MOL    H72 5684   1.136   6.366   7.609  1.8618 -2.4298 -1.2670
   47MOL    H73 5685   1.197   6.310   7.765 -1.6219  2.1682  0.6253
   47MOL    C74 5686   1.155   6.516   7.766 -0.1513  0.2206  0.5836
   47MOL   Cl75 5687   0.985   6.519   7.733 -0.1702 -0.1469 -0.4618
   47MOL   Cl76 5688   1.224   6.665   7.690 -0.0521  0.1962 -0.0801
   47MOL    C77 5689   1.172   6.524   7.923  0.2888 -0.1681  0.4844
   47MOL    H78 5690   1.267   6.569   7.952  0.0887  0.6147 -0.0500
   47MOL    H79 5691   1.089   6.589   7.952  0.3124  0.0170  0.1438
   47MOL    C80 5692   1.155   6.390   8.012  0.0175 -0.8110  0.2383
   47MOL   Cl81 5693   1.142   6.449   8.185  0.1605  0.4243  0.1364
   47MOL   Cl82 5694   1.301   6.286   7.994 -0.4357  0.3522  0.3785
   47MOL    C83 5695   1.020   6.312   7.992 -0.2191 -0.8105 -0.4427
   47MOL    H84 5696   0.941   6.379   8.022  1.0121  0.6917 -0.4893
   47MOL    H85 5697   1.015   6.310   7.883  0.4169 -1.1189 -0.4753
   47MOL    C86 5698   1.005   6.162   8.030 -0.1743  0.3478  0.1998
   47MOL   Cl87 5699   1.083   6.132   8.195  0.3335 -0.0604  0.8528
   47MOL   Cl88 5700   1.101   6.063   7.915 -0.2847  0.1010  0.2128
   47MOL    C89 5701   0.856   6.120   8.033  0.0363 -1.0553 -0.5030
   47MOL    H90 5702   0.848   6.014   8.055 -1.5980 -1.6545 -3.5876
   47MOL    H91 5703   0.818   6.184   8.113 -2.1583 -1.6340 -1.0419
   47MOL    C92 5704   0.760   6.156   7.916  0.6893  0.2595  0.3699
   47MOL   Cl93 5705   0.837   6.156   7.748  0.2107  0.1033  0.1200
   47MOL   Cl94 5706   0.706   6.322   7.921 -0.6903 -0.3043 -0.0593
   47MOL    C95 5707   0.641   6.059   7.901 -0.3957  0.0827 -0.0442
   47MOL    H96 5708   0.589   6.106   7.818 -0.3095  1.8545  0.8722
   47MOL    H97 5709   0.674   5.960   7.870 -0.1731 -0.1044  0.7605
   47MOL    C98 5710   0.531   6.034   8.017  0.5697 -0.7304 -0.2063
   47MOL   Cl99 5711   0.484   6.188   8.108 -0.2292 -0.4159  0.0885
   47MOL  Cl100 5712   0.600   5.926   8.134  0.0746 -0.2049  0.1318
   47MOL   C101 5713   0.403   5.980   7.964  0.1695 -0.4226 -0.4707
   47MOL   H102 5714   0.337   5.953   8.046 -0.6558 -0.3633 -1.1020
   47MOL   H103 5715   0.358   6.061   7.905 -3.3008 -2.7729 -1.1813
   47MOL   C104 5716   0.387   5.854   7.875 -0.2772  0.6358 -0.3752
   47MOL  Cl105 5717   0.462   5.706   7.940 -0.1405 -0.0314  0.0122
   47MOL  Cl106 5718   0.449   5.890   7.710 -0.2541 -0.1613  0.1482
   47MOL   C107 5719   0.239   5.797   7.870 -0.9774  0.0677 -0.0668
   47MOL   H108 5720   0.239   5.707   7.809 -0.0989 -0.6697  1.0149
   47MOL   H109 5721   0.204   5.766   7.968  0.1731 -0.3887  0.2125
   47MOL   C110 5722   0.119   5.880   7.823  0.4492  0.2975  0.7395
   47MOL  Cl111 5723   0.163   5.970   7.671 -0.0667  0.0742 -0.3930
   47MOL  Cl112 5724   0.075   5.991   7.955 -0.3262 -0.0435 -0.2091
   47MOL   C113 5725   0.006   5.784   7.787  0.0782  0.0392 -0.2382
   47MOL   H114 5726   9.101   5.840   7.747  0.7226 -1.7342 -4.3721
   47MOL   H115 5727   0.033   5.718   7.705 -0.4310 -0.5789  0.0940
   47MOL   C116 5728   9.126   5.693   7.899 -0.8267  0.2592 -0.4641
   47MOL  Cl117 5729   0.035   5.542   7.919 -0.0246  0.0767  0.3001
   47MOL  Cl118 5730   8.967   5.637   7.833  0.0780  0.2585  0.2975
   47MOL   C119 5731   9.090   5.744   8.039  0.5661 -0.2473 -0.0778
   47MOL   H120 5732   9.028   5.833   8.027  0.1669 -0.4685  0.3292
   47MOL   H121 5733   9.030   5.681   8.105  3.0723 -4.8925 -2.0066
   47MOL   H122 5734   9.176   5.768   8.102  0.4451  2.2734 -0.7954
   48MOL     C1 5735   6.411   2.737   0.717  0.6289  0.5161 -0.0840
   48MOL    Cl2 5736   6.440   2.797   0.882 -0.0220  0.1256  0.0630
   48MOL    Cl3 5737   6.396   2.873   0.609 -0.2928  0.1894  0.2585
   48MOL     C4 5738   6.537   2.653   0.682 -0.9214 -0.1659 -0.1433
   48MOL     H5 5739   6.627   2.712   0.698 -1.4077  0.1190  1.8128
   48MOL     H6 5740   6.541   2.598   0.777  1.3632  0.2645  0.0404
   48MOL     H7 5741   6.322   2.674   0.708  1.0734 -0.0059 -0.9694
   48MOL     C8 5742   6.530   2.552   0.564  0.3929  0.2886  0.0284
   48MOL    Cl9 5743   6.497   2.641   0.409 -0.1132 -0.1766 -0.0436
   48MOL   Cl10 5744   6.397   2.439   0.595 -0.2488  0.5034 -0.0722
   48MOL    C11 5745   6.665   2.465   0.558 -0.3888 -0.2314 -0.6504
   48MOL    H12 5746   6.753   2.520   0.592 -2.5940  1.6541  2.2182
   48MOL    H13 5747   6.647   2.382   0.626 -0.3885  0.5938  0.3663
   48MOL    C14 5748   6.711   2.397   0.423  0.6158 -0.6782  0.2407
   48MOL   Cl15 5749   6.570   2.323   0.342  0.2381  0.3558 -0.1376
   48MOL   Cl16 5750   6.820   2.264   0.470 -0.1797 -0.2702 -0.3508
   48MOL    C17 5751   6.778   2.480   0.305  0.4340 -0.9761  0.0531
   48MOL    H18 5752   6.805   2.401   0.235 -0.3439  0.4638 -1.9467
   48MOL    H19 5753   6.700   2.542   0.260  0.0464 -1.1012  0.5512
   48MOL    C20 5754   6.897   2.576   0.323 -0.5435  0.2133  0.9970
   48MOL   Cl21 5755   7.031   2.495   0.411 -0.2837 -0.2309 -0.0873
   48MOL   Cl22 5756   6.840   2.710   0.419  0.2859  0.2433 -0.1485
   48MOL    C23 5757   6.962   2.636   0.194 -0.6837 -0.2227  0.1416
   48MOL    H24 5758   6.896   2.717   0.164 -0.1514 -0.5121 -1.9287
   48MOL    H25 5759   7.054   2.675   0.238 -0.2245 -3.3243  2.0986
   48MOL    C26 5760   7.000   2.556   0.065 -1.0382 -0.5682 -0.5028
   48MOL   Cl27 5761   7.049   2.395   0.106 -0.0728  0.2619 -0.2996
   48MOL   Cl28 5762   7.137   2.640   9.176  0.4585 -0.4948 -0.0525
   48MOL    C29 5763   6.890   2.538   9.132  1.1934  0.6201  0.4412
   48MOL    H30 5764   6.945   2.499   9.046  1.5845  2.3753 -0.1292
   48MOL    H31 5765   6.821   2.456   9.151 -2.0894  2.8862 -1.4148
   48MOL    C32 5766   6.797   2.656   9.098 -0.3261  0.0261 -0.2891
   48MOL   Cl33 5767   6.890   2.815   9.083 -0.3223  0.1911  0.0694
   48MOL   Cl34 5768   6.676   2.686   0.047 -0.0275  0.3306 -0.1338
   48MOL    C35 5769   6.715   2.644   8.965  0.2072 -0.5004 -0.4264
   48MOL    H36 5770   6.653   2.733   8.963 -0.6574 -1.0806  0.0841
   48MOL    H37 5771   6.788   2.668   8.888  1.1383 -0.7620  0.3460
   48MOL    C38 5772   6.636   2.517   8.911 -0.0693 -0.6084 -0.0860
   48MOL   Cl39 5773   6.535   2.450   9.052  0.3153 -0.0158  0.5332
   48MOL   Cl40 5774   6.750   2.399   8.853 -0.0807  0.1288  0.2729
   48MOL    C41 5775   6.539   2.557   8.794 -0.1744 -0.5781 -0.8222
   48MOL    H42 5776   6.488   2.648   8.827 -1.2695 -2.3245  2.5125
   48MOL    H43 5777   6.594   2.585   8.704  2.7065 -0.6441  0.8334
   48MOL    C44 5778   6.420   2.473   8.747 -0.3008  0.2840 -0.1602
   48MOL   Cl45 5779   6.381   2.519   8.583  0.2830 -0.0230 -0.0426
   48MOL   Cl46 5780   6.278   2.508   8.852  0.0096 -0.1243  0.0358
   48MOL    C47 5781   6.456   2.322   8.752 -0.5495 -0.2584 -0.8633
   48MOL    H48 5782   6.555   2.306   8.709 -0.1919 -2.8771  0.7875
   48MOL    H49 5783   6.465   2.288   8.855 -1.0392 -2.7713 -1.6117
   48MOL    C50 5784   6.373   2.214   8.682 -0.7502  0.3227 -0.2753
   48MOL   Cl51 5785   6.426   2.220   8.512 -0.5096 -0.4819  0.1984
   48MOL   Cl52 5786   6.194   2.244   8.688  0.0537 -0.0665 -0.0563
   48MOL    C53 5787   6.410   2.068   8.742  0.4357  0.1391  0.1440
   48MOL    H54 5788   6.516   2.063   8.717  0.0675  1.0851 -1.6872
   48MOL    H55 5789   6.397   2.072   8.850 -1.0945 -2.0354  0.0680
   48MOL    C56 5790   6.331   1.930   8.701  0.1163  0.6316  0.1678
   48MOL   Cl57 5791   6.308   1.916   8.529 -0.2165  0.0304 -0.0580
   48MOL   Cl58 5792   6.166   1.935   8.771  0.1893 -0.3729 -0.4163
   48MOL    C59 5793   6.392   1.798   8.759  0.0544  0.1676 -0.3106
   48MOL    H60 5794   6.357   1.777   8.860  2.4577  3.0509  1.1623
   48MOL    H61 5795   6.347   1.718   8.700  2.7473 -0.2948 -1.8060
   48MOL    C62 5796   6.543   1.781   8.763 -0.1368  0.6456  0.3429
   48MOL   Cl63 5797   6.619   1.885   8.891  0.1488  0.3808 -0.4458
   48MOL   Cl64 5798   6.606   1.836   8.605 -0.3422 -0.1524 -0.0698
   48MOL    C65 5799   6.591   1.636   8.787  0.1505 -0.2080  0.0987
   48MOL    H66 5800   6.580   1.580   8.694  1.6942  0.2116 -0.3464
   48MOL    H67 5801   6.699   1.642   8.799  0.0593 -1.3529  1.6616
   48MOL    C68 5802   6.542   1.544   8.896  0.3154  0.3791 -0.7300
   48MOL   Cl69 5803   6.389   1.479   8.834 -0.1249 -0.3653 -0.3957
   48MOL   Cl70 5804   6.509   1.626   9.055 -0.1529  0.1000 -0.2334
   48MOL    C71 5805   6.642   1.433   8.918  0.2658 -0.2644  0.3934
   48MOL    H72 5806   6.721   1.475   8.980 -0.9718  1.4186  0.8780
   48MOL    H73 5807   6.598   1.355   8.980  0.3522 -0.7314 -0.1370
   48MOL    C74 5808   6.718   1.357   8.797  0.4244  0.0450  0.4652
   48MOL   Cl75 5809   6.859   1.454   8.740  0.0388  0.5805  0.1385
   48MOL   Cl76 5810   6.605   1.324   8.659  0.0156 -0.2535 -0.2229
   48MOL    C77 5811   6.773   1.235   8.868 -0.3115 -0.0570 -0.0984
   48MOL    H78 5812   6.861   1.217   8.805 -0.4891 -2.4790  0.2830
   48MOL    H79 5813   6.803   1.255   8.971  2.4589 -0.4378 -0.7734
   48MOL    C80 5814   6.703   1.098   8.871  0.7647 -0.3692  0.5734
   48MOL   Cl81 5815   6.679   1.035   8.709  0.2417 -0.1986  0.4131
   48MOL   Cl82 5816   6.539   1.118   8.932  0.0132 -0.0601 -0.1226
   48MOL    C83 5817   6.772   0.996   8.967  0.1673 -0.3941  0.0950
   48MOL    H84 5818   6.766   1.043   9.065 -0.7043  0.0583 -0.1643
   48MOL    H85 5819   6.706   0.911   8.981  1.0192 -1.0022  0.3877
   48MOL    C86 5820   6.921   0.951   8.944  0.3469 -0.1865 -0.1733
   48MOL   Cl87 5821   7.027   1.088   8.982 -0.4182 -0.1498 -0.4565
   48MOL   Cl88 5822   6.954   0.899   8.779  0.0691  0.2146  0.2614
   48MOL    C89 5823   6.974   0.843   9.048 -0.2708 -0.1375 -0.2221
   48MOL    H90 5824   7.080   0.846   9.027 -0.0780 -0.6541  0.6547
   48MOL    H91 5825   6.967   0.888   9.147 -1.3225  0.2616 -0.4717
   48MOL    C92 5826   6.922   0.699   9.072 -0.0172 -0.0404 -0.0323
   48MOL   Cl93 5827   6.753   0.691   9.135 -0.4903 -0.0487  0.1808
   48MOL   Cl94 5828   7.025   0.635   0.022 -0.4026 -0.0792 -0.6320
   48MOL    C95 5829   6.925   0.622   8.931  0.0334 -0.6569  0.8047
   48MOL    H96 5830   6.861   0.535   8.945 -1.0579  0.2415  1.4801
   48MOL    H97 5831   6.875   0.679   8.853 -0.1265  2.4771  3.1362
   48MOL    C98 5832   7.049   0.569   8.865  0.3206 -0.6288 -0.3138
   48MOL   Cl99 5833   7.098   0.422   8.959 -0.0365  0.0660 -0.1828
   48MOL  Cl100 5834   7.188   0.682   8.881 -0.1257 -0.1675  0.0007
   48MOL   C101 5835   7.050   0.534   8.714  0.3987  0.0844 -0.0128
   48MOL   H102 5836   7.034   0.633   8.672  2.9820 -0.6395 -2.9510
   48MOL   H103 5837   7.152   0.502   8.691  0.9315  1.0465  1.0239
   48MOL   C104 5838   6.948   0.435   8.647  0.6950 -0.2599  0.0132
   48MOL  Cl105 5839   6.784   0.497   8.657  0.5028  0.3329 -0.1486
   48MOL  Cl106 5840   6.945   0.281   8.723 -0.2710 -0.0979  0.2753
   48MOL   C107 5841   6.967   0.418   8.492  0.0507 -0.1521  0.1980
   48MOL   H108 5842   6.899   0.337   8.465 -0.7185  0.6310 -0.2269
   48MOL   H109 5843   6.907   0.499   8.451  0.3163  0.7176  1.5024
   48MOL   C110 5844   7.106   0.401   8.422 -0.1310 -0.0175 -0.5835
   48MOL  Cl111 5845   7.174   0.566   8.427 -0.0650  0.0049  0.0679
   48MOL  Cl112 5846   7.074   0.372   8.250  0.1862 -0.2762  0.3279
   48MOL   C113 5847   7.212   0.302   8.486  0.6214  0.1301  0.7171
   48MOL   H114 5848   7.312   0.338   8.462  1.7020 -1.6742  2.3348
   48MOL   H115 5849   7.215   0.311   8.595 -1.3918  0.4667  0.7724
   48MOL   C116 5850   7.210   0.152   8.451  0.8905 -0.5467  1.1826
   48MOL  Cl117 5851   7.243   0.123   8.276  0.2932  0.3974 -0.1710
   48MOL  Cl118 5852   7.050   0.082   8.487  0.3092 -0.1419 -0.0432
   48MOL   C119 5853   7.317   0.080   8.535  0.1705  0.6853 -0.1310
   48MOL   H120 5854   7.318   0.127   8.634 -1.7394  1.1941 -0.3241
   48MOL   H121 5855   7.284   9.157   8.543  0.4673  0.7377  2.2499
   48MOL   H122 5856   7.416   0.092   8.493  0.6441  1.3805  1.1560
   49MOL     C1 5857   0.068   4.610   2.926  0.2417 -0.0664  0.6036
   49MOL    Cl2 5858   0.041   4.485   2.810 -0.0931 -0.2377 -0.2404
   49MOL    Cl3 5859   0.165   4.740   2.856  0.0514 -0.1578 -0.3963
   49MOL     C4 5860   9.116   4.669   2.986 -0.1317 -0.0650  0.7629
   49MOL     H5 5861   9.078   4.744   2.916 -1.6583  1.3870  3.0735
   49MOL     H6 5862   9.045   4.587   2.997  0.0247 -0.0326  2.0882
   49MOL     H7 5863   0.119   4.561   3.008  1.1291  2.5043  1.6528
   49MOL     C8 5864   9.112   4.734   3.125 -1.0458  0.0803 -0.1276
   49MOL    Cl9 5865   8.938   4.769   3.152  0.0016 -0.0651  0.5188
   49MOL   Cl10 5866   0.026   4.891   3.116  0.4576  0.5360  0.2718
   49MOL    C11 5867   9.164   4.636   3.236  0.2480 -0.3145  0.6207
   49MOL    H12 5868   9.079   4.568   3.242 -0.2098 -0.0193 -2.0222
   49MOL    H13 5869   0.065   4.574   3.197 -0.2059 -0.9689  0.7136
   49MOL    C14 5870   0.039   4.692   3.374  0.1318 -0.0072  0.1639
   49MOL   Cl15 5871   0.214   4.743   3.355  0.2138 -0.0129  0.2164
   49MOL   Cl16 5872   0.032   4.566   3.489  0.1320  0.1941  0.1626
   49MOL    C17 5873   9.148   4.825   3.434 -0.2930 -0.2963 -0.5912
   49MOL    H18 5874   0.043   4.891   3.477 -1.1093  1.6374 -2.0519
   49MOL    H19 5875   9.115   4.891   3.354 -4.0529  0.7446  1.6730
   49MOL    C20 5876   9.016   4.815   3.519  0.8036  0.0676  0.2115
   49MOL   Cl21 5877   9.056   4.790   3.691  0.0702  0.4041 -0.0204
   49MOL   Cl22 5878   8.915   4.684   3.449  0.0253  0.0980 -0.0106
   49MOL    C23 5879   8.951   4.953   3.507  0.9491 -0.2594  0.1271
   49MOL    H24 5880   9.019   5.019   3.561 -0.0125  0.5982  0.3326
   49MOL    H25 5881   8.957   4.992   3.405  1.8299 -1.7494 -0.3911
   49MOL    C26 5882   8.807   4.989   3.544 -0.7381  0.1582  0.7439
   49MOL   Cl27 5883   8.743   4.899   3.678 -0.5234 -0.2324  0.4394
   49MOL   Cl28 5884   8.702   4.944   3.406 -0.0171  0.3586  0.1710
   49MOL    C29 5885   8.784   5.140   3.568 -0.2766  0.4839  0.3514
   49MOL    H30 5886   8.763   5.189   3.473  0.7814 -0.6841 -0.5034
   49MOL    H31 5887   8.686   5.137   3.615 -0.2456 -1.2902  0.3248
   49MOL    C32 5888   8.857   5.226   3.675 -0.2511  0.9704 -0.1593
   49MOL   Cl33 5889   9.028   5.247   3.631  0.3339  0.1809  0.0992
   49MOL   Cl34 5890   8.847   5.135   3.829  0.3545  0.1390  0.1638
   49MOL    C35 5891   8.804   5.370   3.697  0.1527 -0.2430 -0.8168
   49MOL    H36 5892   8.856   5.408   3.786  0.4381  0.9775 -1.4977
   49MOL    H37 5893   8.846   5.436   3.621  1.0742  1.5674  1.2064
   49MOL    C38 5894   8.653   5.406   3.709  0.5159  0.4333 -0.3759
   49MOL   Cl39 5895   8.584   5.328   3.857  0.3870  0.2542  0.5112
   49MOL   Cl40 5896   8.561   5.349   3.566 -0.4778  0.2282  0.0103
   49MOL    C41 5897   8.619   5.562   3.715  0.2533  0.3274 -0.0859
   49MOL    H42 5898   8.605   5.610   3.618  0.6057  1.2884  0.3374
   49MOL    H43 5899   8.514   5.561   3.743  0.8725  0.9924  2.3191
   49MOL    C44 5900   8.687   5.658   3.813 -0.1630 -0.3354  0.4916
   49MOL   Cl45 5901   8.856   5.668   3.757 -0.1009 -0.1522 -0.1938
   49MOL   Cl46 5902   8.714   5.593   3.975  0.1146  0.1254  0.0575
   49MOL    C47 5903   8.620   5.795   3.845  0.3109  0.2010  0.4967
   49MOL    H48 5904   8.547   5.772   3.923 -0.6207  0.1054 -0.3897
   49MOL    H49 5905   8.693   5.851   3.902  0.6877  1.0226 -0.7766
   49MOL    C50 5906   8.544   5.877   3.729 -0.5167 -0.1502 -0.1756
   49MOL   Cl51 5907   8.404   5.789   3.668 -0.4462  0.8451 -0.1122
   49MOL   Cl52 5908   8.664   5.911   3.599 -0.4186  0.4574 -0.1458
   49MOL    C53 5909   8.488   6.011   3.795  0.6615 -0.1546  0.1619
   49MOL    H54 5910   8.451   5.990   3.896  0.3186 -2.4272 -0.4027
   49MOL    H55 5911   8.575   6.074   3.812 -0.9310  2.3574 -0.7616
   49MOL    C56 5912   8.392   6.109   3.719 -0.6234  0.9785 -0.3153
   49MOL   Cl57 5913   8.386   6.247   3.825  0.0328  0.3429  0.2577
   49MOL   Cl58 5914   8.227   6.041   3.715 -0.1287 -0.1139 -0.1146
   49MOL    C59 5915   8.449   6.132   3.573 -0.2453  0.2938 -0.3594
   49MOL    H60 5916   8.556   6.141   3.593 -0.1990 -3.1985  1.3646
   49MOL    H61 5917   8.439   6.036   3.522 -0.5935  0.2331 -0.1797
   49MOL    C62 5918   8.402   6.244   3.482 -0.7415  0.1719  0.0647
   49MOL   Cl63 5919   8.411   6.409   3.557 -0.3821  0.3315 -0.2198
   49MOL   Cl64 5920   8.232   6.218   3.438 -0.2350 -0.4733 -0.2460
   49MOL    C65 5921   8.483   6.236   3.344 -0.1862  0.6149 -0.1539
   49MOL    H66 5922   8.585   6.263   3.371  0.6384  0.2851 -2.8417
   49MOL    H67 5923   8.487   6.130   3.320  0.5067  0.1999  1.7352
   49MOL    C68 5924   8.447   6.319   3.215 -0.0195  0.2695 -0.1419
   49MOL   Cl69 5925   8.294   6.262   3.144  0.2836 -0.1911 -0.0639
   49MOL   Cl70 5926   8.581   6.283   3.103  0.3972 -0.1797  0.2563
   49MOL    C71 5927   8.434   6.475   3.236  0.5855  0.1719 -0.1959
   49MOL    H72 5928   8.338   6.483   3.286  0.4850  1.4309 -0.5582
   49MOL    H73 5929   8.516   6.498   3.305 -0.5816  3.1621  0.2456
   49MOL    C74 5930   8.423   6.590   3.128 -0.7464 -0.1710 -0.2358
   49MOL   Cl75 5931   8.305   6.549   3.007  0.2321  0.1886  0.0636
   49MOL   Cl76 5932   8.571   6.612   3.033 -0.3507  0.0288 -0.4573
   49MOL    C77 5933   8.380   6.729   3.188  0.6116 -0.2664 -0.4877
   49MOL    H78 5934   8.392   6.791   3.099 -0.7616  0.3460 -0.2613
   49MOL    H79 5935   8.272   6.724   3.200  0.6137  0.0200 -0.3429
   49MOL    C80 5936   8.457   6.790   3.306 -0.6048  0.1060  0.0652
   49MOL   Cl81 5937   8.402   6.698   3.450  0.0054 -0.1732 -0.0510
   49MOL   Cl82 5938   8.387   6.956   3.305  0.5032  0.1671  0.2958
   49MOL    C83 5939   8.612   6.796   3.285 -0.6926 -0.7812  0.0955
   49MOL    H84 5940   8.642   6.691   3.287 -1.3878 -1.0347 -1.5512
   49MOL    H85 5941   8.635   6.850   3.193 -3.0357  1.7148  0.9208
   49MOL    C86 5942   8.713   6.862   3.385  0.0498  0.0117 -0.5023
   49MOL   Cl87 5943   8.677   7.035   3.383 -0.2636  0.1824 -0.2236
   49MOL   Cl88 5944   8.865   6.830   3.315 -0.5055 -0.2441 -0.2495
   49MOL    C89 5945   8.704   6.804   3.527 -0.2333  0.1846  0.1756
   49MOL    H90 5946   8.601   6.805   3.560 -1.2678  1.8011 -2.8936
   49MOL    H91 5947   8.735   6.700   3.520 -0.0968  0.2084  0.3875
   49MOL    C92 5948   8.780   6.870   3.645  0.4156 -0.1929 -0.6473
   49MOL   Cl93 5949   8.719   7.031   3.694 -0.0615 -0.3559 -0.2662
   49MOL   Cl94 5950   8.947   6.893   3.605  0.3131  0.2607  0.2026
   49MOL    C95 5951   8.775   6.780   3.769 -0.2370  0.5215  0.5164
   49MOL    H96 5952   8.835   6.692   3.744 -0.9187  0.4615 -0.9761
   49MOL    H97 5953   8.820   6.838   3.849 -0.2477  0.1842  0.7708
   49MOL    C98 5954   8.648   6.724   3.836 -0.0768  0.0179 -0.1828
   49MOL   Cl99 5955   8.696   6.670   3.997 -0.2914  0.2097 -0.3818
   49MOL  Cl100 5956   8.599   6.579   3.743 -0.1644 -0.1491  0.4572
   49MOL   C101 5957   8.524   6.825   3.844 -0.5939 -0.0371 -0.1101
   49MOL   H102 5958   8.562   6.913   3.897 -0.3453  0.4484 -1.0892
   49MOL   H103 5959   8.502   6.863   3.744 -1.9594  1.3176  0.6867
   49MOL   C104 5960   8.384   6.786   3.908  0.3295 -0.5329 -0.1013
   49MOL  Cl105 5961   8.411   6.732   4.071  0.1225 -0.2237 -0.0101
   49MOL  Cl106 5962   8.308   6.650   3.823  0.1535 -0.1374  0.1458
   49MOL   C107 5963   8.283   6.909   3.916 -0.1803 -0.2362  0.5756
   49MOL   H108 5964   8.184   6.871   3.942 -1.6752  2.0114 -1.6097
   49MOL   H109 5965   8.314   6.974   3.998  0.8562 -0.0986  0.0792
   49MOL   C110 5966   8.271   6.991   3.784  0.2047 -0.6078  0.1100
   49MOL  Cl111 5967   8.236   6.889   3.639  0.1193 -0.0769 -0.3266
   49MOL  Cl112 5968   8.409   7.098   3.739  0.0034 -0.1168  0.1157
   49MOL   C113 5969   8.161   7.104   3.805  0.4911 -0.0477  0.7151
   49MOL   H114 5970   8.199   7.186   3.866 -0.3157 -0.5592  1.9364
   49MOL   H115 5971   8.144   7.140   3.704  0.4056 -3.5911 -0.5977
   49MOL   C116 5972   8.022   7.068   3.862 -0.1698 -0.5197 -0.2934
   49MOL  Cl117 5973   7.922   7.216   3.834  0.2025  0.1452  0.3329
   49MOL  Cl118 5974   8.018   7.043   4.038  0.3329  0.0113 -0.2761
   49MOL   C119 5975   7.949   6.952   3.788 -0.2258  0.5766 -0.2533
   49MOL   H120 5976   7.853   6.918   3.828 -0.7651  3.0841  0.7446
   49MOL   H121 5977   7.925   6.990   3.689  3.5723  1.4807 -0.9077
   49MOL   H122 5978   7.998   6.856   3.777  1.4728  1.6458 -2.3616
   50MOL     C1 5979   3.550   7.450   4.555  0.1896 -0.3887  0.0307
   50MOL    Cl2 5980   3.531   7.627   4.548 -0.1613 -0.0171  0.5203
   50MOL    Cl3 5981   3.558   7.426   4.728  0.0468  0.0389  0.0138
   50MOL     C4 5982   3.446   7.364   4.488 -0.4168  0.0751 -0.6183
   50MOL     H5 5983   3.460   7.267   4.536 -0.1394 -0.1797 -1.2051
   50MOL     H6 5984   3.346   7.395   4.515  0.3914  1.8228  0.4755
   50MOL     H7 5985   3.648   7.446   4.508  0.0862  0.8389 -0.2999
   50MOL     C8 5986   3.472   7.338   4.331 -0.3115 -0.5355 -0.7447
   50MOL    Cl9 5987   3.634   7.275   4.291  0.4288  0.3248 -0.0958
   50MOL   Cl10 5988   3.460   7.494   4.246 -0.1979 -0.5004 -0.3145
   50MOL    C11 5989   3.357   7.261   4.270 -1.0078  0.5900  0.1385
   50MOL    H12 5990   3.265   7.320   4.267 -0.4324  1.5408  1.0315
   50MOL    H13 5991   3.387   7.244   4.167  0.8288  1.7793  0.4620
   50MOL    C14 5992   3.317   7.124   4.326  0.2115  0.0545  0.2454
   50MOL   Cl15 5993   3.211   7.137   4.466 -0.3871 -0.4453 -0.2241
   50MOL   Cl16 5994   3.454   7.037   4.393 -0.3135  0.1297 -0.0936
   50MOL    C17 5995   3.259   7.026   4.220 -0.2863  0.1428  0.7441
   50MOL    H18 5996   3.336   7.008   4.146 -2.6880 -1.9316 -1.3581
   50MOL    H19 5997   3.236   6.928   4.263  0.0349 -0.0679  0.4348
   50MOL    C20 5998   3.128   7.049   4.144  0.0853 -0.6021 -0.0119
   50MOL   Cl21 5999   3.139   7.203   4.052  0.0280  0.1481 -0.1686
   50MOL   Cl22 6000   2.991   7.051   4.257  0.4337  0.0207 -0.0617
   50MOL    C23 6001   3.080   6.935   4.041 -0.0456 -0.0988 -0.3253
   50MOL    H24 6002   2.975   6.953   4.017 -0.3630 -1.4669  0.0161
   50MOL    H25 6003   3.127   6.951   3.944  0.8328 -0.6247  0.0111
   50MOL    C26 6004   3.098   6.787   4.076  0.2412 -0.4621 -0.0019
   50MOL   Cl27 6005   3.267   6.740   4.075 -0.5270 -0.0144  0.2583
   50MOL   Cl28 6006   3.028   6.702   3.926  0.1664 -0.2411  0.1743
   50MOL    C29 6007   3.027   6.741   4.210  0.6800 -0.5411  0.2553
   50MOL    H30 6008   3.078   6.789   4.294  0.8557 -0.0783 -0.1151
   50MOL    H31 6009   2.929   6.788   4.204  0.6861 -0.1715  2.6260
   50MOL    C32 6010   2.997   6.597   4.241  0.7897 -0.0032 -0.1736
   50MOL   Cl33 6011   2.855   6.554   4.135  0.2245 -0.1933  0.5678
   50MOL   Cl34 6012   2.944   6.578   4.415  0.2700  0.2044 -0.4667
   50MOL    C35 6013   3.117   6.494   4.215 -0.4524 -0.9573  0.4923
   50MOL    H36 6014   3.071   6.396   4.204  2.9771 -2.5283 -0.2489
   50MOL    H37 6015   3.150   6.511   4.112 -1.6579  1.8334  0.4964
   50MOL    C38 6016   3.237   6.478   4.313  0.2621  0.1649  0.0080
   50MOL   Cl39 6017   3.174   6.389   4.459 -0.0118 -0.2059 -0.1636
   50MOL   Cl40 6018   3.297   6.629   4.380 -0.3408 -0.3387  0.2835
   50MOL    C41 6019   3.356   6.400   4.246 -0.1573  0.6687  0.7765
   50MOL    H42 6020   3.305   6.338   4.172 -2.6954  2.3270  1.1098
   50MOL    H43 6021   3.411   6.471   4.184 -0.6559  0.3683 -0.0317
   50MOL    C44 6022   3.477   6.329   4.325 -0.9135  0.4619  0.1925
   50MOL   Cl45 6023   3.422   6.171   4.382  0.2565 -0.2484  0.2359
   50MOL   Cl46 6024   3.511   6.418   4.477  0.1906 -0.1348  0.0991
   50MOL    C47 6025   3.616   6.316   4.252 -0.0252  0.0797  0.3934
   50MOL    H48 6026   3.649   6.418   4.235  0.9353 -0.1664  0.7540
   50MOL    H49 6027   3.694   6.284   4.322  0.0001  1.1826  0.8771
   50MOL    C50 6028   3.636   6.243   4.114  0.1362  0.4269 -0.1292
   50MOL   Cl51 6029   3.810   6.246   4.077 -0.0005 -0.4711 -0.3277
   50MOL   Cl52 6030   3.556   6.332   3.987  0.1826 -0.3364  0.1773
   50MOL    C53 6031   3.599   6.087   4.104  0.4153  0.2006  1.2873
   50MOL    H54 6032   3.494   6.072   4.132 -0.0566  1.2719  0.1465
   50MOL    H55 6033   3.600   6.061   3.998 -2.5184  1.4050  0.9042
   50MOL    C56 6034   3.674   5.974   4.186 -0.2243 -0.1312  0.4885
   50MOL   Cl57 6035   3.725   6.019   4.347  0.1406 -0.1520  0.0436
   50MOL   Cl58 6036   3.828   5.931   4.105  0.0187  0.2048 -0.2696
   50MOL    C59 6037   3.591   5.840   4.196  0.6893 -0.0899  0.0067
   50MOL    H60 6038   3.662   5.766   4.233  2.7648  1.6529 -0.3845
   50MOL    H61 6039   3.528   5.863   4.282  1.8883  0.3810  0.7726
   50MOL    C62 6040   3.511   5.793   4.070 -0.2091  0.1668 -0.3154
   50MOL   Cl63 6041   3.611   5.814   3.923  0.1447 -0.2691 -0.0738
   50MOL   Cl64 6042   3.363   5.882   4.035 -0.0629  0.1586 -0.1701
   50MOL    C65 6043   3.489   5.641   4.082  0.2511  0.1192 -0.0147
   50MOL    H66 6044   3.442   5.617   3.986 -0.8601  1.8307  0.0862
   50MOL    H67 6045   3.584   5.589   4.077 -0.0622 -0.6872  1.9410
   50MOL    C68 6046   3.402   5.570   4.192  0.4433 -0.2077 -0.2692
   50MOL   Cl69 6047   3.482   5.595   4.345 -0.1117 -0.0447  0.0292
   50MOL   Cl70 6048   3.405   5.398   4.155  0.0738 -0.1486  0.2428
   50MOL    C71 6049   3.254   5.632   4.219 -0.8020  0.7441  0.0145
   50MOL    H72 6050   3.210   5.613   4.317 -0.8379 -0.4666 -0.2337
   50MOL    H73 6051   3.273   5.738   4.235 -0.5331  0.5677  0.8904
   50MOL    C74 6052   3.136   5.602   4.131 -0.4514  0.6653  0.4140
   50MOL   Cl75 6053   3.183   5.600   3.962  0.0496 -0.0262 -0.2906
   50MOL   Cl76 6054   3.037   5.744   4.147  0.0762 -0.6265 -0.3664
   50MOL    C77 6055   3.068   5.464   4.154 -0.1272  0.0616  0.9815
   50MOL    H78 6056   2.984   5.465   4.084  0.8262  0.2941 -0.1638
   50MOL    H79 6057   3.135   5.390   4.109  0.3336  1.8362 -1.3408
   50MOL    C80 6058   3.010   5.425   4.295  0.5244 -0.3750  0.1236
   50MOL   Cl81 6059   2.906   5.553   4.345  0.0809  0.1207 -0.0812
   50MOL   Cl82 6060   3.139   5.405   4.413  0.4332 -0.0804  0.3389
   50MOL    C83 6061   2.919   5.305   4.284  0.2777 -0.2728 -0.0657
   50MOL    H84 6062   2.828   5.331   4.230  0.2741 -0.8122 -0.3304
   50MOL    H85 6063   2.967   5.234   4.217  1.4386  0.3155  0.1328
   50MOL    C86 6064   2.885   5.218   4.406  0.7211  0.0895  0.1764
   50MOL   Cl87 6065   2.851   5.321   4.549  0.2571  0.1095 -0.0914
   50MOL   Cl88 6066   3.029   5.118   4.438  0.3428 -0.3789  0.3526
   50MOL    C89 6067   2.755   5.136   4.376  0.2185  0.1691 -0.3496
   50MOL    H90 6068   2.676   5.210   4.389  1.4743  1.7934 -1.8086
   50MOL    H91 6069   2.740   5.115   4.271  4.9841  0.2562 -1.1599
   50MOL    C92 6070   2.723   5.007   4.452 -0.0302 -0.7042  0.0880
   50MOL   Cl93 6071   2.773   5.020   4.627 -0.3645 -0.0002 -0.2057
   50MOL   Cl94 6072   2.822   4.864   4.391  0.2159 -0.3317  0.4994
   50MOL    C95 6073   2.569   4.973   4.453 -0.8253 -0.3719 -0.1767
   50MOL    H96 6074   2.541   4.934   4.551  0.2882 -0.8573 -0.0473
   50MOL    H97 6075   2.515   5.068   4.458 -0.9470 -0.5526  3.2549
   50MOL    C98 6076   2.502   4.880   4.339 -0.3890  0.0023  0.3604
   50MOL   Cl99 6077   2.543   4.945   4.180 -0.6608  0.0220 -0.5593
   50MOL  Cl100 6078   2.326   4.895   4.349  0.1169  0.1473 -0.1094
   50MOL   C101 6079   2.536   4.724   4.338 -0.2211 -0.2770 -0.2484
   50MOL   H102 6080   2.457   4.684   4.275  1.6810 -0.3493 -2.6349
   50MOL   H103 6081   2.635   4.706   4.295 -0.5028  1.5740 -1.7174
   50MOL   C104 6082   2.519   4.635   4.472  0.1329 -0.9609 -0.4998
   50MOL  Cl105 6083   2.352   4.652   4.539 -0.0005  0.4825  0.1205
   50MOL  Cl106 6084   2.629   4.707   4.597 -0.1647  0.4311  0.0758
   50MOL   C107 6085   2.562   4.488   4.456 -0.6860  0.1976 -0.3341
   50MOL   H108 6086   2.664   4.489   4.417 -0.7076  0.7759 -0.3748
   50MOL   H109 6087   2.557   4.421   4.542  1.0156 -0.2668 -0.5782
   50MOL   C110 6088   2.505   4.390   4.349 -0.2882 -0.1693  0.1824
   50MOL  Cl111 6089   2.540   4.450   4.185  0.0930  0.1919  0.3609
   50MOL  Cl112 6090   2.327   4.396   4.357  0.3483 -0.3109 -0.5076
   50MOL   C113 6091   2.538   4.239   4.371  0.0166  0.7444  0.1476
   50MOL   H114 6092   2.488   4.207   4.462 -0.5758 -1.1968 -0.8213
   50MOL   H115 6093   2.488   4.187   4.290 -0.5279 -0.0578  0.9936
   50MOL   C116 6094   2.691   4.195   4.386  0.7965 -0.0859 -0.4809
   50MOL  Cl117 6095   2.747   4.228   4.552  0.4446 -0.2850 -0.0386
   50MOL  Cl118 6096   2.795   4.287   4.271  0.2369 -0.2246 -0.1544
   50MOL   C119 6097   2.714   4.045   4.354 -0.2906 -0.8396  0.0515
   50MOL   H120 6098   2.645   3.990   4.418 -0.5595  0.4468  0.9101
   50MOL   H121 6099   2.687   4.026   4.250 -0.7757  0.3302 -0.0502
   50MOL   H122 6100   2.814   4.010   4.378 -0.3219 -0.4824  0.7157
   51MOL     C1 6101   6.499   7.934   2.537 -0.3545  0.0634 -0.0889
   51MOL    Cl2 6102   6.326   7.975   2.551 -0.1454  0.2869 -0.1561
   51MOL    Cl3 6103   6.575   8.033   2.410  0.4381  0.1010 -0.0334
   51MOL     C4 6104   6.573   7.956   2.674 -0.4267 -0.5861  0.1284
   51MOL     H5 6105   6.672   8.002   2.668 -0.8794  0.3287 -0.3497
   51MOL     H6 6106   6.515   8.025   2.736 -0.8437 -0.3058 -0.5672
   51MOL     H7 6107   6.511   7.833   2.499  1.0819  1.0668 -2.4455
   51MOL     C8 6108   6.584   7.827   2.764  0.3219 -0.2140 -0.5228
   51MOL    Cl9 6109   6.680   7.705   2.676  0.1059 -0.0572 -0.3567
   51MOL   Cl10 6110   6.420   7.755   2.778  0.1618 -0.6734  0.5681
   51MOL    C11 6111   6.660   7.841   2.901  0.5636 -0.5167  0.0346
   51MOL    H12 6112   6.581   7.880   2.965  2.1961  2.2048  0.4949
   51MOL    H13 6113   6.679   7.740   2.937  1.6496 -0.8408 -1.3893
   51MOL    C14 6114   6.796   7.921   2.911  0.6752  0.4974 -0.0658
   51MOL   Cl15 6115   6.758   8.094   2.890  0.3335 -0.0476  0.4320
   51MOL   Cl16 6116   6.912   7.883   2.783  0.1343 -0.0031  0.1402
   51MOL    C17 6117   6.869   7.920   3.049  0.2655 -0.2803  0.3722
   51MOL    H18 6118   6.955   7.986   3.048 -0.2978  0.4845  1.7717
   51MOL    H19 6119   6.801   7.950   3.128 -1.2543 -0.9691 -0.6295
   51MOL    C20 6120   6.939   7.787   3.112  0.5630  0.4396  0.6149
   51MOL   Cl21 6121   6.814   7.659   3.133  0.0696  0.1647  0.2679
   51MOL   Cl22 6122   6.992   7.844   3.272  0.0853 -0.7220  0.0861
   51MOL    C23 6123   7.049   7.727   3.019  0.5175 -0.6408 -0.4806
   51MOL    H24 6124   7.000   7.675   2.937  1.8950 -1.5250 -0.7672
   51MOL    H25 6125   7.086   7.819   2.975  2.5140 -0.5812  1.2348
   51MOL    C26 6126   7.159   7.639   3.064  0.4968 -0.4026  0.3421
   51MOL   Cl27 6127   7.107   7.536   3.195 -0.0949  0.2852  0.3164
   51MOL   Cl28 6128   7.280   7.754   3.129 -0.1451  0.1092 -0.0162
   51MOL    C29 6129   7.213   7.540   2.952  0.4452 -0.1851 -0.0174
   51MOL    H30 6130   7.277   7.464   2.996 -0.0319 -0.2496  0.5791
   51MOL    H31 6131   7.125   7.485   2.922  0.0146 -0.5469  1.8413
   51MOL    C32 6132   7.288   7.594   2.828 -0.3741 -0.3126 -0.3855
   51MOL   Cl33 6133   7.203   7.728   2.741  0.1692  0.0563 -0.2063
   51MOL   Cl34 6134   7.302   7.462   2.714  0.2802 -0.3508 -0.1593
   51MOL    C35 6135   7.431   7.633   2.867  0.1995 -0.3231  0.0129
   51MOL    H36 6136   7.418   7.702   2.950 -0.8160 -0.4876 -0.0005
   51MOL    H37 6137   7.486   7.545   2.900 -0.3824  0.1573  2.3067
   51MOL    C38 6138   7.513   7.724   2.764  0.2718  0.0117 -0.0378
   51MOL   Cl39 6139   7.675   7.727   2.841 -0.1002 -0.0470  0.0177
   51MOL   Cl40 6140   7.454   7.890   2.789 -0.1579 -0.1905  0.2510
   51MOL    C41 6141   7.524   7.686   2.609  0.6687 -0.1178 -0.0579
   51MOL    H42 6142   7.549   7.580   2.608  1.2314  0.0140 -0.4421
   51MOL    H43 6143   7.418   7.682   2.585  0.7795 -1.7918 -0.3292
   51MOL    C44 6144   7.606   7.764   2.502 -0.3622 -0.1707  0.3070
   51MOL   Cl45 6145   7.782   7.775   2.544 -0.1055 -0.0768  0.2310
   51MOL   Cl46 6146   7.546   7.931   2.477 -0.2095  0.1650 -0.0158
   51MOL    C47 6147   7.609   7.690   2.364  0.1257  0.3125 -0.1449
   51MOL    H48 6148   7.659   7.759   2.296 -0.5168 -0.6148 -1.5913
   51MOL    H49 6149   7.669   7.601   2.379  0.5193  1.0781  3.2094
   51MOL    C50 6150   7.476   7.636   2.296  0.9240 -0.0153 -0.2468
   51MOL   Cl51 6151   7.421   7.493   2.368 -0.0082  0.0651  0.2807
   51MOL   Cl52 6152   7.515   7.606   2.124 -0.4076  0.0744 -0.5004
   51MOL    C53 6153   7.364   7.748   2.288  0.1072 -0.7163 -0.5517
   51MOL    H54 6154   7.341   7.786   2.387 -2.3836  1.1818 -1.8183
   51MOL    H55 6155   7.389   7.827   2.218 -0.5548 -0.3335 -0.3565
   51MOL    C56 6156   7.224   7.725   2.233  1.3475  0.4709  1.2687
   51MOL   Cl57 6157   7.129   7.644   2.368 -0.3609 -0.1739 -0.0447
   51MOL   Cl58 6158   7.209   7.611   2.095 -0.1845  0.2032  0.2002
   51MOL    C59 6159   7.146   7.856   2.193 -0.1054 -0.0082  0.1772
   51MOL    H60 6160   7.193   7.888   2.100  0.4641  0.4248  0.6139
   51MOL    H61 6161   7.050   7.818   2.155  0.5028 -0.7653 -0.6332
   51MOL    C62 6162   7.129   7.981   2.287 -0.5351  0.6884 -0.0878
   51MOL   Cl63 6163   7.284   8.040   2.339  0.1198 -0.1075  0.0295
   51MOL   Cl64 6164   7.035   7.936   2.434  0.0940  0.1816  0.3161
   51MOL    C65 6165   7.052   8.102   2.217 -0.0360  0.1701 -0.2892
   51MOL    H66 6166   6.944   8.089   2.225 -0.4781  2.6672 -1.6170
   51MOL    H67 6167   7.059   8.188   2.282  3.3138  0.0191 -0.3794
   51MOL    C68 6168   7.066   8.139   2.064 -0.2489  0.0277 -0.0011
   51MOL   Cl69 6169   6.968   8.026   1.968 -0.0462  0.2605 -0.4445
   51MOL   Cl70 6170   7.237   8.121   2.012  0.1759  0.0275 -0.1636
   51MOL    C71 6171   7.003   8.276   2.034  0.0334  0.5756  0.3705
   51MOL    H72 6172   6.953   8.278   1.938 -0.6251  1.0776  0.7178
   51MOL    H73 6173   6.925   8.288   2.110 -0.6700  1.1065 -0.4355
   51MOL    C74 6174   7.084   8.403   2.030  0.3426  0.2614  0.2091
   51MOL   Cl75 6175   7.182   8.402   2.191  0.2858 -0.0160 -0.0549
   51MOL   Cl76 6176   6.961   8.531   2.025  0.0382  0.0205  0.1848
   51MOL    C77 6177   7.178   8.411   1.906 -0.3242  0.0672 -0.0725
   51MOL    H78 6178   7.269   8.361   1.936 -0.1761  0.1726 -0.3435
   51MOL    H79 6179   7.132   8.348   1.829  4.1535 -1.3343 -1.7528
   51MOL    C80 6180   7.219   8.548   1.845  0.0517 -0.2624  0.2041
   51MOL   Cl81 6181   7.078   8.620   1.757  0.3597  0.2983 -0.5139
   51MOL   Cl82 6182   7.349   8.511   1.728 -0.1248  0.0224 -0.0012
   51MOL    C83 6183   7.279   8.649   1.951 -0.2619  0.2267 -0.1939
   51MOL    H84 6184   7.205   8.643   2.031  0.8559 -3.7608  0.6656
   51MOL    H85 6185   7.368   8.605   1.996  0.2443  0.6309 -0.7883
   51MOL    C86 6186   7.306   8.801   1.923  0.2394 -0.3526  0.4031
   51MOL   Cl87 6187   7.337   8.869   2.083  0.2676  0.0586  0.1809
   51MOL   Cl88 6188   7.157   8.895   1.876  0.0109  0.3149  0.3146
   51MOL    C89 6189   7.414   8.818   1.823 -0.3655 -0.6876 -0.6203
   51MOL    H90 6190   7.484   8.735   1.830  0.6986  0.4767  3.3679
   51MOL    H91 6191   7.364   8.803   1.727 -0.4420  1.1753 -0.8938
   51MOL    C92 6192   7.505   8.943   1.811 -0.3524 -0.2477  0.5777
   51MOL   Cl93 6193   7.591   8.895   1.661  0.0261 -0.2291 -0.4656
   51MOL   Cl94 6194   7.640   8.936   1.930  0.3590  0.1500 -0.1726
   51MOL    C95 6195   7.428   9.081   1.795  0.6284  1.1935 -0.1719
   51MOL    H96 6196   7.371   9.065   1.703  1.3996  1.5458 -0.7141
   51MOL    H97 6197   7.352   9.089   1.873 -0.2887  1.3027 -1.0685
   51MOL    C98 6198   7.505   0.029   1.784  0.2152 -0.6206  0.0978
   51MOL   Cl99 6199   7.608   0.023   1.636  0.0307  0.5038  0.5178
   51MOL  Cl100 6200   7.587   0.065   1.939  0.0344  0.0636  0.0377
   51MOL   C101 6201   7.420   0.156   1.750  1.1769  0.0668 -0.5117
   51MOL   H102 6202   7.488   0.241   1.740  0.7987  0.7484  2.1683
   51MOL   H103 6203   7.386   0.147   1.647 -0.0900  0.1694 -0.1153
   51MOL   C104 6204   7.297   0.203   1.830  0.3365 -0.4101  0.0020
   51MOL  Cl105 6205   7.301   0.157   2.005  0.1499 -0.6131 -0.1016
   51MOL  Cl106 6206   7.152   0.109   1.773  0.2197  0.1419  0.3045
   51MOL   C107 6207   7.278   0.354   1.804 -0.3997  0.1421 -0.0092
   51MOL   H108 6208   7.375   0.402   1.818  0.0166 -0.5545 -0.5098
   51MOL   H109 6209   7.261   0.365   1.697 -0.9286 -2.0192 -0.1577
   51MOL   C110 6210   7.190   0.450   1.885  0.3695  0.9866 -0.3139
   51MOL  Cl111 6211   7.196   0.595   1.777 -0.0497 -0.4365  0.4112
   51MOL  Cl112 6212   7.278   0.489   2.033  0.5282  0.3442  0.5701
   51MOL   C113 6213   7.038   0.407   1.903 -0.6210 -0.1949 -0.0322
   51MOL   H114 6214   7.002   0.400   1.800 -1.8895  0.9848  0.3093
   51MOL   H115 6215   7.042   0.313   1.958  0.1727  1.4127  2.7511
   51MOL   C116 6216   6.939   0.487   1.992  0.4452  0.1065  0.0656
   51MOL  Cl117 6217   6.974   0.454   2.167  0.1825  0.1506  0.1534
   51MOL  Cl118 6218   6.786   0.409   1.961  0.0414 -0.0556 -0.0517
   51MOL   C119 6219   6.923   0.635   1.963  0.1178 -0.5491 -0.7687
   51MOL   H120 6220   7.013   0.693   1.987 -1.1066  1.1888 -0.2888
   51MOL   H121 6221   6.908   0.641   1.855 -1.0962  0.0812 -0.5706
   51MOL   H122 6222   6.833   0.664   2.017  0.8705 -1.5476  1.0560
   52MOL     C1 6223   6.716   2.154   5.140  0.6404  0.0408  0.8305
   52MOL    Cl2 6224   6.817   2.122   4.994 -0.1396  0.2616 -0.1255
   52MOL    Cl3 6225   6.823   2.134   5.277  0.1049 -0.0947  0.1220
   52MOL     C4 6226   6.648   2.294   5.115 -0.1232  1.1371 -0.1146
   52MOL     H5 6227   6.710   2.373   5.157  1.6159 -0.4730  0.4511
   52MOL     H6 6228   6.659   2.319   5.010  0.4775 -1.5326 -0.7247
   52MOL     H7 6229   6.647   2.071   5.158 -0.9546  1.1127 -0.2931
   52MOL     C8 6230   6.498   2.310   5.159 -1.0054  0.7622  0.5587
   52MOL    Cl9 6231   6.490   2.269   5.334  0.0863 -0.0286 -0.0794
   52MOL   Cl10 6232   6.416   2.178   5.075  0.1648 -0.0378  0.2070
   52MOL    C11 6233   6.444   2.448   5.118 -0.3350  0.3389  0.1985
   52MOL    H12 6234   6.513   2.525   5.152 -2.2030  1.8454  0.6819
   52MOL    H13 6235   6.457   2.459   5.011  1.2829  0.3887  0.3884
   52MOL    C14 6236   6.297   2.495   5.161  0.2949 -0.2184  0.0398
   52MOL   Cl15 6237   6.303   2.538   5.330  0.3871 -0.5162 -0.0276
   52MOL   Cl16 6238   6.174   2.372   5.144 -0.1104  0.0958 -0.3547
   52MOL    C17 6239   6.239   2.619   5.076  0.5179  0.8049 -0.4977
   52MOL    H18 6240   6.226   2.568   4.981  1.4791 -0.4849  0.0507
   52MOL    H19 6241   6.142   2.632   5.124  0.4282 -2.5973  0.3453
   52MOL    C20 6242   6.307   2.759   5.057  0.4146 -0.7039 -0.3163
   52MOL   Cl21 6243   6.474   2.741   4.994  0.2636  0.0722 -0.0615
   52MOL   Cl22 6244   6.321   2.842   5.215 -0.1631 -0.1846  0.5382
   52MOL    C23 6245   6.221   2.863   4.967  0.8350 -0.3615  0.2176
   52MOL    H24 6246   6.155   2.919   5.034  1.4241 -0.2665  0.7252
   52MOL    H25 6247   6.297   2.934   4.936  1.6686 -0.9371  0.8975
   52MOL    C26 6248   6.153   2.809   4.843  0.0624 -0.7817  0.0255
   52MOL   Cl27 6249   6.017   2.709   4.884 -0.4540  0.3405  0.2435
   52MOL   Cl28 6250   6.267   2.710   4.750 -0.2056 -0.0207 -0.2993
   52MOL    C29 6251   6.113   2.920   4.741 -0.2090 -0.0548 -0.2691
   52MOL    H30 6252   6.198   2.965   4.689 -0.2613 -0.6422 -0.8755
   52MOL    H31 6253   6.069   2.865   4.658 -2.8558  1.4518  0.0889
   52MOL    C32 6254   6.015   3.033   4.779  0.7831  0.1978  0.1582
   52MOL   Cl33 6255   6.114   3.148   4.869 -0.1372  0.0965 -0.0758
   52MOL   Cl34 6256   5.877   2.974   4.877  0.0052 -0.1436  0.4101
   52MOL    C35 6257   5.954   3.108   4.650 -0.8527 -0.6267  0.6236
   52MOL    H36 6258   5.884   3.040   4.602 -0.8378 -1.1074  1.2724
   52MOL    H37 6259   5.886   3.187   4.679 -2.6832 -1.3215 -1.6466
   52MOL    C38 6260   6.039   3.170   4.528  0.1204  0.1106 -0.5692
   52MOL   Cl39 6261   6.120   3.039   4.439 -0.2224  0.0890  0.0200
   52MOL   Cl40 6262   6.164   3.279   4.589  0.2390 -0.0011 -0.2707
   52MOL    C41 6263   5.966   3.252   4.418 -0.1723 -0.8034 -0.0855
   52MOL    H42 6264   5.958   3.355   4.453 -1.1112 -1.2441  1.0170
   52MOL    H43 6265   6.033   3.254   4.332  0.1982 -0.2788  0.2043
   52MOL    C44 6266   5.833   3.205   4.350 -0.3191 -0.4718 -0.2814
   52MOL   Cl45 6267   5.703   3.211   4.477 -0.6532 -0.1023  0.0320
   52MOL   Cl46 6268   5.850   3.034   4.291 -0.7739 -0.0614 -0.1268
   52MOL    C47 6269   5.798   3.302   4.241 -0.5459  0.3300  0.1183
   52MOL    H48 6270   5.835   3.402   4.262 -1.3054  0.6516 -0.0578
   52MOL    H49 6271   5.865   3.278   4.158 -0.1118 -4.0349  1.5936
   52MOL    C50 6272   5.647   3.327   4.180 -0.3759  0.7233  0.5616
   52MOL   Cl51 6273   5.688   3.397   4.023 -0.0112 -0.1073  0.0224
   52MOL   Cl52 6274   5.553   3.455   4.276 -0.3843  0.1514 -0.0410
   52MOL    C53 6275   5.570   3.196   4.160  0.3501 -0.0473 -0.0363
   52MOL    H54 6276   5.618   3.138   4.081 -1.0276 -0.8811 -0.2749
   52MOL    H55 6277   5.585   3.132   4.248  0.0741 -0.6315 -0.4101
   52MOL    C56 6278   5.411   3.209   4.142  0.3115 -0.8189 -0.1704
   52MOL   Cl57 6279   5.363   3.347   4.038  0.2199 -0.1509 -0.1879
   52MOL   Cl58 6280   5.359   3.233   4.313 -0.2134 -0.0584 -0.3833
   52MOL    C59 6281   5.352   3.081   4.084 -0.0907 -0.1402  0.4041
   52MOL    H60 6282   5.398   3.067   3.986 -0.1343  1.0505  0.2057
   52MOL    H61 6283   5.364   2.995   4.150  1.3163  0.3495  0.8178
   52MOL    C62 6284   5.203   3.068   4.033 -0.5242  0.7818  0.2561
   52MOL   Cl63 6285   5.202   2.897   3.979  0.4003 -0.5215  0.3078
   52MOL   Cl64 6286   5.156   3.181   3.897 -0.1029  0.2666 -0.3556
   52MOL    C65 6287   5.107   3.088   4.157 -0.0649  0.1441  0.4078
   52MOL    H66 6288   5.153   3.040   4.243 -0.5695  0.3614  0.8000
   52MOL    H67 6289   5.108   3.195   4.178 -2.6289  0.2722  0.0107
   52MOL    C68 6290   4.967   3.031   4.161  0.0884 -1.4621 -0.4634
   52MOL   Cl69 6291   4.893   3.088   4.314 -0.1359 -0.2458  0.1787
   52MOL   Cl70 6292   4.967   2.847   4.168 -0.1444 -0.0426  0.0664
   52MOL    C71 6293   4.889   3.088   4.040  0.6565 -0.4959 -0.0448
   52MOL    H72 6294   4.925   3.191   4.036  0.2782 -0.3868 -0.6201
   52MOL    H73 6295   4.932   3.041   3.951  2.7700  0.1556  0.5927
   52MOL    C74 6296   4.735   3.076   4.022  0.8618 -0.9046 -0.1829
   52MOL   Cl75 6297   4.709   3.140   3.857 -0.1239  0.4671  0.2947
   52MOL   Cl76 6298   4.657   3.206   4.117 -0.2348  0.3177  0.5795
   52MOL    C77 6299   4.661   2.950   4.049 -0.1290  0.3488  0.3531
   52MOL    H78 6300   4.687   2.919   4.150 -1.3291 -0.2203  0.4972
   52MOL    H79 6301   4.556   2.975   4.064 -0.4243 -1.5384  1.5096
   52MOL    C80 6302   4.664   2.823   3.956 -0.0888  0.2270  0.4081
   52MOL   Cl81 6303   4.815   2.804   3.873  0.1853  0.0231 -0.4736
   52MOL   Cl82 6304   4.548   2.860   3.827 -0.6629 -0.4220  0.3628
   52MOL    C83 6305   4.630   2.685   4.021  0.2306 -0.4376 -0.4065
   52MOL    H84 6306   4.642   2.618   3.936  0.7205 -0.4117 -0.3589
   52MOL    H85 6307   4.709   2.669   4.094  0.3425  1.5304 -0.0678
   52MOL    C86 6308   4.490   2.655   4.087  0.0381 -0.9997  0.7761
   52MOL   Cl87 6309   4.368   2.646   3.957  0.0465  0.3576  0.0941
   52MOL   Cl88 6310   4.433   2.791   4.187 -0.3186 -0.2986 -0.0767
   52MOL    C89 6311   4.490   2.531   4.172 -0.2307  0.2159 -0.7720
   52MOL    H90 6312   4.554   2.554   4.257  0.5271  0.4447 -1.3971
   52MOL    H91 6313   4.395   2.511   4.220 -1.0300  0.9123 -2.0306
   52MOL    C92 6314   4.533   2.392   4.120 -0.0942  0.6286  0.4082
   52MOL   Cl93 6315   4.440   2.356   3.971  0.0090  0.4307 -0.1855
   52MOL   Cl94 6316   4.476   2.273   4.231  0.1201 -0.2031 -0.3364
   52MOL    C95 6317   4.685   2.380   4.108 -0.0470 -0.6265  0.4476
   52MOL    H96 6318   4.708   2.426   4.011 -1.9051 -0.7341 -0.0702
   52MOL    H97 6319   4.734   2.448   4.177 -0.6610 -2.3731  2.6726
   52MOL    C98 6320   4.761   2.246   4.120 -0.1740 -0.1817  0.1686
   52MOL   Cl99 6321   4.666   2.114   4.048  0.0634 -0.0016  0.3461
   52MOL  Cl100 6322   4.779   2.191   4.297  0.0750 -0.2562  0.4423
   52MOL   C101 6323   4.911   2.239   4.073 -0.1458 -0.2521 -0.2074
   52MOL   H102 6324   4.968   2.290   4.151  1.2749  0.4109 -1.6571
   52MOL   H103 6325   4.945   2.136   4.079  0.9439 -0.1111 -3.2315
   52MOL   C104 6326   4.957   2.297   3.934 -0.3909  0.1014 -0.1023
   52MOL  Cl105 6327   4.967   2.475   3.941  0.1403  0.0684 -0.1717
   52MOL  Cl106 6328   4.828   2.262   3.808 -0.2143  0.0713  0.0098
   52MOL   C107 6329   5.095   2.246   3.882  0.4533 -0.1623 -0.1132
   52MOL   H108 6330   5.104   2.278   3.778  0.5458  1.2212  0.3165
   52MOL   H109 6331   5.170   2.300   3.940 -0.9927  2.6176 -0.7794
   52MOL   C110 6332   5.141   2.099   3.883  0.2492  0.3968  0.3430
   52MOL  Cl111 6333   5.006   1.993   3.867 -0.0360  0.1680 -0.0191
   52MOL  Cl112 6334   5.210   2.065   4.039  0.3637 -0.2552  0.2332
   52MOL   C113 6335   5.239   2.068   3.764 -0.3393  0.7349  0.6577
   52MOL   H114 6336   5.261   1.962   3.750  0.2512  1.0577 -0.9476
   52MOL   H115 6337   5.192   2.085   3.667 -0.6882 -0.9153  0.5222
   52MOL   C116 6338   5.382   2.139   3.753 -0.5785  0.2626  0.2281
   52MOL  Cl117 6339   5.350   2.312   3.718 -0.0226  0.0467 -0.0817
   52MOL  Cl118 6340   5.473   2.063   3.619 -0.0111 -0.2499 -0.1195
   52MOL   C119 6341   5.476   2.132   3.873  0.3064  0.6035 -0.1921
   52MOL   H120 6342   5.572   2.177   3.849  1.4940 -0.5946  2.0473
   52MOL   H121 6343   5.427   2.186   3.954 -0.2794 -1.5158  0.8921
   52MOL   H122 6344   5.504   2.030   3.902  1.4784  0.8104 -0.5514
   53MOL     C1 6345   3.589   8.586   1.014  0.1473 -0.2689  0.1568
   53MOL    Cl2 6346   3.676   8.736   0.974  0.3803 -0.2626  0.0897
   53MOL    Cl3 6347   3.645   8.460   0.910  0.2399  0.0332 -0.2429
   53MOL     C4 6348   3.620   8.557   1.164  0.6194 -0.9815  0.3380
   53MOL     H5 6349   3.727   8.548   1.183  0.3345 -0.8087  2.0897
   53MOL     H6 6350   3.595   8.648   1.218 -0.3377 -1.8007  1.2943
   53MOL     H7 6351   3.485   8.601   0.987  0.5387  2.6464  0.1411
   53MOL     C8 6352   3.554   8.439   1.233  0.0262  0.1677  0.0943
   53MOL    Cl9 6353   3.621   8.285   1.162  0.3742 -0.0754 -0.4920
   53MOL   Cl10 6354   3.382   8.461   1.209 -0.0567  0.1355  0.0163
   53MOL    C11 6355   3.585   8.448   1.389  0.2870 -0.1375  0.0249
   53MOL    H12 6356   3.692   8.428   1.399  0.3856 -0.5933 -1.8833
   53MOL    H13 6357   3.559   8.548   1.424  1.5616  0.0739  0.4211
   53MOL    C14 6358   3.528   8.355   1.500  0.5767  0.1372 -0.0168
   53MOL   Cl15 6359   3.576   8.190   1.460 -0.1547 -0.4145  0.1551
   53MOL   Cl16 6360   3.351   8.366   1.502 -0.1125  0.2199 -0.2265
   53MOL    C17 6361   3.571   8.385   1.647  0.2955 -0.1322  0.0555
   53MOL    H18 6362   3.505   8.464   1.682  1.3802 -0.2061  2.3465
   53MOL    H19 6363   3.536   8.296   1.700  0.2186 -0.7805 -1.0786
   53MOL    C20 6364   3.718   8.417   1.683 -0.7007  0.4394  0.0040
   53MOL   Cl21 6365   3.762   8.584   1.645 -0.4304  0.0818  0.1674
   53MOL   Cl22 6366   3.830   8.293   1.606  0.0977 -0.2088 -0.3529
   53MOL    C23 6367   3.738   8.428   1.843 -0.2193  0.2076  0.2435
   53MOL    H24 6368   3.845   8.434   1.861 -0.7689 -1.0761  4.3631
   53MOL    H25 6369   3.688   8.522   1.867 -3.3500 -1.6871  1.4679
   53MOL    C26 6370   3.685   8.329   1.946 -0.2541  0.4732 -0.1317
   53MOL   Cl27 6371   3.509   8.363   1.968  0.3715  0.1491 -0.0555
   53MOL   Cl28 6372   3.773   8.384   2.090 -0.1820 -0.0182  0.1798
   53MOL    C29 6373   3.715   8.183   1.909 -0.0171  0.1608  0.0184
   53MOL    H30 6374   3.644   8.166   1.828 -0.6563  0.7626  0.4593
   53MOL    H31 6375   3.815   8.178   1.865  0.1437  0.9332  0.2943
   53MOL    C32 6376   3.699   8.058   2.009 -0.3097  1.1975  0.5789
   53MOL   Cl33 6377   3.550   8.079   2.111 -0.0150  0.1185  0.0068
   53MOL   Cl34 6378   3.846   8.080   2.113  0.0006 -0.2538 -0.3745
   53MOL    C35 6379   3.699   7.914   1.946  0.6760  0.5679  0.4521
   53MOL    H36 6380   3.798   7.886   1.911 -0.2990  1.2310 -2.9477
   53MOL    H37 6381   3.683   7.837   2.022 -1.8237 -0.5279 -1.1492
   53MOL    C38 6382   3.602   7.890   1.826 -1.0888  0.5082 -0.0856
   53MOL   Cl39 6383   3.667   7.971   1.679  0.2882  0.2785  0.0454
   53MOL   Cl40 6384   3.439   7.954   1.849 -0.2442  0.0829  0.1325
   53MOL    C41 6385   3.578   7.735   1.787 -0.3884 -0.2215 -0.1988
   53MOL    H42 6386   3.496   7.700   1.849  0.1757  0.1872  0.7921
   53MOL    H43 6387   3.552   7.746   1.681 -0.7850  0.2122 -0.0585
   53MOL    C44 6388   3.683   7.621   1.803 -0.0837 -0.0826  0.3989
   53MOL   Cl45 6389   3.728   7.602   1.973  0.5519 -0.1033 -0.0867
   53MOL   Cl46 6390   3.825   7.669   1.703  0.3409 -0.1718 -0.0320
   53MOL    C47 6391   3.630   7.482   1.768 -0.3242  0.1065  0.4042
   53MOL    H48 6392   3.708   7.408   1.787  0.8360  1.7256  2.0648
   53MOL    H49 6393   3.556   7.456   1.845 -0.0308  0.1382  0.6970
   53MOL    C50 6394   3.554   7.450   1.633 -0.4230  0.0788  0.3278
   53MOL   Cl51 6395   3.400   7.540   1.631 -0.2991 -0.0162  0.2213
   53MOL   Cl52 6396   3.504   7.279   1.656 -0.3585  0.4032 -0.1878
   53MOL    C53 6397   3.630   7.470   1.498 -0.1253  0.4503  0.5199
   53MOL    H54 6398   3.672   7.570   1.485 -1.2253  0.5674 -2.7486
   53MOL    H55 6399   3.716   7.404   1.507  0.6288  1.2503 -0.5224
   53MOL    C56 6400   3.569   7.446   1.356 -0.4869 -0.2555 -0.2701
   53MOL   Cl57 6401   3.458   7.581   1.310  0.3075  0.2059 -0.0547
   53MOL   Cl58 6402   3.472   7.294   1.358 -0.2092  0.0324 -0.0662
   53MOL    C59 6403   3.674   7.419   1.240 -0.6074 -0.6177  0.4088
   53MOL    H60 6404   3.732   7.331   1.269  0.2875  0.0353  0.6179
   53MOL    H61 6405   3.615   7.387   1.155  0.4257  0.5719 -0.7657
   53MOL    C62 6406   3.789   7.507   1.190 -0.0902 -0.0047 -0.2000
   53MOL   Cl63 6407   3.899   7.430   1.068  0.1421  0.0054  0.0817
   53MOL   Cl64 6408   3.895   7.546   1.327 -0.2419 -0.0007  0.1364
   53MOL    C65 6409   3.730   7.640   1.135  0.6184  0.4848  0.1613
   53MOL    H66 6410   3.657   7.610   1.060  0.5058 -2.8123  1.5055
   53MOL    H67 6411   3.661   7.679   1.210  0.9341  1.0901  0.1366
   53MOL    C68 6412   3.813   7.764   1.082 -0.2203 -0.1901 -0.3251
   53MOL   Cl69 6413   3.711   7.909   1.052  0.4762 -0.1192  0.0300
   53MOL   Cl70 6414   3.876   7.723   0.916  0.2589 -0.1423  0.2125
   53MOL    C71 6415   3.935   7.809   1.173 -0.1379  0.1836  0.3276
   53MOL    H72 6416   4.004   7.727   1.194  0.3447  0.2661 -0.8851
   53MOL    H73 6417   3.996   7.879   1.116 -2.0605  0.3746 -1.5569
   53MOL    C74 6418   3.909   7.883   1.314 -0.8410 -0.2356 -0.0600
   53MOL   Cl75 6419   4.048   7.830   1.420  0.1752  0.0782 -0.2116
   53MOL   Cl76 6420   3.763   7.821   1.391  0.3403 -0.2954  0.2298
   53MOL    C77 6421   3.900   8.044   1.301 -0.0708 -0.2864  0.2421
   53MOL    H78 6422   3.801   8.076   1.271  0.2633  0.6766  0.1468
   53MOL    H79 6423   3.904   8.075   1.406 -1.3954  0.4264  0.0932
   53MOL    C80 6424   4.007   8.132   1.230 -0.2254 -0.1979 -0.0001
   53MOL   Cl81 6425   3.964   8.128   1.057  0.2536 -0.0713  0.0162
   53MOL   Cl82 6426   4.176   8.064   1.247 -0.1431  0.0064 -0.0396
   53MOL    C83 6427   3.993   8.280   1.282  0.3276  0.3896  0.6488
   53MOL    H84 6428   3.885   8.298   1.289  0.7345  2.1397  3.5961
   53MOL    H85 6429   4.026   8.283   1.386  0.0536  0.1366  0.7442
   53MOL    C86 6430   4.048   8.405   1.206 -0.1416 -0.2125 -0.0390
   53MOL   Cl87 6431   3.988   8.559   1.285 -0.1904  0.0529  0.0870
   53MOL   Cl88 6432   3.981   8.423   1.047 -0.4006  0.4458 -0.1413
   53MOL    C89 6433   4.201   8.407   1.187 -0.4557  0.0173 -0.0872
   53MOL    H90 6434   4.211   8.312   1.135  1.5693 -0.0158  0.3260
   53MOL    H91 6435   4.222   8.487   1.116  1.7811 -0.6038 -0.1675
   53MOL    C92 6436   4.303   8.428   1.306  0.2953 -0.1762 -0.1826
   53MOL   Cl93 6437   4.265   8.316   1.439 -0.0695 -0.6919 -0.1332
   53MOL   Cl94 6438   4.283   8.601   1.365 -0.0724 -0.2050  0.0008
   53MOL    C95 6439   4.456   8.408   1.272 -0.2564 -0.4471 -0.0697
   53MOL    H96 6440   4.508   8.441   1.362 -0.6402 -2.6956  1.0259
   53MOL    H97 6441   4.477   8.301   1.267 -1.7489 -0.7868  0.6430
   53MOL    C98 6442   4.515   8.474   1.142  0.1298  0.9933 -0.6554
   53MOL   Cl99 6443   4.456   8.637   1.122  0.5988  0.3297 -0.2513
   53MOL  Cl100 6444   4.442   8.381   1.006  0.0771 -0.1892  0.0068
   53MOL   C101 6445   4.668   8.484   1.124 -0.7056 -0.2890 -0.2058
   53MOL   H102 6446   4.706   8.390   1.084 -2.1925 -0.6955 -0.6730
   53MOL   H103 6447   4.675   8.552   1.039 -0.0105  1.0363  0.8888
   53MOL   C104 6448   4.763   8.533   1.238 -0.3637 -0.3149  0.0817
   53MOL  Cl105 6449   4.749   8.423   1.373 -0.2517  0.0362  0.3323
   53MOL  Cl106 6450   4.715   8.691   1.311  0.1058  0.1201  0.5998
   53MOL   C107 6451   4.915   8.536   1.200  0.5423 -0.3575  0.8490
   53MOL   H108 6452   4.955   8.560   1.299  0.2106  1.4872  0.5560
   53MOL   H109 6453   4.931   8.432   1.172 -0.7992 -1.1048  2.7889
   53MOL   C110 6454   4.978   8.619   1.080 -0.0724  0.2851  0.0568
   53MOL  Cl111 6455   4.919   8.782   1.089  0.2155 -0.5700  0.1772
   53MOL  Cl112 6456   4.928   8.541   0.933  0.1364 -0.0109 -0.0480
   53MOL   C113 6457   5.134   8.613   1.083  0.1206  0.1676 -0.3644
   53MOL   H114 6458   5.173   8.653   1.177 -0.6197  0.9480 -0.3866
   53MOL   H115 6459   5.152   8.507   1.101 -0.8615  0.0886  0.2014
   53MOL   C116 6460   5.221   8.672   0.970  0.0872 -0.5386 -0.0296
   53MOL  Cl117 6461   5.386   8.653   1.008 -0.8082  0.1326  0.2041
   53MOL  Cl118 6462   5.192   8.844   0.955 -0.4510 -0.0239  0.1115
   53MOL   C119 6463   5.212   8.610   0.831 -0.3554 -0.5008 -0.7595
   53MOL   H120 6464   5.113   8.621   0.788 -0.5100 -1.2327 -0.5935
   53MOL   H121 6465   5.275   8.660   0.758 -1.3866 -0.1430 -1.4138
   53MOL   H122 6466   5.244   8.506   0.833  2.1719  0.2547  0.0203
   54MOL     C1 6467   7.341   6.514   0.831  0.2486  0.3092 -0.0672
   54MOL    Cl2 6468   7.168   6.545   0.832  0.3275  0.5377 -0.0863
   54MOL    Cl3 6469   7.427   6.668   0.795 -0.3360  0.1387 -0.0940
   54MOL     C4 6470   7.378   6.440   0.959  0.2505  0.2672  0.1431
   54MOL     H5 6471   7.358   6.509   1.041  2.4609  1.3433 -0.1856
   54MOL     H6 6472   7.306   6.358   0.970  0.6538  0.0547  1.3202
   54MOL     H7 6473   7.364   6.447   0.749  0.0583  1.2076 -0.8639
   54MOL     C8 6474   7.515   6.375   0.982  0.0511  0.2354 -0.8274
   54MOL    Cl9 6475   7.641   6.495   1.015  0.4836 -0.1107 -0.1713
   54MOL   Cl10 6476   7.562   6.284   0.832  0.1434  0.0135  0.5039
   54MOL    C11 6477   7.508   6.274   1.102 -0.1460 -0.0793  0.6172
   54MOL    H12 6478   7.443   6.310   1.181  0.1502  0.1944  0.7378
   54MOL    H13 6479   7.462   6.178   1.076  1.0129 -0.8802  1.4707
   54MOL    C14 6480   7.636   6.221   1.175 -0.0079 -0.2934 -0.9075
   54MOL   Cl15 6481   7.578   6.084   1.271 -0.4881  0.2439 -0.4464
   54MOL   Cl16 6482   7.682   6.355   1.287  0.1348  0.4653 -0.4675
   54MOL    C17 6483   7.763   6.189   1.085 -0.0532 -0.3955 -0.8065
   54MOL    H18 6484   7.720   6.137   0.999  1.0493 -2.1770 -0.3038
   54MOL    H19 6485   7.798   6.279   1.033  0.7121 -0.0049  0.3590
   54MOL    C20 6486   7.880   6.096   1.124 -0.4654 -0.3714  1.1791
   54MOL   Cl21 6487   7.971   6.095   0.974 -0.1219  0.2601  0.2260
   54MOL   Cl22 6488   7.830   5.927   1.149  0.4977  0.2465  0.1066
   54MOL    C23 6489   7.968   6.145   1.239 -0.0840  1.0880 -0.2087
   54MOL    H24 6490   8.032   6.228   1.207  1.2277 -0.9703 -3.1314
   54MOL    H25 6491   7.894   6.188   1.307  0.7670 -1.1603  2.1944
   54MOL    C26 6492   8.074   6.052   1.314 -0.7194  0.7822 -0.1026
   54MOL   Cl27 6493   8.175   5.968   1.191 -0.1801 -0.1019 -0.0964
   54MOL   Cl28 6494   7.993   5.933   1.413 -0.7550 -0.0287  0.0552
   54MOL    C29 6495   8.169   6.147   1.403  0.0355  0.1311  0.2762
   54MOL    H30 6496   8.243   6.092   1.460  2.4313  2.7580 -0.1957
   54MOL    H31 6497   8.225   6.210   1.335 -0.3445  0.0782 -0.0894
   54MOL    C32 6498   8.111   6.246   1.514 -0.0433 -0.2496  0.1729
   54MOL   Cl33 6499   8.033   6.388   1.434 -0.1701 -0.1824 -0.3869
   54MOL   Cl34 6500   8.257   6.306   1.588  0.6827 -0.1121  0.0188
   54MOL    C35 6501   8.025   6.177   1.624 -0.2496  0.5961 -0.6552
   54MOL    H36 6502   7.940   6.133   1.572 -0.7881  1.5358 -0.5821
   54MOL    H37 6503   8.081   6.101   1.678  0.5949  0.0450 -2.2594
   54MOL    C38 6504   7.952   6.261   1.741  0.2449  0.3077  0.0242
   54MOL   Cl39 6505   7.822   6.369   1.677  0.0033 -0.1303 -0.2673
   54MOL   Cl40 6506   8.069   6.348   1.838  0.2340 -0.3687 -0.5595
   54MOL    C41 6507   7.890   6.163   1.856 -0.2154  0.0861  0.1471
   54MOL    H42 6508   7.969   6.127   1.922  1.0850  2.7113  0.1175
   54MOL    H43 6509   7.824   6.228   1.914  0.7810  2.1867 -0.9922
   54MOL    C44 6510   7.802   6.039   1.817 -0.4737 -0.0876  0.2353
   54MOL   Cl45 6511   7.906   5.892   1.791 -0.3488  0.1586 -0.5695
   54MOL   Cl46 6512   7.704   6.079   1.664 -0.1566 -0.4309  0.0319
   54MOL    C47 6513   7.699   6.000   1.924 -0.6285  0.0681 -0.1284
   54MOL    H48 6514   7.622   6.076   1.924  0.7401  1.5181 -2.3485
   54MOL    H49 6515   7.658   5.908   1.883 -0.4726  0.2200 -0.6264
   54MOL    C50 6516   7.735   5.984   2.075 -0.1561  0.5106 -0.8971
   54MOL   Cl51 6517   7.754   6.139   2.160  0.1522  0.2242  0.4210
   54MOL   Cl52 6518   7.889   5.899   2.088  0.2254  0.1878 -0.1476
   54MOL    C53 6519   7.638   5.887   2.157 -0.4450 -0.8807  0.1125
   54MOL    H54 6520   7.667   5.785   2.131 -0.3951 -0.6275 -0.8694
   54MOL    H55 6521   7.660   5.900   2.263  0.5545 -1.4503 -0.0186
   54MOL    C56 6522   7.486   5.910   2.147 -0.1892  0.5026 -0.3258
   54MOL   Cl57 6523   7.423   5.882   1.984  0.1650 -0.3938 -0.6942
   54MOL   Cl58 6524   7.444   6.076   2.186 -0.0520 -0.0939  0.4860
   54MOL    C59 6525   7.418   5.814   2.249  0.6662  0.5178  0.7296
   54MOL    H60 6526   7.452   5.713   2.227 -1.6249 -0.3110  0.8602
   54MOL    H61 6527   7.470   5.834   2.342  1.6959 -0.7634  0.4427
   54MOL    C62 6528   7.269   5.807   2.284  0.4232  0.4394 -0.2444
   54MOL   Cl63 6529   7.220   5.948   2.370 -0.2541 -0.0065 -0.3504
   54MOL   Cl64 6530   7.260   5.673   2.402 -0.2234 -0.1307  0.2608
   54MOL    C65 6531   7.175   5.790   2.156  0.3426  0.3363 -0.3883
   54MOL    H66 6532   7.163   5.885   2.104 -2.0450  0.0039 -0.4701
   54MOL    H67 6533   7.244   5.732   2.094  0.6918  1.2281 -0.8421
   54MOL    C68 6534   7.048   5.704   2.152  0.3357  0.6814  0.2134
   54MOL   Cl69 6535   6.946   5.747   2.289  0.0051  0.3308  0.3725
   54MOL   Cl70 6536   7.081   5.532   2.184 -0.0538 -0.2314  0.1661
   54MOL    C71 6537   6.958   5.721   2.025  0.1678  0.0363  0.4716
   54MOL    H72 6538   6.864   5.669   2.040  0.2922 -0.6483 -0.9989
   54MOL    H73 6539   6.941   5.828   2.010  0.3435 -0.0263 -0.2244
   54MOL    C74 6540   6.996   5.658   1.880  0.2232 -0.0120 -0.0932
   54MOL   Cl75 6541   7.164   5.704   1.844 -0.1019 -0.1318 -0.0998
   54MOL   Cl76 6542   6.894   5.726   1.749 -0.0233  0.3295  0.1216
   54MOL    C77 6543   6.986   5.497   1.868 -0.1028 -0.2475 -0.1777
   54MOL    H78 6544   7.006   5.476   1.763  0.4530 -2.2691  0.3158
   54MOL    H79 6545   7.066   5.458   1.931  1.4565  0.1284 -1.9070
   54MOL    C80 6546   6.849   5.422   1.899  0.3865  0.4340 -0.0112
   54MOL   Cl81 6547   6.813   5.397   2.075 -0.0691 -0.3597  0.0500
   54MOL   Cl82 6548   6.887   5.251   1.839 -0.2976 -0.5410  0.4749
   54MOL    C83 6549   6.720   5.479   1.824 -0.4640  0.3136 -0.0583
   54MOL    H84 6550   6.684   5.568   1.875  1.9776  2.4488 -1.9515
   54MOL    H85 6551   6.744   5.500   1.719 -0.0912 -1.8225 -0.4271
   54MOL    C86 6552   6.583   5.399   1.818 -0.1656  0.0841  0.1954
   54MOL   Cl87 6553   6.533   5.327   1.970  0.1104  0.2187 -0.3183
   54MOL   Cl88 6554   6.603   5.264   1.705 -0.3076  0.1500 -0.0706
   54MOL    C89 6555   6.464   5.481   1.775 -0.2427 -0.7293  0.0980
   54MOL    H90 6556   6.375   5.417   1.771  1.1318 -2.8712  2.2135
   54MOL    H91 6557   6.448   5.547   1.861  2.2670  3.2957 -2.3773
   54MOL    C92 6558   6.466   5.567   1.648 -0.0586 -0.0617  0.2959
   54MOL   Cl93 6559   6.563   5.721   1.682 -0.0287  0.2738 -0.0439
   54MOL   Cl94 6560   6.300   5.618   1.625 -0.1610 -0.1253  0.0711
   54MOL    C95 6561   6.505   5.488   1.516  0.3552 -0.1208  0.8332
   54MOL    H96 6562   6.609   5.458   1.532  0.4722  0.5289  1.3133
   54MOL    H97 6563   6.437   5.402   1.518  1.3267 -0.9284 -0.1162
   54MOL    C98 6564   6.508   5.541   1.364 -0.2373 -0.0416 -0.2185
   54MOL   Cl99 6565   6.339   5.584   1.310  0.2560  0.0597  0.4307
   54MOL  Cl100 6566   6.548   5.397   1.273  0.2491  0.0500 -0.1816
   54MOL   C101 6567   6.620   5.652   1.348 -0.1332  0.2334  1.3299
   54MOL   H102 6568   6.597   5.744   1.401 -0.8354 -0.1130  1.6171
   54MOL   H103 6569   6.712   5.618   1.394  0.5857 -0.1333 -0.3164
   54MOL   C104 6570   6.656   5.715   1.205  0.6150 -0.6734 -0.7679
   54MOL  Cl105 6571   6.515   5.781   1.128 -0.1063 -0.6154  0.2063
   54MOL  Cl106 6572   6.736   5.586   1.103 -0.2543 -0.3586 -0.2507
   54MOL   C107 6573   6.750   5.836   1.214  0.2587 -0.1742 -0.3813
   54MOL   H108 6574   6.763   5.875   1.113  0.9155 -0.3103 -0.3555
   54MOL   H109 6575   6.684   5.918   1.240  1.1754  0.7354 -0.8986
   54MOL   C110 6576   6.874   5.844   1.310 -0.5561 -0.5206  0.0173
   54MOL  Cl111 6577   6.967   5.691   1.319 -0.1149  0.0698  0.4150
   54MOL  Cl112 6578   6.810   5.883   1.470 -0.5444 -0.1245 -0.0411
   54MOL   C113 6579   6.970   5.964   1.266  0.6783 -0.5685  0.4952
   54MOL   H114 6580   7.059   5.968   1.330  3.3475  1.6108 -3.1470
   54MOL   H115 6581   6.994   5.933   1.164 -0.0398 -2.3061  0.8392
   54MOL   C116 6582   6.911   6.116   1.259  0.4456  0.0597 -0.5560
   54MOL  Cl117 6583   6.771   6.137   1.147 -0.1823  0.0702  0.0572
   54MOL  Cl118 6584   7.043   6.221   1.197 -0.0951  0.1159  0.1921
   54MOL   C119 6585   6.860   6.171   1.394  0.9356 -0.7699 -0.0608
   54MOL   H120 6586   6.928   6.160   1.478  1.2044  3.1702  0.3104
   54MOL   H121 6587   6.842   6.278   1.391  0.8719 -0.7909 -0.4760
   54MOL   H122 6588   6.756   6.144   1.413  0.5417  2.1393  2.1710
   55MOL     C1 6589   6.093   6.125   6.059  0.2233  1.3092 -0.1012
   55MOL    Cl2 6590   6.033   6.053   5.907  0.2316 -0.0779  0.2832
   55MOL    Cl3 6591   6.063   6.004   6.198 -0.0366 -0.0681 -0.0622
   55MOL     C4 6592   6.243   6.154   6.063 -0.0312 -0.4869  0.7229
   55MOL     H5 6593   6.279   6.146   6.165  0.1213  0.5494  0.7590
   55MOL     H6 6594   6.293   6.072   6.011  0.9846 -1.2807  2.8988
   55MOL     H7 6595   6.041   6.220   6.066 -0.8386  0.6995  0.2691
   55MOL     C8 6596   6.300   6.294   6.009 -0.2190  0.0903  0.6118
   55MOL    Cl9 6597   6.237   6.423   6.118  0.4373 -0.0864  0.0744
   55MOL   Cl10 6598   6.240   6.315   5.847  0.0545  0.1900 -0.0062
   55MOL    C11 6599   6.448   6.314   5.995  0.1384  0.5974  0.2158
   55MOL    H12 6600   6.469   6.248   5.911 -1.4035 -1.1257  1.1503
   55MOL    H13 6601   6.457   6.417   5.961 -0.6691  0.2327 -1.1417
   55MOL    C14 6602   6.556   6.283   6.108 -0.1339  0.0882  0.2394
   55MOL   Cl15 6603   6.539   6.116   6.165  0.1080  0.2062  0.1969
   55MOL   Cl16 6604   6.536   6.394   6.251  0.0505 -0.1535  0.2156
   55MOL    C17 6605   6.703   6.307   6.062  0.8416 -0.7595  0.2395
   55MOL    H18 6606   6.716   6.415   6.056  0.3219 -0.6467  1.0938
   55MOL    H19 6607   6.766   6.274   6.145 -0.7736 -0.9328  1.4211
   55MOL    C20 6608   6.778   6.254   5.932 -0.7359  0.1491 -0.0503
   55MOL   Cl21 6609   6.692   6.314   5.781 -0.1338 -0.3869  0.0944
   55MOL   Cl22 6610   6.761   6.079   5.941  0.2105 -0.0153  0.1979
   55MOL    C23 6611   6.932   6.284   5.924 -0.3786  0.3551  0.2585
   55MOL    H24 6612   6.991   6.214   5.983  1.7490  2.0749  0.2378
   55MOL    H25 6613   6.970   6.270   5.822  2.7646  0.7649  1.3114
   55MOL    C26 6614   6.983   6.421   5.972 -0.0886 -0.3136  0.1409
   55MOL   Cl27 6615   6.973   6.449   6.142 -0.1150 -0.1914  0.1951
   55MOL   Cl28 6616   6.890   6.550   5.897  0.0231  0.5354 -0.3636
   55MOL    C29 6617   7.127   6.448   5.927  0.5839 -0.7515 -0.2877
   55MOL    H30 6618   7.121   6.455   5.818 -0.5771 -2.0174 -0.3297
   55MOL    H31 6619   7.150   6.549   5.960  0.7020 -0.7027 -0.5147
   55MOL    C32 6620   7.248   6.356   5.968  0.2294  0.5783  0.0489
   55MOL   Cl33 6621   7.227   6.196   5.890  0.0331  0.0930  0.4085
   55MOL   Cl34 6622   7.251   6.331   6.140 -0.1257  0.4480 -0.0399
   55MOL    C35 6623   7.386   6.413   5.917  0.1464 -0.0733 -0.0773
   55MOL    H36 6624   7.367   6.426   5.811 -1.9772  1.0560  0.4168
   55MOL    H37 6625   7.409   6.513   5.954 -0.5929  0.4756 -1.0848
   55MOL    C38 6626   7.513   6.337   5.918 -0.3758 -0.4394  0.2931
   55MOL   Cl39 6627   7.639   6.444   5.862  0.3575 -0.5045 -0.2167
   55MOL   Cl40 6628   7.517   6.210   5.798  0.2933  0.0124 -0.4698
   55MOL    C41 6629   7.553   6.276   6.061  0.1613  0.4956 -0.5592
   55MOL    H42 6630   7.535   6.347   6.142 -0.1299  0.6459 -0.7557
   55MOL    H43 6631   7.482   6.195   6.077 -0.3000  1.0432  0.1899
   55MOL    C44 6632   7.690   6.226   6.102  0.1334  0.1595  0.3975
   55MOL   Cl45 6633   7.689   6.136   6.259 -0.1833 -0.0250  0.2995
   55MOL   Cl46 6634   7.793   6.368   6.139 -0.3405 -0.1668 -0.2197
   55MOL    C47 6635   7.772   6.137   5.995 -0.1000 -0.4011  0.1929
   55MOL    H48 6636   7.755   6.183   5.897 -0.5644 -0.1609  0.3810
   55MOL    H49 6637   7.877   6.141   6.023  0.4666 -0.6911 -1.8337
   55MOL    C50 6638   7.730   5.983   5.983 -0.1589  0.5363  0.4111
   55MOL   Cl51 6639   7.555   5.952   5.987 -0.5373 -0.6405  0.1338
   55MOL   Cl52 6640   7.824   5.899   6.118  0.5361 -0.2184  0.5772
   55MOL    C53 6641   7.777   5.919   5.847  0.3902 -1.1330 -0.6880
   55MOL    H54 6642   7.716   5.830   5.829  0.1613 -1.2921  0.7635
   55MOL    H55 6643   7.736   5.986   5.772  2.2960  0.9160  0.0496
   55MOL    C56 6644   7.927   5.892   5.805 -0.4138  0.0071 -0.7925
   55MOL   Cl57 6645   8.038   6.010   5.882 -0.0899 -0.5240  0.2251
   55MOL   Cl58 6646   7.935   5.937   5.633  0.5544  0.4436  0.3473
   55MOL    C59 6647   7.975   5.742   5.818 -0.2825 -0.4169 -1.0625
   55MOL    H60 6648   7.979   5.730   5.927 -0.2575 -1.8883 -1.2082
   55MOL    H61 6649   7.893   5.677   5.790  0.0916 -2.6695  2.6335
   55MOL    C62 6650   8.104   5.689   5.755  0.4375 -0.0499 -0.1845
   55MOL   Cl63 6651   8.092   5.680   5.574 -0.1788 -0.1660 -0.2030
   55MOL   Cl64 6652   8.132   5.525   5.825 -0.0740  0.0514  0.1818
   55MOL    C65 6653   8.234   5.779   5.790  0.6862 -0.4459 -0.2030
   55MOL    H66 6654   8.232   5.868   5.728 -0.5425 -1.3982 -1.5993
   55MOL    H67 6655   8.231   5.820   5.890  2.0640  2.8827 -1.4739
   55MOL    C68 6656   8.373   5.719   5.770  0.2726  0.0400 -0.4516
   55MOL   Cl69 6657   8.474   5.851   5.719 -0.1839 -0.0005 -0.0619
   55MOL   Cl70 6658   8.376   5.616   5.624 -0.1574  0.1988  0.1663
   55MOL    C71 6659   8.439   5.640   5.878 -0.0987 -0.1239 -0.1347
   55MOL    H72 6660   8.430   5.534   5.851 -2.1715  0.6140 -2.4985
   55MOL    H73 6661   8.547   5.648   5.862 -0.3798  0.5145 -1.8031
   55MOL    C74 6662   8.427   5.681   6.029 -0.0792 -0.3396 -0.8376
   55MOL   Cl75 6663   8.265   5.641   6.100 -0.0908  0.2438  0.0070
   55MOL   Cl76 6664   8.438   5.861   6.036 -0.3711  0.3910 -0.2580
   55MOL    C77 6665   8.532   5.623   6.123 -1.0545 -0.4792 -0.6059
   55MOL    H78 6666   8.625   5.668   6.089 -0.4703 -0.7781  0.6073
   55MOL    H79 6667   8.521   5.675   6.218 -1.5427 -1.5215 -0.0861
   55MOL    C80 6668   8.555   5.468   6.142  0.3540 -0.1005  0.1845
   55MOL   Cl81 6669   8.687   5.445   6.263 -0.1814  0.2591  0.4501
   55MOL   Cl82 6670   8.605   5.412   5.983 -0.0769  0.4541 -0.4553
   55MOL    C83 6671   8.441   5.375   6.172  0.3783 -0.0899  0.1216
   55MOL    H84 6672   8.362   5.398   6.100 -0.5532 -0.3173  1.0541
   55MOL    H85 6673   8.470   5.274   6.147 -1.5109 -0.5450 -0.3064
   55MOL    C86 6674   8.371   5.356   6.312 -0.2298 -0.1954  0.5940
   55MOL   Cl87 6675   8.361   5.518   6.392  0.1812  0.2540  0.0897
   55MOL   Cl88 6676   8.461   5.250   6.416  0.3870  0.2641 -0.1775
   55MOL    C89 6677   8.222   5.304   6.311  0.5839 -0.3187 -0.3444
   55MOL    H90 6678   8.180   5.314   6.411  1.7218  1.9689 -0.0585
   55MOL    H91 6679   8.183   5.397   6.270  1.7484  1.2660  2.0208
   55MOL    C92 6680   8.175   5.182   6.226 -0.7365  0.5898  0.4876
   55MOL   Cl93 6681   8.285   5.047   6.259 -0.1575  0.2365  0.0172
   55MOL   Cl94 6682   8.175   5.215   6.045  0.0375 -0.3612  0.1610
   55MOL    C95 6683   8.039   5.130   6.271  0.7986 -0.3955  1.0396
   55MOL    H96 6684   8.015   5.032   6.229 -1.6261  0.3808  0.5096
   55MOL    H97 6685   8.058   5.107   6.376 -0.0738 -2.6405  0.7455
   55MOL    C98 6686   7.911   5.212   6.255  0.0344 -0.3001  0.0854
   55MOL   Cl99 6687   7.924   5.364   6.353  0.0476  0.4329 -0.2014
   55MOL  Cl100 6688   7.796   5.100   6.336 -0.1668 -0.3693 -0.3068
   55MOL   C101 6689   7.861   5.236   6.103 -0.6401 -0.6116 -0.0297
   55MOL   H102 6690   7.932   5.308   6.062 -1.7715  1.4917  1.5990
   55MOL   H103 6691   7.890   5.155   6.036 -0.7957  1.1159 -2.2472
   55MOL   C104 6692   7.711   5.279   6.062 -0.7517 -0.2625 -0.1947
   55MOL  Cl105 6693   7.623   5.130   6.060 -0.2752 -0.1190  0.0231
   55MOL  Cl106 6694   7.726   5.326   5.892  0.0537 -0.0995  0.2491
   55MOL   C107 6695   7.638   5.387   6.153 -0.9183 -0.0736  0.7742
   55MOL   H108 6696   7.531   5.367   6.155 -0.7995 -1.6408 -3.7617
   55MOL   H109 6697   7.667   5.371   6.257 -0.6821  0.5743  0.8120
   55MOL   C110 6698   7.649   5.540   6.124  0.8928 -0.7463  0.1886
   55MOL  Cl111 6699   7.555   5.580   5.970  0.2622 -0.4387  0.0581
   55MOL  Cl112 6700   7.818   5.590   6.101  0.1521  0.3766 -0.2815
   55MOL   C113 6701   7.601   5.634   6.240  0.4307  0.9411 -0.0015
   55MOL   H114 6702   7.611   5.736   6.204 -0.8432  1.8345  2.0585
   55MOL   H115 6703   7.497   5.603   6.255 -0.1337  1.7951 -2.0484
   55MOL   C116 6704   7.655   5.642   6.389 -0.4773 -0.4709 -0.6293
   55MOL  Cl117 6705   7.822   5.699   6.390 -0.0785 -0.7965  0.5842
   55MOL  Cl118 6706   7.642   5.486   6.484  0.2000 -0.1556 -0.3225
   55MOL   C119 6707   7.566   5.749   6.459 -0.0965 -1.0933 -0.4066
   55MOL   H120 6708   7.585   5.749   6.567 -0.9763 -0.4337 -0.2420
   55MOL   H121 6709   7.573   5.851   6.421  0.4273 -1.0660 -0.2327
   55MOL   H122 6710   7.462   5.720   6.444 -0.1277 -1.3671  0.3189
   56MOL     C1 6711   6.812   3.661   7.453 -0.9274  0.0330 -0.3304
   56MOL    Cl2 6712   6.949   3.615   7.564 -0.0489 -0.1187  0.0140
   56MOL    Cl3 6713   6.734   3.815   7.503  0.1618 -0.3734  0.2084
   56MOL     C4 6714   6.871   3.670   7.315 -0.5593 -0.3213 -0.1005
   56MOL     H5 6715   6.957   3.736   7.323  0.5194 -1.6502 -0.6722
   56MOL     H6 6716   6.924   3.576   7.303  1.2853  0.7317 -0.2855
   56MOL     H7 6717   6.743   3.577   7.457 -1.0234  0.0469 -1.5021
   56MOL     C8 6718   6.791   3.688   7.182  0.1908  0.2196 -0.0886
   56MOL    Cl9 6719   6.691   3.834   7.193 -0.0692 -0.2756 -0.3945
   56MOL   Cl10 6720   6.675   3.551   7.177 -0.0575  0.2209 -0.1729
   56MOL    C11 6721   6.891   3.692   7.050  0.5141  0.0890  0.1198
   56MOL    H12 6722   6.830   3.688   6.960  0.2310  0.1534  0.3083
   56MOL    H13 6723   6.940   3.789   7.051  0.0304  0.3625 -1.3585
   56MOL    C14 6724   6.999   3.578   7.028 -0.1191 -0.5740  0.8062
   56MOL   Cl15 6725   6.941   3.423   7.085 -0.0234  0.6040  0.4445
   56MOL   Cl16 6726   7.146   3.616   7.129 -0.2982 -0.4250  0.4661
   56MOL    C17 6727   7.026   3.552   6.876 -1.0777 -0.6994 -0.2306
   56MOL    H18 6728   7.058   3.447   6.879  0.2169 -0.2962  0.3154
   56MOL    H19 6729   6.927   3.538   6.832 -1.2098  2.1764 -0.9335
   56MOL    C20 6730   7.132   3.648   6.796  0.2322  0.2689 -0.1870
   56MOL   Cl21 6731   7.123   3.821   6.850  0.3098 -0.1176  0.0705
   56MOL   Cl22 6732   7.058   3.655   6.631  0.0560  0.2004 -0.0629
   56MOL    C23 6733   7.275   3.597   6.798  0.4656 -0.5697 -0.2555
   56MOL    H24 6734   7.320   3.640   6.888  2.0711 -0.1707 -1.2232
   56MOL    H25 6735   7.280   3.489   6.806 -2.9219 -0.7494  0.0184
   56MOL    C26 6736   7.373   3.639   6.685 -0.4692 -0.1812  0.7024
   56MOL   Cl27 6737   7.335   3.542   6.546 -0.1394  0.6030  0.3888
   56MOL   Cl28 6738   7.535   3.597   6.741 -0.1924  0.0931 -0.2635
   56MOL    C29 6739   7.379   3.789   6.659 -0.2291 -0.7166  0.1699
   56MOL    H30 6740   7.281   3.828   6.629  0.7811  2.1140  0.4727
   56MOL    H31 6741   7.397   3.837   6.755 -0.9089 -0.6013  0.2471
   56MOL    C32 6742   7.478   3.845   6.552  0.8523  0.2060  0.1224
   56MOL   Cl33 6743   7.424   4.019   6.531 -0.0474  0.3629  0.3675
   56MOL   Cl34 6744   7.427   3.783   6.392  0.3047  0.1299 -0.0852
   56MOL    C35 6745   7.636   3.834   6.583 -0.4326  0.3903 -0.0277
   56MOL    H36 6746   7.656   3.844   6.690 -2.1329  1.8051  0.1719
   56MOL    H37 6747   7.647   3.727   6.567  3.3931  0.2703  2.6316
   56MOL    C38 6748   7.737   3.917   6.498 -0.5056 -0.5119  0.1495
   56MOL   Cl39 6749   7.899   3.847   6.539  0.4298 -0.0915  0.3112
   56MOL   Cl40 6750   7.719   4.090   6.556 -0.0759 -0.5125 -0.2319
   56MOL    C41 6751   7.723   3.900   6.343  0.0147 -0.7420  0.4080
   56MOL    H42 6752   7.714   3.792   6.327 -0.4510 -0.7308  0.5832
   56MOL    H43 6753   7.629   3.949   6.315  0.1255 -1.1543 -0.7288
   56MOL    C44 6754   7.833   3.940   6.243  0.0281 -0.6404 -0.1130
   56MOL   Cl45 6755   7.975   3.834   6.234 -0.2538 -0.1089  0.0576
   56MOL   Cl46 6756   7.896   4.105   6.288  0.1970 -0.3093 -0.3149
   56MOL    C47 6757   7.775   3.956   6.094  0.2010  0.1048 -0.7581
   56MOL    H48 6758   7.711   4.044   6.085 -1.6022 -1.1416 -0.1815
   56MOL    H49 6759   7.861   3.983   6.032  0.0342  0.3112 -0.9005
   56MOL    C50 6760   7.705   3.840   6.021 -0.0047 -0.3024  0.5412
   56MOL   Cl51 6761   7.550   3.805   6.103  0.2851 -0.1348  0.3803
   56MOL   Cl52 6762   7.806   3.693   6.023  0.1273  0.0511  0.2870
   56MOL    C53 6763   7.671   3.875   5.874 -0.4582  0.0943  0.2065
   56MOL    H54 6764   7.614   3.793   5.830  1.1135  1.1853 -4.1905
   56MOL    H55 6765   7.601   3.959   5.880 -0.3991  0.3672 -2.1203
   56MOL    C56 6766   7.776   3.929   5.765 -0.0669  0.9194 -0.0569
   56MOL   Cl57 6767   7.932   3.852   5.798 -0.3267 -0.1149 -0.0976
   56MOL   Cl58 6768   7.797   4.111   5.772 -0.1480  0.0479  0.0341
   56MOL    C59 6769   7.735   3.871   5.624 -0.0195 -0.1597 -0.4254
   56MOL    H60 6770   7.744   3.763   5.632 -0.3338 -0.2097 -0.7472
   56MOL    H61 6771   7.628   3.882   5.609 -0.0246 -1.5629 -1.4857
   56MOL    C62 6772   7.806   3.906   5.491 -0.6126  0.0979 -0.3107
   56MOL   Cl63 6773   7.766   4.072   5.443 -0.1540 -0.2088  0.1892
   56MOL   Cl64 6774   7.737   3.808   5.362 -0.1228 -0.0419 -0.2709
   56MOL    C65 6775   7.962   3.895   5.503 -0.7976 -0.2171  0.7607
   56MOL    H66 6776   7.993   3.980   5.564  0.7889 -0.4423  0.2895
   56MOL    H67 6777   7.990   3.806   5.560 -1.7981 -0.5595  0.7285
   56MOL    C68 6778   8.055   3.903   5.377  0.6679  0.8778 -0.2045
   56MOL   Cl69 6779   8.019   4.029   5.257 -0.1073  0.1499  0.1443
   56MOL   Cl70 6780   8.040   3.745   5.291  0.4111 -0.0283 -0.0576
   56MOL    C71 6781   8.210   3.907   5.418  0.0385  0.1319 -0.0869
   56MOL    H72 6782   8.246   3.815   5.466  2.8351  1.3393  0.2449
   56MOL    H73 6783   8.263   3.899   5.323 -1.3209 -1.4402 -0.7309
   56MOL    C74 6784   8.279   4.031   5.487 -0.6848 -0.5036 -0.1265
   56MOL   Cl75 6785   8.459   3.998   5.487 -0.0019  0.1419  0.1619
   56MOL   Cl76 6786   8.240   4.024   5.657  0.2383  0.0882 -0.5455
   56MOL    C77 6787   8.239   4.169   5.425 -0.4647 -0.3013  0.5440
   56MOL    H78 6788   8.246   4.153   5.317  2.1631  0.6851  0.5203
   56MOL    H79 6789   8.135   4.193   5.444 -0.8150  0.0653 -1.6728
   56MOL    C80 6790   8.325   4.301   5.458 -0.0436 -0.5739  0.2284
   56MOL   Cl81 6791   8.225   4.430   5.386 -0.1248  0.1496  0.1191
   56MOL   Cl82 6792   8.485   4.294   5.366  0.1623 -0.0740 -0.1264
   56MOL    C83 6793   8.353   4.320   5.610  0.5061  0.6979 -0.5546
   56MOL    H84 6794   8.270   4.293   5.674  1.7330  2.4341  1.8622
   56MOL    H85 6795   8.422   4.237   5.624 -2.2431 -1.3333  1.2838
   56MOL    C86 6796   8.402   4.456   5.667  0.1950 -0.2012  0.3631
   56MOL   Cl87 6797   8.263   4.571   5.691  0.1123  0.3201 -0.0753
   56MOL   Cl88 6798   8.512   4.543   5.557  0.1091  0.0327 -0.0222
   56MOL    C89 6799   8.482   4.443   5.795 -0.0256  0.1100  0.7184
   56MOL    H90 6800   8.574   4.398   5.756  0.3350  0.7213  0.8446
   56MOL    H91 6801   8.517   4.542   5.824  1.1498  0.0631 -0.4815
   56MOL    C92 6802   8.440   4.359   5.919 -1.2050  0.7963 -0.6441
   56MOL   Cl93 6803   8.578   4.384   6.026 -0.1153  0.0757 -0.1459
   56MOL   Cl94 6804   8.434   4.180   5.889  0.2086 -0.0126  0.1757
   56MOL    C95 6805   8.315   4.412   5.990 -0.4170  0.2134 -0.4467
   56MOL    H96 6806   8.329   4.519   6.002  0.4284  0.0603 -0.0535
   56MOL    H97 6807   8.231   4.407   5.921 -0.0426 -0.4345 -0.8671
   56MOL    C98 6808   8.256   4.343   6.123 -0.2068  0.2723  0.0925
   56MOL   Cl99 6809   8.180   4.195   6.071  0.0735  0.2873 -0.1419
   56MOL  Cl100 6810   8.128   4.453   6.180 -0.0191  0.1719  0.5928
   56MOL   C101 6811   8.359   4.309   6.235  0.1257  0.0661 -0.6593
   56MOL   H102 6812   8.438   4.244   6.199 -0.3250 -0.8665  0.0065
   56MOL   H103 6813   8.401   4.406   6.262  0.2603  0.1544 -1.1819
   56MOL   C104 6814   8.323   4.234   6.370 -0.3977 -0.8263  0.1996
   56MOL  Cl105 6815   8.477   4.238   6.453  0.0329  0.1550 -0.0076
   56MOL  Cl106 6816   8.293   4.061   6.338 -0.1135 -0.0859  0.1538
   56MOL   C107 6817   8.204   4.303   6.452 -0.7160  0.2332  0.3262
   56MOL   H108 6818   8.241   4.405   6.464 -1.1947  0.5853 -1.0485
   56MOL   H109 6819   8.112   4.304   6.394  0.2677  3.1674 -1.3296
   56MOL   C110 6820   8.174   4.256   6.597  0.8428 -0.8657  0.3361
   56MOL  Cl111 6821   8.309   4.276   6.713 -0.0330  0.0584  0.6204
   56MOL  Cl112 6822   8.148   4.077   6.615 -0.0525  0.0920 -0.2639
   56MOL   C113 6823   8.046   4.330   6.658 -0.6105  0.5257 -0.6203
   56MOL   H114 6824   7.961   4.300   6.597  1.3320  0.3681 -3.3080
   56MOL   H115 6825   8.016   4.289   6.755  1.1975 -2.0501 -1.0915
   56MOL   C116 6826   8.034   4.487   6.668  0.1153 -0.5744  0.5495
   56MOL  Cl117 6827   7.884   4.516   6.762  0.1387 -0.2213  0.1089
   56MOL  Cl118 6828   8.010   4.550   6.503 -0.4551  0.4225 -0.6681
   56MOL   C119 6829   8.147   4.563   6.741  0.0190 -0.1105 -0.1679
   56MOL   H120 6830   8.132   4.671   6.738 -0.6694 -0.1046  2.2381
   56MOL   H121 6831   8.167   4.530   6.843  0.2382  0.8730  0.1139
   56MOL   H122 6832   8.236   4.555   6.679 -0.0926 -2.1047 -0.1052
   57MOL     C1 6833   2.111   0.167   1.857  0.1692  0.6214 -0.1376
   57MOL    Cl2 6834   1.964   0.081   1.920 -0.3107 -0.0571  0.3229
   57MOL    Cl3 6835   2.134   0.124   1.685 -0.2992 -0.2855 -0.2645
   57MOL     C4 6836   2.098   0.318   1.870  0.3545  0.3302 -0.1474
   57MOL     H5 6837   2.164   0.355   1.791  0.9054 -0.2320  0.0520
   57MOL     H6 6838   1.998   0.355   1.848 -0.5586 -2.4309 -0.8637
   57MOL     H7 6839   2.198   0.138   1.915  0.5451 -0.7759 -1.3571
   57MOL     C8 6840   2.145   0.387   1.999 -0.8795 -0.2527 -0.1990
   57MOL    Cl9 6841   2.323   0.370   2.015  0.2490  0.2725 -0.5282
   57MOL   Cl10 6842   2.058   0.321   2.141 -0.0901 -0.4493 -0.1779
   57MOL    C11 6843   2.105   0.536   2.009  0.1553 -0.7842  0.3910
   57MOL    H12 6844   2.000   0.536   2.039  0.4319 -1.2636  1.3675
   57MOL    H13 6845   2.160   0.573   2.095  0.2762 -0.1079  0.0302
   57MOL    C14 6846   2.129   0.644   1.903  0.9238 -0.6657 -0.1235
   57MOL   Cl15 6847   2.034   0.604   1.755 -0.2629 -0.1639 -0.0943
   57MOL   Cl16 6848   2.302   0.634   1.855 -0.0079 -0.0624  0.0884
   57MOL    C17 6849   2.105   0.789   1.961  0.2155  0.3904 -0.1800
   57MOL    H18 6850   2.157   0.792   2.057 -2.0904  0.5753  1.0829
   57MOL    H19 6851   2.152   0.855   1.888 -2.5980  1.3988 -1.1119
   57MOL    C20 6852   1.965   0.861   1.976  0.2443 -0.5564 -0.3829
   57MOL   Cl21 6853   1.845   0.756   2.050 -0.1031  0.4101 -0.5298
   57MOL   Cl22 6854   1.888   0.905   1.822  0.3027  0.4831 -0.1111
   57MOL    C23 6855   1.973   1.005   2.046 -0.3948  0.2399  0.0865
   57MOL    H24 6856   2.052   1.061   1.997 -0.3765  0.9179  0.8870
   57MOL    H25 6857   1.888   1.069   2.024 -1.8245 -1.5307  0.3010
   57MOL    C26 6858   1.986   1.026   2.195  0.0318  0.6540  0.2376
   57MOL   Cl27 6859   1.998   1.199   2.211 -0.2903 -0.2502  0.3155
   57MOL   Cl28 6860   2.139   0.961   2.260  0.6171 -0.3130  0.2612
   57MOL    C29 6861   1.863   0.971   2.276  0.1448 -0.0672 -1.0165
   57MOL    H30 6862   1.779   1.006   2.215  0.6494  1.4266 -0.8748
   57MOL    H31 6863   1.856   0.863   2.287 -0.3281  0.1931  1.4635
   57MOL    C32 6864   1.840   1.017   2.427 -0.2746 -0.1968  0.6018
   57MOL   Cl33 6865   1.710   0.909   2.485  0.5183  0.4347 -0.4569
   57MOL   Cl34 6866   1.768   1.188   2.417 -0.0002  0.4385 -0.0545
   57MOL    C35 6867   1.967   0.998   2.524 -0.3136  0.5517 -1.1095
   57MOL    H36 6868   2.013   0.903   2.494  1.1478  0.2672  1.8279
   57MOL    H37 6869   2.041   1.073   2.496  0.5845  0.4444  0.8757
   57MOL    C38 6870   1.956   0.991   2.676 -0.2205 -0.5398 -0.2695
   57MOL   Cl39 6871   1.909   0.828   2.720  0.1212 -0.1234  0.0488
   57MOL   Cl40 6872   1.840   1.111   2.737 -0.1824  0.0448  0.2823
   57MOL    C41 6873   2.098   1.012   2.746  0.2777  0.1543 -0.7892
   57MOL    H42 6874   2.099   0.972   2.847 -0.9268  0.9152 -0.4769
   57MOL    H43 6875   2.152   0.938   2.686  1.3938  0.4282 -0.1308
   57MOL    C44 6876   2.158   1.151   2.769 -0.0987 -0.1389  0.4096
   57MOL   Cl45 6877   2.079   1.220   2.914 -0.5480  0.2365  0.0471
   57MOL   Cl46 6878   2.134   1.270   2.643  0.1843 -0.1633  0.0828
   57MOL    C47 6879   2.312   1.158   2.802  0.0353 -0.5295 -0.7934
   57MOL    H48 6880   2.354   1.259   2.801  1.4376 -1.1092 -2.4688
   57MOL    H49 6881   2.332   1.120   2.902  0.6445  0.3421 -0.5733
   57MOL    C50 6882   2.406   1.069   2.718  1.5435  0.2574  0.2795
   57MOL   Cl51 6883   2.372   1.079   2.539 -0.3695  0.1411  0.3146
   57MOL   Cl52 6884   2.382   0.902   2.774 -0.4606  0.0063 -0.2666
   57MOL    C53 6885   2.544   1.118   2.723  0.4277 -1.0452  0.1559
   57MOL    H54 6886   2.609   1.047   2.672  1.7852 -0.1061  0.5402
   57MOL    H55 6887   2.555   1.208   2.662  3.5521 -1.6771 -0.2987
   57MOL    C56 6888   2.622   1.134   2.854 -0.0156  0.2939  0.3574
   57MOL   Cl57 6889   2.626   0.971   2.937  0.1428 -0.1045  0.1335
   57MOL   Cl58 6890   2.550   1.240   2.978  0.3086  0.3039  0.3531
   57MOL    C59 6891   2.768   1.195   2.835  0.0628  0.5594  0.1153
   57MOL    H60 6892   2.756   1.297   2.798 -0.5654  0.3249 -0.3543
   57MOL    H61 6893   2.816   1.205   2.932 -1.8686 -0.6484  1.2262
   57MOL    C62 6894   2.863   1.122   2.735  0.3711  0.3718 -0.5377
   57MOL   Cl63 6895   2.831   1.190   2.565  0.2964 -0.2672  0.3544
   57MOL   Cl64 6896   2.850   0.940   2.723 -0.2659 -0.5006  0.1682
   57MOL    C65 6897   3.014   1.168   2.758  0.9732  0.0602  0.5218
   57MOL    H66 6898   3.069   1.146   2.666 -0.1601 -1.4136  0.1793
   57MOL    H67 6899   3.007   1.277   2.767 -0.7927 -0.0692  0.9280
   57MOL    C68 6900   3.100   1.096   2.864  0.1946  0.1962 -0.3315
   57MOL   Cl69 6901   3.157   0.940   2.810 -0.1963 -0.0573  0.0687
   57MOL   Cl70 6902   3.014   1.067   3.011 -0.5717  0.0089 -0.0700
   57MOL    C71 6903   3.222   1.192   2.890  0.1519  0.1526  0.1583
   57MOL    H72 6904   3.307   1.132   2.922 -0.3646 -0.9990 -0.6224
   57MOL    H73 6905   3.255   1.222   2.791  0.8720 -1.4490 -0.0846
   57MOL    C74 6906   3.213   1.323   2.973  0.3411  0.6164 -0.4175
   57MOL   Cl75 6907   3.063   1.417   2.956  0.0571  0.2153 -0.2129
   57MOL   Cl76 6908   3.328   1.437   2.902  0.0572 -0.3800  0.2116
   57MOL    C77 6909   3.238   1.312   3.127  0.3157  0.6952  0.6147
   57MOL    H78 6910   3.248   1.416   3.156 -0.3255  0.5634  1.3350
   57MOL    H79 6911   3.141   1.278   3.165  0.2917 -0.9811 -0.8644
   57MOL    C80 6912   3.361   1.236   3.183 -0.1965 -0.3750  0.3523
   57MOL   Cl81 6913   3.320   1.065   3.193 -0.1308 -0.1720 -0.1408
   57MOL   Cl82 6914   3.353   1.288   3.354  0.3616 -0.0722 -0.0089
   57MOL    C83 6915   3.500   1.276   3.113 -0.0992 -0.4161  0.1440
   57MOL    H84 6916   3.490   1.253   3.007  1.2450  0.7534 -0.2551
   57MOL    H85 6917   3.520   1.383   3.120 -0.2361 -0.4049  0.3401
   57MOL    C86 6918   3.634   1.207   3.152  0.8509  0.4281 -0.7740
   57MOL   Cl87 6919   3.763   1.315   3.073 -0.1952 -0.3352  0.4602
   57MOL   Cl88 6920   3.635   1.054   3.064 -0.0153 -0.0306 -0.0475
   57MOL    C89 6921   3.661   1.198   3.304  0.3572  0.0528  0.3466
   57MOL    H90 6922   3.657   1.300   3.341  1.5468  0.2093  0.0836
   57MOL    H91 6923   3.576   1.142   3.342 -0.4815  1.1625  0.1201
   57MOL    C92 6924   3.785   1.133   3.367  0.5495 -0.2964 -0.3864
   57MOL   Cl93 6925   3.803   1.191   3.531  0.4563  0.2589  0.0435
   57MOL   Cl94 6926   3.933   1.190   3.283  0.0772 -0.0137 -0.4383
   57MOL    C95 6927   3.764   0.977   3.371 -0.4509  0.3392  0.3922
   57MOL    H96 6928   3.696   0.943   3.449 -1.8723  2.7545  0.2388
   57MOL    H97 6929   3.715   0.942   3.279 -0.7120  0.5707  0.4423
   57MOL    C98 6930   3.878   0.878   3.397  0.6031  0.1274 -0.0580
   57MOL   Cl99 6931   3.948   0.911   3.552 -0.1259 -0.0429 -0.2457
   57MOL  Cl100 6932   4.004   0.874   3.269 -0.2992  0.2526 -0.4747
   57MOL   C101 6933   3.832   0.725   3.416 -0.4717  0.1339 -0.0053
   57MOL   H102 6934   3.924   0.668   3.428 -0.1214  0.3019 -1.8019
   57MOL   H103 6935   3.787   0.732   3.515  0.7074 -1.0434  0.6291
   57MOL   C104 6936   3.741   0.651   3.311 -0.2197  0.0033  0.1890
   57MOL  Cl105 6937   3.779   0.707   3.147 -0.4608 -0.0923 -0.0892
   57MOL  Cl106 6938   3.574   0.693   3.333  0.4702 -0.5352 -0.1529
   57MOL   C107 6939   3.766   0.495   3.312 -0.2641  0.1420  0.1260
   57MOL   H108 6940   3.690   0.460   3.241  0.2006  0.2238 -0.4124
   57MOL   H109 6941   3.861   0.467   3.268 -0.3195  0.3826 -0.1470
   57MOL   C110 6942   3.751   0.413   3.441  0.3681 -0.1169  0.3785
   57MOL  Cl111 6943   3.594   0.434   3.527 -0.3370  0.1792 -0.1076
   57MOL  Cl112 6944   3.885   0.454   3.555 -0.3929 -0.2735 -0.4032
   57MOL   C113 6945   3.778   0.253   3.425 -0.5683  0.2181 -0.1162
   57MOL   H114 6946   3.879   0.242   3.387 -0.4417  0.8841  0.0157
   57MOL   H115 6947   3.788   0.214   3.526  0.6713 -0.0200 -0.3307
   57MOL   C116 6948   3.686   0.172   3.333 -0.3197  0.2072  0.1702
   57MOL  Cl117 6949   3.724   0.004   3.378  0.0651 -0.1506 -0.2443
   57MOL  Cl118 6950   3.741   0.190   3.162 -0.2559  0.0360  0.0867
   57MOL   C119 6951   3.534   0.188   3.348  0.2790 -0.4349 -0.7327
   57MOL   H120 6952   3.509   0.181   3.454 -0.1325 -0.5921 -0.8380
   57MOL   H121 6953   3.496   0.282   3.306  1.5314  0.6075  0.3967
   57MOL   H122 6954   3.478   0.115   3.291 -0.0399  1.0341 -2.3575
   58MOL     C1 6955   7.596   5.560   0.723 -0.1882  0.5843  0.6520
   58MOL    Cl2 6956   7.643   5.677   0.852  0.2728  0.0007 -0.4201
   58MOL    Cl3 6957   7.716   5.430   0.726  0.0361  0.1478 -0.3614
   58MOL     C4 6958   7.461   5.489   0.743  0.0998  0.0666  0.4147
   58MOL     H5 6959   7.436   5.434   0.653 -0.2948  0.1166  0.4962
   58MOL     H6 6960   7.464   5.407   0.815 -0.6230 -0.1936  0.1475
   58MOL     H7 6961   7.600   5.625   0.635 -0.2189  0.6129  0.6720
   58MOL     C8 6962   7.333   5.582   0.763 -0.2406  0.0022 -0.1307
   58MOL    Cl9 6963   7.183   5.482   0.714  0.0522 -0.4373 -0.1932
   58MOL   Cl10 6964   7.341   5.724   0.652  0.2024  0.2004  0.0151
   58MOL    C11 6965   7.308   5.643   0.899  0.4508 -0.0580  0.7385
   58MOL    H12 6966   7.398   5.698   0.926  2.9358 -1.8843 -3.3320
   58MOL    H13 6967   7.222   5.709   0.888 -0.2298 -1.0893 -0.2939
   58MOL    C14 6968   7.284   5.573   1.033 -0.1171  0.8351  0.2558
   58MOL   Cl15 6969   7.405   5.452   1.070 -0.0640  0.0467 -0.2858
   58MOL   Cl16 6970   7.132   5.473   1.039 -0.0964  0.0484  0.1525
   58MOL    C17 6971   7.262   5.672   1.146  0.0860  0.2216  0.3316
   58MOL    H18 6972   7.167   5.724   1.128 -0.3627 -1.0446 -1.0433
   58MOL    H19 6973   7.246   5.606   1.231 -0.9063  1.7663  1.3714
   58MOL    C20 6974   7.362   5.779   1.191 -0.3533 -0.1622  0.0976
   58MOL   Cl21 6975   7.321   5.839   1.351  0.1957 -0.2091 -0.1337
   58MOL   Cl22 6976   7.346   5.917   1.071 -0.1340  0.2009 -0.1212
   58MOL    C23 6977   7.515   5.743   1.186  0.6394 -0.2555 -0.1104
   58MOL    H24 6978   7.536   5.692   1.092 -0.4248 -1.0880  0.0922
   58MOL    H25 6979   7.575   5.833   1.170 -1.9164  1.9344  2.2082
   58MOL    C26 6980   7.579   5.659   1.306 -0.0169 -0.6160 -0.0068
   58MOL   Cl27 6981   7.470   5.529   1.369  0.1240 -0.0494 -0.2427
   58MOL   Cl28 6982   7.613   5.777   1.433 -0.6457  0.3860 -0.3723
   58MOL    C29 6983   7.710   5.593   1.254  0.5522  0.4405  0.8900
   58MOL    H30 6984   7.696   5.540   1.160  1.7714 -0.1832  1.0493
   58MOL    H31 6985   7.776   5.672   1.216  1.9508 -0.2322  1.8683
   58MOL    C32 6986   7.791   5.495   1.345  0.0264  0.0387 -0.2187
   58MOL   Cl33 6987   7.955   5.490   1.280  0.0018 -0.0247 -0.2488
   58MOL   Cl34 6988   7.723   5.329   1.311 -0.4251 -0.2968  0.2447
   58MOL    C35 6989   7.786   5.521   1.499 -0.0192  1.5466 -1.1776
   58MOL    H36 6990   7.808   5.626   1.514  0.1943  1.3436 -0.0425
   58MOL    H37 6991   7.680   5.513   1.523  0.1633 -1.3769 -1.1256
   58MOL    C38 6992   7.862   5.435   1.606  0.2352  0.3550 -0.7723
   58MOL   Cl39 6993   8.043   5.461   1.593 -0.1505 -0.0569 -0.3189
   58MOL   Cl40 6994   7.822   5.263   1.594 -0.2238  0.2188 -0.3888
   58MOL    C41 6995   7.852   5.478   1.756 -0.5575  0.3968  0.5479
   58MOL    H42 6996   7.918   5.410   1.809 -0.6401  1.0378  1.4826
   58MOL    H43 6997   7.901   5.575   1.760 -0.5108  0.3629  0.7972
   58MOL    C44 6998   7.717   5.490   1.842 -0.1979  0.9450  0.1693
   58MOL   Cl45 6999   7.605   5.610   1.764  0.0612  0.3004  0.2314
   58MOL   Cl46 7000   7.782   5.561   1.988 -0.0892 -0.1415  0.1349
   58MOL    C47 7001   7.653   5.345   1.883  0.3496 -0.3174 -0.7960
   58MOL    H48 7002   7.629   5.302   1.786  0.8287 -1.2024 -0.5271
   58MOL    H49 7003   7.735   5.286   1.926  0.2490  0.1078 -0.0091
   58MOL    C50 7004   7.536   5.339   1.990 -0.0277  0.4964  0.0727
   58MOL   Cl51 7005   7.397   5.435   1.933  0.0029 -0.1205 -0.0146
   58MOL   Cl52 7006   7.586   5.394   2.155 -0.0287 -0.5140  0.0706
   58MOL    C53 7007   7.490   5.193   1.999 -0.6672  0.1720  0.2800
   58MOL    H54 7008   7.581   5.147   2.037  0.0925  1.4955  0.1055
   58MOL    H55 7009   7.430   5.197   2.090 -0.7473  1.1016  0.1907
   58MOL    C56 7010   7.408   5.107   1.896 -0.1081 -0.1881  0.3169
   58MOL   Cl57 7011   7.440   5.139   1.719 -0.1149 -0.0800  0.0490
   58MOL   Cl58 7012   7.236   5.145   1.923 -0.4917  0.0405  0.0563
   58MOL    C59 7013   7.435   4.962   1.935 -0.1581  0.2234 -0.1916
   58MOL    H60 7014   7.542   4.943   1.947 -0.1828  0.2896  0.1203
   58MOL    H61 7015   7.392   4.955   2.035 -1.4429  3.1838 -0.4890
   58MOL    C62 7016   7.390   4.838   1.857 -0.2121 -0.0478 -0.3068
   58MOL   Cl63 7017   7.422   4.690   1.948  0.5964 -0.4120  0.0162
   58MOL   Cl64 7018   7.475   4.828   1.704  0.5944 -0.3557  0.1402
   58MOL    C65 7019   7.240   4.842   1.820  0.4792  0.7080  0.1347
   58MOL    H66 7020   7.189   4.869   1.912 -2.2399  0.0082 -1.0908
   58MOL    H67 7021   7.224   4.921   1.746 -0.6976  1.6360  1.3634
   58MOL    C68 7022   7.157   4.723   1.761  0.2560  0.3142 -0.0369
   58MOL   Cl69 7023   7.151   4.586   1.876 -0.0354 -0.2300 -0.2417
   58MOL   Cl70 7024   7.235   4.656   1.609  0.4849  0.1807 -0.1596
   58MOL    C71 7025   7.008   4.769   1.736 -0.7418 -0.5968  0.1547
   58MOL    H72 7026   6.984   4.834   1.820  0.5046  0.5845 -0.4061
   58MOL    H73 7027   7.008   4.831   1.647  2.2422  0.4646  0.8495
   58MOL    C74 7028   6.886   4.667   1.727 -0.3824  0.1822 -0.2141
   58MOL   Cl75 7029   6.835   4.606   1.890 -0.2202 -0.1155  0.2307
   58MOL   Cl76 7030   6.933   4.521   1.636  0.3519 -0.1885 -0.5965
   58MOL    C77 7031   6.763   4.728   1.653 -0.5744  0.5302 -0.7756
   58MOL    H78 7032   6.796   4.746   1.551  1.1346  0.4374 -0.2448
   58MOL    H79 7033   6.690   4.648   1.663 -1.3097  1.4566  1.8586
   58MOL    C80 7034   6.694   4.863   1.698  0.1966 -0.2598 -0.1290
   58MOL   Cl81 7035   6.812   4.994   1.668  0.0841 -0.2097  0.2505
   58MOL   Cl82 7036   6.662   4.876   1.878 -0.1480 -0.2093 -0.1647
   58MOL    C83 7037   6.573   4.910   1.617  0.5839  0.4614 -0.3529
   58MOL    H84 7038   6.540   5.005   1.659  0.5042 -0.0125  0.6576
   58MOL    H85 7039   6.622   4.938   1.524 -1.7071  1.0071 -1.4525
   58MOL    C86 7040   6.459   4.811   1.579 -0.3286 -0.3467 -0.1832
   58MOL   Cl87 7041   6.414   4.717   1.721 -0.1160  0.1476  0.5806
   58MOL   Cl88 7042   6.508   4.705   1.441 -0.0060  0.0482  0.1029
   58MOL    C89 7043   6.328   4.883   1.549 -0.5921  0.7616  0.9974
   58MOL    H90 7044   6.244   4.814   1.561  1.6102 -1.8690  1.6543
   58MOL    H91 7045   6.305   4.962   1.621  0.8958  1.3516  0.8370
   58MOL    C92 7046   6.308   4.959   1.407 -0.2330  0.3384  0.4744
   58MOL   Cl93 7047   6.274   4.846   1.276  0.1431 -0.1214 -0.2435
   58MOL   Cl94 7048   6.449   5.068   1.368  0.2455 -0.2212  0.1799
   58MOL    C95 7049   6.189   5.058   1.402 -0.2291  0.0290 -0.2119
   58MOL    H96 7050   6.225   5.150   1.449  0.5790 -0.6396  0.4959
   58MOL    H97 7051   6.159   5.065   1.297 -1.5483 -1.7071  0.0261
   58MOL    C98 7052   6.050   5.028   1.469  0.2605 -0.5444  0.3168
   58MOL   Cl99 7053   6.070   5.030   1.648 -0.0081  0.3299 -0.4464
   58MOL  Cl100 7054   5.993   4.870   1.432  0.4016 -0.3281  0.1925
   58MOL   C101 7055   5.938   5.126   1.426 -0.4044 -0.5280 -0.2716
   58MOL   H102 7056   5.911   5.093   1.326 -0.4890 -0.1542 -0.3723
   58MOL   H103 7057   5.851   5.102   1.487  1.8961  0.1486  3.4953
   58MOL   C104 7058   5.955   5.282   1.425  0.2816 -0.1729  0.5556
   58MOL  Cl105 7059   6.080   5.329   1.305  0.4712 -0.2512  0.5085
   58MOL  Cl106 7060   6.030   5.334   1.579  0.0807  0.3362  0.3133
   58MOL   C107 7061   5.820   5.356   1.409  0.6436  0.3688  0.3569
   58MOL   H108 7062   5.776   5.326   1.314  2.2863  0.6258 -0.5115
   58MOL   H109 7063   5.762   5.322   1.495  1.1878 -0.1886  0.5111
   58MOL   C110 7064   5.809   5.511   1.391 -0.9499 -0.2828  0.4699
   58MOL  Cl111 7065   5.634   5.531   1.427  0.5483  0.2353 -0.3651
   58MOL  Cl112 7066   5.850   5.550   1.222  0.2344  0.3376  0.1066
   58MOL   C113 7067   5.872   5.595   1.501 -0.5936 -0.0748 -0.3639
   58MOL   H114 7068   5.824   5.560   1.593  2.8984 -0.5285  1.3816
   58MOL   H115 7069   5.977   5.572   1.521 -0.8917 -0.6149  0.6034
   58MOL   C116 7070   5.873   5.751   1.478  0.0720  0.5421 -0.2414
   58MOL  Cl117 7071   6.009   5.789   1.370  0.2562  0.1987  0.3293
   58MOL  Cl118 7072   5.920   5.832   1.626 -0.2289  0.0354  0.1194
   58MOL   C119 7073   5.749   5.821   1.427 -0.2574  0.2214 -0.8841
   58MOL   H120 7074   5.685   5.825   1.516 -0.7895 -0.3513 -1.2386
   58MOL   H121 7075   5.758   5.924   1.391  0.5656  0.3028 -0.4478
   58MOL   H122 7076   5.688   5.767   1.355  0.0688  0.3566 -1.2586
   59MOL     C1 7077   5.980   9.014   7.810 -0.3051  0.1758 -0.0602
   59MOL    Cl2 7078   5.876   9.130   7.893  0.2489  0.0309 -0.3267
   59MOL    Cl3 7079   6.114   8.990   7.922  0.2487  0.0746  0.2017
   59MOL     C4 7080   5.901   8.882   7.795 -0.9184 -0.6773  0.6172
   59MOL     H5 7081   5.973   8.804   7.772  1.0991  1.0682  0.9073
   59MOL     H6 7082   5.855   8.852   7.889  0.2747 -3.2616  0.4272
   59MOL     H7 7083   6.011   9.063   7.718  0.1800  0.3880  0.2167
   59MOL     C8 7084   5.804   8.891   7.678  0.1176  0.5250  0.4616
   59MOL    Cl9 7085   5.875   8.957   7.528 -0.0460 -0.3480 -0.1437
   59MOL   Cl10 7086   5.657   8.991   7.718 -0.0177 -0.0335  0.0811
   59MOL    C11 7087   5.737   8.759   7.626 -0.1106  0.5515  0.7120
   59MOL    H12 7088   5.650   8.788   7.566  0.0925  0.3874  0.3363
   59MOL    H13 7089   5.806   8.714   7.555 -0.7174  0.5128  0.1369
   59MOL    C14 7090   5.696   8.636   7.716  0.2396 -0.4376 -0.0398
   59MOL   Cl15 7091   5.559   8.556   7.647  0.0019 -0.4051  0.1305
   59MOL   Cl16 7092   5.653   8.698   7.874  0.3982 -0.0724 -0.2781
   59MOL    C17 7093   5.818   8.542   7.737 -0.1119  0.4814 -0.1876
   59MOL    H18 7094   5.837   8.484   7.646  0.6967 -0.8233  0.7970
   59MOL    H19 7095   5.913   8.592   7.757  1.4645 -2.2393 -0.5855
   59MOL    C20 7096   5.819   8.422   7.833 -0.0811 -0.2863 -0.2773
   59MOL   Cl21 7097   5.972   8.335   7.808 -0.0500 -0.4147 -0.4260
   59MOL   Cl22 7098   5.692   8.312   7.805  0.1563 -0.3135  0.0652
   59MOL    C23 7099   5.805   8.448   7.987 -0.3797 -0.4107 -0.8246
   59MOL    H24 7100   5.721   8.514   8.012  0.9665  1.0863 -0.1816
   59MOL    H25 7101   5.787   8.349   8.030  1.2098  0.0817  1.0148
   59MOL    C26 7102   5.925   8.499   8.080 -0.3466 -0.0039 -0.2168
   59MOL   Cl27 7103   5.855   8.589   8.219  0.2618 -0.0243 -0.2011
   59MOL   Cl28 7104   6.018   8.636   8.002  0.3911  0.0608 -0.0273
   59MOL    C29 7105   6.017   8.385   8.140 -0.0520  0.1568  0.3236
   59MOL    H30 7106   5.968   8.352   8.231 -1.1549  0.1436 -0.2652
   59MOL    H31 7107   6.009   8.301   8.070  0.8362 -0.2930  0.7515
   59MOL    C32 7108   6.176   8.397   8.165  0.6757  0.0829  0.5718
   59MOL   Cl33 7109   6.210   8.527   8.271  0.1473 -0.1393 -0.4853
   59MOL   Cl34 7110   6.262   8.421   8.002  0.2317  0.4720  0.2380
   59MOL    C35 7111   6.217   8.263   8.233  0.0427 -0.7526  0.4109
   59MOL    H36 7112   6.174   8.265   8.333  0.6994  0.5909  0.6848
   59MOL    H37 7113   6.163   8.180   8.187 -1.7981  2.1000 -2.8491
   59MOL    C38 7114   6.364   8.219   8.248  0.2889  0.9249  0.0957
   59MOL   Cl39 7115   6.417   8.152   8.094  0.4269  0.1947  0.1728
   59MOL   Cl40 7116   6.352   8.090   8.377 -0.3092  0.1350  0.0839
   59MOL    C41 7117   6.461   8.331   8.292 -0.0273 -0.6486 -0.4067
   59MOL    H42 7118   6.461   8.385   8.198 -3.1823  1.9367  0.9757
   59MOL    H43 7119   6.414   8.384   8.375 -2.4985 -0.4118 -1.9126
   59MOL    C44 7120   6.607   8.307   8.344 -0.0734  0.1735  0.2616
   59MOL   Cl45 7121   6.609   8.241   8.516  0.4527  0.2794 -0.0258
   59MOL   Cl46 7122   6.668   8.475   8.356 -0.2261 -0.0728  0.0112
   59MOL    C47 7123   6.689   8.213   8.248 -0.3054 -0.5140 -0.5064
   59MOL    H48 7124   6.643   8.117   8.272 -2.2818  0.7618  0.9395
   59MOL    H49 7125   6.665   8.232   8.143 -2.7027  0.2122  0.1440
   59MOL    C50 7126   6.839   8.202   8.266  0.1151 -0.3402 -0.4517
   59MOL   Cl51 7127   6.892   8.215   8.438 -0.1953 -0.2737  0.0217
   59MOL   Cl52 7128   6.936   8.319   8.181  0.0261 -0.1056 -0.0344
   59MOL    C53 7129   6.900   8.068   8.220 -0.5499 -0.3583 -0.4329
   59MOL    H54 7130   7.006   8.088   8.207 -0.8806  0.9687 -1.2123
   59MOL    H55 7131   6.881   7.994   8.298 -0.9966  0.4126  0.2072
   59MOL    C56 7132   6.852   7.997   8.087  0.4211  0.1910  0.0374
   59MOL   Cl57 7133   6.846   8.114   7.950 -0.1362 -0.0396 -0.3993
   59MOL   Cl58 7134   6.687   7.936   8.104  0.4514  0.1349 -0.2833
   59MOL    C59 7135   6.937   7.869   8.056  0.0507 -0.3261 -0.4233
   59MOL    H60 7136   6.890   7.793   8.119 -3.5643  2.4353  0.3665
   59MOL    H61 7137   6.918   7.854   7.950  1.6360  0.5081 -0.8453
   59MOL    C62 7138   7.092   7.856   8.071 -0.2512  0.4674  0.4363
   59MOL   Cl63 7139   7.144   7.862   8.243  0.1671  0.3169  0.1938
   59MOL   Cl64 7140   7.176   7.987   7.984  0.0555 -0.3451 -0.0265
   59MOL    C65 7141   7.157   7.730   8.008  0.7265  0.0113 -0.2744
   59MOL    H66 7142   7.193   7.749   7.906 -2.9482  2.4838 -1.1858
   59MOL    H67 7143   7.249   7.714   8.064  0.6832 -2.3517 -0.8020
   59MOL    C68 7144   7.078   7.594   8.014  0.1815  0.0870  0.6474
   59MOL   Cl69 7145   6.936   7.600   7.907  0.3185  0.1314 -0.1005
   59MOL   Cl70 7146   7.030   7.548   8.180  0.2160 -0.0319  0.2605
   59MOL    C71 7147   7.159   7.468   7.954  0.1961 -0.3601 -0.2323
   59MOL    H72 7148   7.083   7.390   7.948  1.6752 -1.8028 -0.7943
   59MOL    H73 7149   7.175   7.483   7.848  1.2325  1.1229  0.1135
   59MOL    C74 7150   7.291   7.402   8.015  0.4755 -0.8025 -0.0556
   59MOL   Cl75 7151   7.421   7.527   8.003 -0.3321 -0.3745  0.5875
   59MOL   Cl76 7152   7.323   7.248   7.936 -0.1647  0.0037 -0.0396
   59MOL    C77 7153   7.273   7.364   8.171 -0.4663  0.8451 -0.1100
   59MOL    H78 7154   7.258   7.460   8.221  0.5496  0.0597  1.7710
   59MOL    H79 7155   7.178   7.310   8.175 -0.9513  1.5133 -2.0075
   59MOL    C80 7156   7.378   7.286   8.253  0.2967  0.2994 -0.1014
   59MOL   Cl81 7157   7.358   7.338   8.422  0.2630  0.2000 -0.1594
   59MOL   Cl82 7158   7.547   7.323   8.198  0.3656  0.4588  0.0401
   59MOL    C83 7159   7.367   7.136   8.239 -1.0767  0.9116  0.2690
   59MOL    H84 7160   7.402   7.110   8.139 -0.5098  1.6646  0.2714
   59MOL    H85 7161   7.444   7.098   8.306  0.0558  1.2869 -0.8092
   59MOL    C86 7162   7.239   7.050   8.273  0.4105  0.2297 -0.0684
   59MOL   Cl87 7163   7.120   7.069   8.146 -0.0632  0.2903  0.2820
   59MOL   Cl88 7164   7.164   7.104   8.427 -0.4116  0.0595  0.0482
   59MOL    C89 7165   7.290   6.907   8.305  0.3376  0.6523 -0.4255
   59MOL    H90 7166   7.370   6.888   8.233  0.2950 -0.7459 -0.1255
   59MOL    H91 7167   7.339   6.905   8.403 -3.3977 -0.7100  1.5259
   59MOL    C92 7168   7.192   6.783   8.300  0.5627  0.8058 -0.0876
   59MOL   Cl93 7169   7.287   6.639   8.370 -0.2196  0.2395 -0.6412
   59MOL   Cl94 7170   7.145   6.755   8.133  0.0757  0.2732  0.1458
   59MOL    C95 7171   7.065   6.792   8.389  0.5426 -0.3906 -0.1084
   59MOL    H96 7172   7.088   6.848   8.479 -0.2041 -0.5696  0.2008
   59MOL    H97 7173   6.998   6.860   8.336 -0.8256  2.7213  5.2445
   59MOL    C98 7174   6.970   6.670   8.427 -0.1033 -0.0371  0.0371
   59MOL   Cl99 7175   6.948   6.556   8.292 -0.0043 -0.4503  0.4280
   59MOL  Cl100 7176   6.810   6.731   8.458 -0.0051  0.0644  0.2347
   59MOL   C101 7177   7.021   6.579   8.549  0.4374  0.3807 -0.0234
   59MOL   H102 7178   6.942   6.506   8.565 -0.7621  1.1791 -2.1413
   59MOL   H103 7179   7.110   6.521   8.527  0.4418  0.7787 -1.0755
   59MOL   C104 7180   7.056   6.632   8.683  0.8873  0.5756  0.4890
   59MOL  Cl105 7181   6.912   6.727   8.737 -0.2373 -0.0504 -0.2489
   59MOL  Cl106 7182   7.191   6.741   8.686  0.0449  0.7565 -0.1050
   59MOL   C107 7183   7.073   6.533   8.799 -0.4379  0.0329 -0.2806
   59MOL   H108 7184   7.108   6.590   8.884 -1.8630  0.2558  0.1768
   59MOL   H109 7185   6.972   6.507   8.832 -0.5002 -0.9899 -1.2508
   59MOL   C110 7186   7.161   6.402   8.782  0.7020 -0.4813  0.9897
   59MOL  Cl111 7187   7.326   6.445   8.718  0.3037  0.0620 -0.0949
   59MOL  Cl112 7188   7.078   6.298   8.664 -0.4902  0.0162 -0.3936
   59MOL   C113 7189   7.194   6.322   8.913  0.4208 -0.0111  0.2880
   59MOL   H114 7190   7.268   6.243   8.901  1.4792  1.1294 -0.7789
   59MOL   H115 7191   7.240   6.394   8.980 -2.2463  1.4392  0.6399
   59MOL   C116 7192   7.076   6.275   9.007  0.4895 -0.1855 -0.1387
   59MOL  Cl117 7193   6.968   6.407   9.079  0.1058  0.2168 -0.1082
   59MOL  Cl118 7194   7.148   6.200   9.149 -0.2798 -0.1702  0.2061
   59MOL   C119 7195   6.986   6.167   8.943  0.1236 -0.9235 -0.1845
   59MOL   H120 7196   6.933   6.181   8.848  0.1144 -2.2860 -0.3798
   59MOL   H121 7197   7.056   6.086   8.926  1.3598 -0.0552  0.6251
   59MOL   H122 7198   6.910   6.132   9.014  0.0795 -0.0437  0.2187
   60MOL     C1 7199   6.209   6.445   2.040 -0.7863 -0.7305 -0.4581
   60MOL    Cl2 7200   6.340   6.449   2.156 -0.2679  0.4574 -0.3212
   60MOL    Cl3 7201   6.255   6.511   1.882 -0.2230 -0.3310  0.1207
   60MOL     C4 7202   6.135   6.313   2.030  0.2829  0.6179 -0.4211
   60MOL     H5 7203   6.067   6.322   1.945  2.9086 -0.9256 -2.7724
   60MOL     H6 7204   6.199   6.228   2.007 -1.6420 -1.1442  0.6384
   60MOL     H7 7205   6.141   6.522   2.075 -1.4510 -1.5162 -0.0137
   60MOL     C8 7206   6.054   6.272   2.160  0.4012 -0.8262  0.3034
   60MOL    Cl9 7207   5.964   6.414   2.229 -0.2104  0.2245 -0.1407
   60MOL   Cl10 7208   6.158   6.216   2.287 -0.3706  0.0074 -0.3296
   60MOL    C11 7209   5.943   6.177   2.117  0.8058 -0.1337 -0.6202
   60MOL    H12 7210   5.885   6.167   2.209  0.3032  0.6557 -0.8452
   60MOL    H13 7211   5.879   6.219   2.039 -1.9447 -2.9938 -0.0324
   60MOL    C14 7212   5.974   6.031   2.057 -0.2885 -0.6256  0.3361
   60MOL   Cl15 7213   6.088   5.957   2.160 -0.0279 -0.0766  0.4774
   60MOL   Cl16 7214   6.049   6.040   1.899  0.0180 -0.4129 -0.1621
   60MOL    C17 7215   5.846   5.943   2.050 -0.0290  0.2454 -0.4040
   60MOL    H18 7216   5.777   5.990   2.120  0.5315 -0.3992  0.5865
   60MOL    H19 7217   5.810   5.978   1.953  0.7025  0.1302 -0.7186
   60MOL    C20 7218   5.831   5.794   2.065  0.0145 -0.6921 -0.4599
   60MOL   Cl21 7219   5.663   5.757   2.012  0.0286  0.1755 -0.2471
   60MOL   Cl22 7220   5.827   5.768   2.242  0.0763  0.3994  0.0057
   60MOL    C23 7221   5.935   5.712   1.986 -0.0184  0.0485  0.2440
   60MOL    H24 7222   5.953   5.768   1.894 -1.3256  2.6104  1.5026
   60MOL    H25 7223   6.032   5.730   2.032  0.5211 -0.1373 -0.7882
   60MOL    C26 7224   5.909   5.551   1.959  0.1813 -0.1384 -0.1534
   60MOL   Cl27 7225   6.062   5.491   1.878  0.1644 -0.1196 -0.1250
   60MOL   Cl28 7226   5.777   5.526   1.842 -0.1433  0.2530  0.1047
   60MOL    C29 7227   5.878   5.482   2.095 -0.2430  0.4320 -0.5767
   60MOL    H30 7228   5.930   5.534   2.176  0.3717 -1.1995  0.0986
   60MOL    H31 7229   5.775   5.499   2.123 -0.4702 -0.3982 -0.9045
   60MOL    C32 7230   5.906   5.328   2.124  0.7481 -0.5354 -0.1414
   60MOL   Cl33 7231   6.075   5.311   2.157 -0.2638 -0.3028  0.2584
   60MOL   Cl34 7232   5.840   5.227   1.992 -0.1457  0.0267 -0.2531
   60MOL    C35 7233   5.843   5.288   2.266 -0.3351 -0.2484  0.3513
   60MOL    H36 7234   5.882   5.365   2.332 -1.0779  1.6406 -1.3366
   60MOL    H37 7235   5.735   5.303   2.262 -0.6581 -2.1136  1.8581
   60MOL    C38 7236   5.843   5.154   2.335  0.1264 -0.7282  0.2897
   60MOL   Cl39 7237   5.751   5.178   2.486 -0.5069  0.1075  0.4208
   60MOL   Cl40 7238   5.998   5.109   2.393 -0.2475  0.0802 -0.1016
   60MOL    C41 7239   5.762   5.043   2.254  0.4417  0.3564  0.5893
   60MOL    H42 7240   5.671   5.082   2.208  0.8024  0.2242 -0.2560
   60MOL    H43 7241   5.833   5.020   2.174  0.3543 -4.8962  1.8627
   60MOL    C44 7242   5.709   4.913   2.319 -0.5465 -0.0507 -0.1814
   60MOL   Cl45 7243   5.566   4.937   2.421 -0.6404 -0.0526  0.5944
   60MOL   Cl46 7244   5.839   4.858   2.427  0.2549 -0.1514 -0.2594
   60MOL    C47 7245   5.697   4.790   2.217  0.0340 -0.7090 -0.3845
   60MOL    H48 7246   5.798   4.754   2.197  0.2096 -0.4480  0.0241
   60MOL    H49 7247   5.648   4.713   2.276 -0.4845 -0.5801 -0.6462
   60MOL    C50 7248   5.622   4.801   2.083 -0.1851 -0.2678 -0.1215
   60MOL   Cl51 7249   5.706   4.915   1.971  0.6896 -0.4696 -0.1752
   60MOL   Cl52 7250   5.455   4.859   2.119 -0.2289  0.0058  0.3674
   60MOL    C53 7251   5.612   4.668   2.010  1.0830  0.0801  1.0773
   60MOL    H54 7252   5.535   4.608   2.057  1.1930 -1.7718 -1.0451
   60MOL    H55 7253   5.563   4.686   1.914  2.8709  3.0707  0.6373
   60MOL    C56 7254   5.736   4.575   1.980 -0.1790 -0.1323 -0.3908
   60MOL   Cl57 7255   5.764   4.473   2.124 -0.0251  0.0227  0.1143
   60MOL   Cl58 7256   5.883   4.668   1.959  0.0394 -0.0525 -0.2714
   60MOL    C59 7257   5.705   4.486   1.853  0.2153  0.0525  0.9708
   60MOL    H60 7258   5.631   4.412   1.885 -0.8543 -0.5336 -2.6303
   60MOL    H61 7259   5.672   4.538   1.763 -0.3429 -2.1184 -0.1268
   60MOL    C62 7260   5.826   4.407   1.778 -0.1243  0.2653  0.6388
   60MOL   Cl63 7261   5.759   4.283   1.668  0.4447 -0.1875  0.1617
   60MOL   Cl64 7262   5.926   4.331   1.903 -0.3266 -0.1120 -0.2056
   60MOL    C65 7263   5.918   4.503   1.689  0.8182 -0.2451 -0.0532
   60MOL    H66 7264   5.850   4.551   1.618  1.6556 -0.1697 -0.8065
   60MOL    H67 7265   5.971   4.569   1.758 -0.6821  0.9775 -0.0391
   60MOL    C68 7266   6.018   4.443   1.586 -0.4790  0.3546 -0.0710
   60MOL   Cl69 7267   6.125   4.583   1.538  0.0758 -0.2653 -0.1834
   60MOL   Cl70 7268   5.924   4.393   1.439 -0.3894  0.1680  0.5902
   60MOL    C71 7269   6.114   4.337   1.646 -0.7018 -0.3106 -0.0220
   60MOL    H72 7270   6.169   4.396   1.719  1.0040  0.6901 -2.0819
   60MOL    H73 7271   6.052   4.262   1.696  1.7288 -2.4445 -0.0677
   60MOL    C74 7272   6.213   4.253   1.562  0.0268 -0.0269  0.4300
   60MOL   Cl75 7273   6.119   4.126   1.488  0.0772  0.3986  0.1909
   60MOL   Cl76 7274   6.319   4.177   1.684 -0.1497  0.1878  0.3208
   60MOL    C77 7275   6.306   4.328   1.465  0.9694  0.4226  0.6228
   60MOL    H78 7276   6.239   4.367   1.389 -1.1923  0.2090  2.3817
   60MOL    H79 7277   6.349   4.417   1.511 -1.2717  2.4065 -1.0469
   60MOL    C80 7278   6.419   4.264   1.373  0.4078 -1.0838 -0.5024
   60MOL   Cl81 7279   6.451   4.395   1.253  0.0397 -0.1830 -0.4636
   60MOL   Cl82 7280   6.342   4.123   1.287 -0.2779  0.1242 -0.2797
   60MOL    C83 7281   6.551   4.206   1.442 -0.4761  0.2070  0.0347
   60MOL    H84 7282   6.523   4.116   1.497  2.6852 -1.0347 -0.2791
   60MOL    H85 7283   6.614   4.175   1.359 -0.2157 -1.7951  0.9518
   60MOL    C86 7284   6.644   4.299   1.530  0.1258  0.2420  0.3160
   60MOL   Cl87 7285   6.567   4.399   1.652 -0.0317 -0.3732 -0.1892
   60MOL   Cl88 7286   6.718   4.417   1.414  0.4697  0.4193 -0.0728
   60MOL    C89 7287   6.744   4.215   1.614 -0.3145  0.2200 -0.4095
   60MOL    H90 7288   6.803   4.283   1.675 -1.7380  1.9464 -0.9038
   60MOL    H91 7289   6.672   4.158   1.674 -1.4961  2.4305  0.3359
   60MOL    C92 7290   6.841   4.115   1.550 -0.7372  0.6509  0.4457
   60MOL   Cl93 7291   6.943   4.191   1.428 -0.1055  0.2121  0.1508
   60MOL   Cl94 7292   6.762   3.977   1.474 -0.3389  0.0132 -0.1275
   60MOL    C95 7293   6.926   4.039   1.654  0.1699  0.1421 -0.2111
   60MOL    H96 7294   6.857   3.978   1.712 -1.0660 -0.4320 -2.2375
   60MOL    H97 7295   6.981   3.961   1.600 -3.2255 -2.8117  0.4188
   60MOL    C98 7296   7.030   4.114   1.753  0.2331  0.2031  0.4629
   60MOL   Cl99 7297   7.098   3.980   1.849  0.1386  0.0365  0.3447
   60MOL  Cl100 7298   6.965   4.232   1.871 -0.4418  0.5818 -0.0359
   60MOL   C101 7299   7.145   4.179   1.673 -0.3583  0.1294  0.2387
   60MOL   H102 7300   7.159   4.126   1.579  1.4692  1.1839 -0.1184
   60MOL   H103 7301   7.094   4.269   1.637 -2.0189 -0.6770  0.5050
   60MOL   C104 7302   7.289   4.215   1.725 -0.0498 -1.1092  0.2047
   60MOL  Cl105 7303   7.388   4.062   1.692 -0.5439 -0.2997 -0.0749
   60MOL  Cl106 7304   7.293   4.246   1.901 -0.3430  0.4217 -0.0603
   60MOL   C107 7305   7.362   4.339   1.658  0.7179 -0.3871  0.0808
   60MOL   H108 7306   7.311   4.431   1.685 -1.9720 -1.6058 -0.6223
   60MOL   H109 7307   7.456   4.355   1.710 -0.3911  0.0411  1.9990
   60MOL   C110 7308   7.396   4.349   1.502 -0.4999  0.3821 -0.3934
   60MOL  Cl111 7309   7.496   4.488   1.480 -0.3591 -0.0949 -0.2191
   60MOL  Cl112 7310   7.241   4.366   1.415  0.1185  0.0430  0.1616
   60MOL   C113 7311   7.475   4.228   1.446 -0.2477 -0.9534  0.1514
   60MOL   H114 7312   7.553   4.198   1.516  1.0590 -0.6302 -1.1428
   60MOL   H115 7313   7.398   4.150   1.441  0.0677 -1.3331  1.0118
   60MOL   C116 7314   7.537   4.235   1.300  0.7057 -0.6176 -0.6272
   60MOL  Cl117 7315   7.698   4.316   1.296  0.5367  0.1073  0.3465
   60MOL  Cl118 7316   7.424   4.302   1.180  0.7352  0.1658  0.1058
   60MOL   C119 7317   7.574   4.095   1.256  0.4489  0.5483  0.1494
   60MOL   H120 7318   7.485   4.032   1.248  0.0921  1.2693 -1.9322
   60MOL   H121 7319   7.627   4.075   1.163 -2.3172  0.6639 -1.5032
   60MOL   H122 7320   7.634   4.052   1.336 -0.4232  1.1793  1.1622
   61MOL     C1 7321   5.742   4.466   8.752  0.0653  0.6080 -0.4475
   61MOL    Cl2 7322   5.744   4.304   8.821  0.1407  0.1947 -0.0949
   61MOL    Cl3 7323   5.682   4.578   8.879 -0.1672  0.5689  0.1344
   61MOL     C4 7324   5.873   4.515   8.689 -0.1604  0.0309  0.5616
   61MOL     H5 7325   5.944   4.553   8.763 -0.3183  0.3331  0.5562
   61MOL     H6 7326   5.921   4.425   8.648 -1.0233 -1.3206  2.4090
   61MOL     H7 7327   5.665   4.459   8.675 -1.8087 -0.8452  1.5153
   61MOL     C8 7328   5.855   4.623   8.573  0.3099  0.4634 -0.3307
   61MOL    Cl9 7329   5.757   4.755   8.626 -0.1689  0.3030  0.4364
   61MOL   Cl10 7330   5.767   4.538   8.444  0.2238  0.0455 -0.0045
   61MOL    C11 7331   5.994   4.675   8.523 -0.3760 -0.0407 -0.8008
   61MOL    H12 7332   6.022   4.740   8.606  1.3430  1.9723 -2.8783
   61MOL    H13 7333   6.052   4.585   8.540  0.7018  0.6428 -0.8236
   61MOL    C14 7334   6.019   4.755   8.395 -0.4173 -0.0536  0.4693
   61MOL   Cl15 7335   6.018   4.635   8.258  0.2233 -0.1635  0.0161
   61MOL   Cl16 7336   6.184   4.809   8.423 -0.0840 -0.0303 -0.1422
   61MOL    C17 7337   5.933   4.878   8.381  0.4664 -0.2245 -0.3003
   61MOL    H18 7338   5.830   4.843   8.392  0.7311 -1.1313 -0.6011
   61MOL    H19 7339   5.951   4.941   8.467 -0.9368 -0.6398  0.3192
   61MOL    C20 7340   5.935   4.956   8.248  0.3562  0.5591 -0.2047
   61MOL   Cl21 7341   5.846   4.862   8.120 -0.0503 -0.7994  0.0899
   61MOL   Cl22 7342   6.095   4.968   8.184  0.0552  0.3938 -0.2454
   61MOL    C23 7343   5.893   5.099   8.260 -0.5473  0.5690 -0.7262
   61MOL    H24 7344   5.967   5.161   8.310  0.7161 -0.7448 -0.9160
   61MOL    H25 7345   5.886   5.141   8.160 -0.7517  2.9683  0.2782
   61MOL    C26 7346   5.756   5.143   8.326  0.3255 -0.2540 -1.5023
   61MOL   Cl27 7347   5.802   5.157   8.498 -0.0333 -0.4031  0.0478
   61MOL   Cl28 7348   5.631   5.017   8.311  0.4027 -0.0009 -0.6033
   61MOL    C29 7349   5.696   5.285   8.304 -0.1485 -0.2526  0.1550
   61MOL    H30 7350   5.615   5.284   8.377 -1.0131 -1.7238 -0.7992
   61MOL    H31 7351   5.763   5.354   8.357 -0.8185 -2.3405  3.8747
   61MOL    C32 7352   5.646   5.342   8.172  0.3882  0.3372 -0.2527
   61MOL   Cl33 7353   5.546   5.232   8.088 -0.1253 -0.1033  0.2114
   61MOL   Cl34 7354   5.790   5.361   8.071 -0.3470 -0.4457 -0.3276
   61MOL    C35 7355   5.563   5.483   8.169 -0.0313 -0.5783  0.1198
   61MOL    H36 7356   5.564   5.512   8.064 -0.7541  0.6906  0.4486
   61MOL    H37 7357   5.459   5.478   8.203 -0.5531  2.5008 -0.7906
   61MOL    C38 7358   5.611   5.606   8.250 -0.3343 -0.6541  0.6388
   61MOL   Cl39 7359   5.785   5.637   8.218  0.1158 -0.0016 -0.1522
   61MOL   Cl40 7360   5.600   5.577   8.429  0.6374  0.2193 -0.3378
   61MOL    C41 7361   5.516   5.733   8.219 -0.0278 -0.1454 -0.3125
   61MOL    H42 7362   5.418   5.723   8.264  1.9449 -3.5352  3.6138
   61MOL    H43 7363   5.556   5.811   8.284  0.7777 -0.0119 -0.9568
   61MOL    C44 7364   5.503   5.796   8.080 -0.0216  0.2662 -0.2134
   61MOL   Cl45 7365   5.373   5.701   7.995 -0.0087  0.2623 -0.1010
   61MOL   Cl46 7366   5.649   5.780   7.993  0.0778  0.3883  0.2878
   61MOL    C47 7367   5.462   5.948   8.065 -0.1484 -0.3111  0.4939
   61MOL    H48 7368   5.479   5.975   7.961  1.3042 -1.7679  0.3316
   61MOL    H49 7369   5.354   5.948   8.080  0.0614  0.9761  2.1223
   61MOL    C50 7370   5.513   6.065   8.154  0.0257 -0.4749 -0.1582
   61MOL   Cl51 7371   5.694   6.058   8.158  0.6042  0.2232  0.0474
   61MOL   Cl52 7372   5.441   6.036   8.317 -0.0330  0.1542  0.3399
   61MOL    C53 7373   5.480   6.216   8.106 -0.0876 -0.5857  0.2595
   61MOL    H54 7374   5.468   6.281   8.193 -1.5383  0.5645 -0.7801
   61MOL    H55 7375   5.567   6.252   8.051 -0.6265 -1.2051 -1.0158
   61MOL    C56 7376   5.354   6.252   8.023  0.7972  0.1020 -0.1591
   61MOL   Cl57 7377   5.221   6.169   8.111  0.0962  0.0087 -0.0175
   61MOL   Cl58 7378   5.353   6.184   7.859 -0.0359 -0.0427  0.3030
   61MOL    C59 7379   5.316   6.404   8.016 -0.1825 -0.7077 -0.0933
   61MOL    H60 7380   5.234   6.412   7.944  0.6902  0.0929 -1.0045
   61MOL    H61 7381   5.272   6.430   8.113  0.6900  0.0837  0.0898
   61MOL    C62 7382   5.405   6.508   7.970  0.6090  0.6330 -0.5323
   61MOL   Cl63 7383   5.522   6.555   8.104 -0.0710  0.0129  0.2151
   61MOL   Cl64 7384   5.304   6.649   7.944  0.3045 -0.3832 -0.5137
   61MOL    C65 7385   5.477   6.467   7.845  0.2344 -0.0262  0.4425
   61MOL    H66 7386   5.559   6.398   7.869  3.0701  2.9556 -0.2753
   61MOL    H67 7387   5.406   6.407   7.789  2.0932 -1.3821 -0.5499
   61MOL    C68 7388   5.543   6.581   7.747 -0.6193  0.1802 -0.6711
   61MOL   Cl69 7389   5.645   6.694   7.840  0.2730 -0.0788 -0.0350
   61MOL   Cl70 7390   5.418   6.678   7.658  0.0499  0.0357 -0.1625
   61MOL    C71 7391   5.632   6.519   7.640  0.1729  0.0999 -0.3092
   61MOL    H72 7392   5.654   6.603   7.574  0.0845  0.6582  0.3566
   61MOL    H73 7393   5.734   6.509   7.676  0.6779  1.0907 -1.4107
   61MOL    C74 7394   5.586   6.395   7.553 -0.8638  0.1276  0.6960
   61MOL   Cl75 7395   5.420   6.402   7.502 -0.0903  0.0853 -0.0644
   61MOL   Cl76 7396   5.603   6.242   7.643 -0.2237  0.1845  0.2637
   61MOL    C77 7397   5.675   6.373   7.427  0.5409 -0.1320 -0.2763
   61MOL    H78 7398   5.640   6.281   7.379 -1.4670  0.5167 -0.1233
   61MOL    H79 7399   5.633   6.448   7.360  0.4436 -1.4402 -1.6870
   61MOL    C80 7400   5.826   6.362   7.418  0.4442 -0.0704  0.1712
   61MOL   Cl81 7401   5.876   6.210   7.500 -0.2169 -0.0406 -0.3157
   61MOL   Cl82 7402   5.901   6.500   7.507  0.0011  0.3743  0.1222
   61MOL    C83 7403   5.900   6.379   7.276 -0.1135 -0.5475  0.1859
   61MOL    H84 7404   5.893   6.485   7.253  0.1790  0.2087  3.3403
   61MOL    H85 7405   6.004   6.353   7.296  0.3139  1.0826  0.1625
   61MOL    C86 7406   5.859   6.284   7.156  0.5061  0.4091  0.0593
   61MOL   Cl87 7407   5.976   6.314   7.026 -0.3014 -0.0980  0.2985
   61MOL   Cl88 7408   5.696   6.341   7.100 -0.6184 -0.2413  0.0712
   61MOL    C89 7409   5.858   6.142   7.204 -0.6125  0.3189 -0.3118
   61MOL    H90 7410   5.953   6.132   7.256 -0.6280 -1.1743 -0.5391
   61MOL    H91 7411   5.776   6.134   7.275 -1.5863  0.1855 -1.4435
   61MOL    C92 7412   5.846   6.027   7.105  0.1649 -0.2816 -0.2696
   61MOL   Cl93 7413   5.846   5.881   7.200 -0.0102  0.1829  0.3702
   61MOL   Cl94 7414   6.000   6.015   7.017  0.0489 -0.0192 -0.0753
   61MOL    C95 7415   5.729   6.046   7.008 -0.1466  0.6284 -0.5567
   61MOL    H96 7416   5.638   6.074   7.060 -0.6481 -3.5840  1.0604
   61MOL    H97 7417   5.772   6.118   6.937  1.7175 -1.6024 -1.7645
   61MOL    C98 7418   5.678   5.918   6.924  0.1180  0.0015 -0.9159
   61MOL   Cl99 7419   5.579   5.820   7.035  0.1861 -0.2901  0.4731
   61MOL  Cl100 7420   5.812   5.807   6.868  0.0943  0.0933  0.4330
   61MOL   C101 7421   5.581   5.962   6.804 -0.2819  0.5765  0.3912
   61MOL   H102 7422   5.564   5.873   6.745  1.0180  0.0836  0.7468
   61MOL   H103 7423   5.484   5.989   6.846 -1.3395 -2.9913  0.4177
   61MOL   C104 7424   5.621   6.078   6.701 -0.4320 -0.4515  0.3402
   61MOL  Cl105 7425   5.593   6.243   6.763 -0.1304 -0.0584  0.0998
   61MOL  Cl106 7426   5.520   6.052   6.568  0.5095  0.3010 -0.4154
   61MOL   C107 7427   5.765   6.062   6.651 -0.1286 -0.1093 -0.8168
   61MOL   H108 7428   5.835   6.050   6.733  1.4084  3.1955 -1.5833
   61MOL   H109 7429   5.771   5.980   6.579 -2.5299 -3.0234  2.1535
   61MOL   C110 7430   5.844   6.178   6.575 -0.6575 -0.5727 -0.2373
   61MOL  Cl111 7431   5.987   6.092   6.510 -0.0046 -0.1523 -0.1538
   61MOL  Cl112 7432   5.898   6.298   6.701 -0.2561 -0.1132  0.1158
   61MOL   C113 7433   5.759   6.246   6.456  0.1777 -0.1488 -0.1435
   61MOL   H114 7434   5.751   6.174   6.375  3.3039 -0.9373  0.1572
   61MOL   H115 7435   5.658   6.263   6.494  0.3856  0.1778  0.2672
   61MOL   C116 7436   5.811   6.372   6.392  0.6072  0.3475  0.2469
   61MOL  Cl117 7437   5.732   6.514   6.466 -0.1405  0.2082 -0.3322
   61MOL  Cl118 7438   5.769   6.371   6.222 -0.2875 -0.4280  0.1726
   61MOL   C119 7439   5.963   6.397   6.406 -0.0835  0.1472  0.1617
   61MOL   H120 7440   6.027   6.317   6.369  0.3400  0.1716  0.8405
   61MOL   H121 7441   5.989   6.484   6.345 -0.0904 -0.1831 -0.3236
   61MOL   H122 7442   5.983   6.433   6.507  2.4789  0.7085 -0.4984
   62MOL     C1 7443   7.168   4.415   8.168 -0.8701 -0.2692  0.3561
   62MOL    Cl2 7444   7.161   4.243   8.140 -0.0204  0.4268  0.0909
   62MOL    Cl3 7445   7.127   4.499   8.020  0.0865  0.2758  0.1214
   62MOL     C4 7446   7.058   4.436   8.271 -0.1448 -0.4295  1.1606
   62MOL     H5 7447   6.966   4.408   8.218 -0.6200  0.4560  1.5053
   62MOL     H6 7448   7.074   4.358   8.345  0.5922 -1.6719 -0.2783
   62MOL     H7 7449   7.259   4.459   8.210 -0.6281  0.2192 -0.6703
   62MOL     C8 7450   7.017   4.568   8.342 -0.4684 -0.0279 -0.2446
   62MOL    Cl9 7451   6.932   4.672   8.229  0.2122  0.4588 -0.3470
   62MOL   Cl10 7452   7.166   4.656   8.394  0.1612  0.0492  0.0716
   62MOL    C11 7453   6.911   4.549   8.451 -0.1555  0.2768  0.2975
   62MOL    H12 7454   6.903   4.649   8.495 -0.0108 -0.7340  2.6601
   62MOL    H13 7455   6.813   4.539   8.405 -0.3793 -2.6190  1.2912
   62MOL    C14 7456   6.924   4.461   8.571 -0.4463 -0.5724 -0.0308
   62MOL   Cl15 7457   7.099   4.458   8.635 -0.2790  0.0574  0.0724
   62MOL   Cl16 7458   6.872   4.298   8.519  0.2835 -0.3207  0.0355
   62MOL    C17 7459   6.831   4.518   8.688 -0.0307  0.6151  0.6290
   62MOL    H18 7460   6.898   4.596   8.725  2.0294 -0.4914 -0.7246
   62MOL    H19 7461   6.741   4.562   8.644  0.0105  0.3146  0.2414
   62MOL    C20 7462   6.782   4.431   8.804 -0.1498 -0.0606 -0.2000
   62MOL   Cl21 7463   6.918   4.327   8.853  0.2734 -0.1812 -0.1910
   62MOL   Cl22 7464   6.649   4.322   8.751  0.2234  0.2080 -0.2267
   62MOL    C23 7465   6.739   4.520   8.922 -0.1380  0.3651  0.2547
   62MOL    H24 7466   6.711   4.459   9.007  1.5885 -1.0576 -0.1656
   62MOL    H25 7467   6.827   4.575   8.957 -1.4919  1.5564  1.9212
   62MOL    C26 7468   6.630   4.625   8.924 -0.0101  0.8239 -0.1004
   62MOL   Cl27 7469   6.686   4.753   8.813  0.2303 -0.1339  0.0022
   62MOL   Cl28 7470   6.640   4.700   9.078 -0.1340  0.0559  0.5526
   62MOL    C29 7471   6.493   4.573   8.884 -0.5437  0.7804 -0.4784
   62MOL    H30 7472   6.496   4.501   8.802 -1.9752 -0.4425  0.5133
   62MOL    H31 7473   6.465   4.524   8.977  1.6820  0.9036  0.2702
   62MOL    C32 7474   6.379   4.675   8.848  0.6488 -0.6947 -0.8344
   62MOL   Cl33 7475   6.227   4.591   8.843  0.1127  0.2535 -0.1851
   62MOL   Cl34 7476   6.404   4.730   8.684  0.5035  0.1462 -0.4181
   62MOL    C35 7477   6.367   4.807   8.935  0.1495 -0.3026 -0.4750
   62MOL    H36 7478   6.360   4.763   9.034  0.1224  0.1825 -0.2573
   62MOL    H37 7479   6.467   4.851   8.928 -0.5207  1.0193 -2.3778
   62MOL    C38 7480   6.252   4.914   8.915 -0.1589  0.0270  0.2850
   62MOL   Cl39 7481   6.303   5.035   9.032 -0.3747  0.5812  0.3124
   62MOL   Cl40 7482   6.093   4.844   8.963 -0.3488  0.1768  0.2790
   62MOL    C41 7483   6.250   4.975   8.767  0.6367  0.0179 -0.3275
   62MOL    H42 7484   6.349   5.002   8.730  1.7695  3.5566  4.6859
   62MOL    H43 7485   6.202   4.898   8.708  2.3995 -1.5765  0.2588
   62MOL    C44 7486   6.161   5.103   8.731  0.5944 -0.7159 -0.4542
   62MOL   Cl45 7487   5.990   5.047   8.746 -0.2409 -0.1526 -0.0306
   62MOL   Cl46 7488   6.190   5.133   8.555 -0.4556 -0.2920  0.4502
   62MOL    C47 7489   6.184   5.235   8.813 -0.9833 -0.4994 -0.0599
   62MOL    H48 7490   6.176   5.201   8.916  0.5630 -1.4649 -0.2267
   62MOL    H49 7491   6.289   5.263   8.804 -1.2887  1.6017  2.3580
   62MOL    C50 7492   6.100   5.367   8.807  0.1049 -0.5453  0.7538
   62MOL   Cl51 7493   6.181   5.470   8.926  0.3310  0.0479  0.0977
   62MOL   Cl52 7494   5.933   5.336   8.862 -0.1033  0.0527  0.1117
   62MOL    C53 7495   6.102   5.420   8.664  0.7286 -0.1603 -0.0784
   62MOL    H54 7496   6.198   5.387   8.626  1.6316 -0.5509  2.4848
   62MOL    H55 7497   6.030   5.368   8.601  0.1505  1.1841 -0.5627
   62MOL    C56 7498   6.091   5.573   8.626  0.1040 -0.1024  0.3640
   62MOL   Cl57 7499   6.236   5.658   8.686  0.1482  0.4273 -0.0085
   62MOL   Cl58 7500   5.963   5.634   8.721 -0.0403  0.4650  0.0403
   62MOL    C59 7501   6.053   5.600   8.480 -0.5117 -0.3796 -0.5290
   62MOL    H60 7502   5.952   5.572   8.451 -1.9263  2.6796  1.2924
   62MOL    H61 7503   6.050   5.709   8.480  2.5038 -0.2475 -0.2913
   62MOL    C62 7504   6.156   5.562   8.367  0.5821  0.2237  0.0740
   62MOL   Cl63 7505   6.104   5.395   8.323 -0.4081 -0.2477 -0.2972
   62MOL   Cl64 7506   6.335   5.543   8.409 -0.0823  0.1210  0.0212
   62MOL    C65 7507   6.147   5.636   8.238  0.1438  0.3206  0.5140
   62MOL    H66 7508   6.223   5.586   8.179 -0.4475 -0.6425  0.5655
   62MOL    H67 7509   6.054   5.604   8.191 -0.1482  1.5769  0.2197
   62MOL    C68 7510   6.176   5.793   8.245 -0.1736  0.1277 -0.3113
   62MOL   Cl69 7511   6.280   5.849   8.387 -0.2187 -0.0849 -0.0717
   62MOL   Cl70 7512   6.018   5.885   8.261 -0.6181  0.6822  0.0992
   62MOL    C71 7513   6.256   5.852   8.121  0.2037  0.4833  0.8509
   62MOL    H72 7514   6.274   5.959   8.138 -1.7622  1.4281 -2.6306
   62MOL    H73 7515   6.357   5.810   8.128 -0.4563 -1.3098 -0.2463
   62MOL    C74 7516   6.210   5.843   7.977 -0.3564  0.4166 -0.6976
   62MOL   Cl75 7517   6.167   5.674   7.930 -0.1259  0.3013  0.1092
   62MOL   Cl76 7518   6.353   5.889   7.873 -0.1840  0.0956 -0.0555
   62MOL    C77 7519   6.089   5.930   7.956  0.1241  0.0301 -0.3595
   62MOL    H78 7520   6.006   5.873   7.997  1.5485 -1.1142  0.9440
   62MOL    H79 7521   6.104   6.015   8.022  2.7120 -0.7521  0.1023
   62MOL    C80 7522   6.049   5.978   7.813  0.2895  0.8047  0.2313
   62MOL   Cl81 7523   5.874   6.010   7.810  0.1886 -0.2510  0.1136
   62MOL   Cl82 7524   6.077   5.854   7.690 -0.2770  0.0193  0.0409
   62MOL    C83 7525   6.124   6.102   7.765  0.1176  0.4782 -0.3369
   62MOL    H84 7526   6.218   6.059   7.729  0.3776  1.2821 -0.6296
   62MOL    H85 7527   6.059   6.134   7.684  0.9461  2.0199 -0.4184
   62MOL    C86 7528   6.137   6.239   7.843 -0.2567  0.0032 -0.4046
   62MOL   Cl87 7529   6.207   6.354   7.729  0.1320 -0.2021  0.1823
   62MOL   Cl88 7530   6.263   6.218   7.963 -0.3278  0.0834 -0.1178
   62MOL    C89 7531   6.003   6.289   7.899 -0.4760  0.2491 -0.2491
   62MOL    H90 7532   5.934   6.288   7.814 -0.8598 -2.0622  0.0622
   62MOL    H91 7533   5.957   6.213   7.962  0.6130 -0.8443 -0.7563
   62MOL    C92 7534   5.983   6.430   7.964 -0.4854  0.5022 -0.3221
   62MOL   Cl93 7535   5.807   6.415   7.998  0.1547 -0.4016 -0.1794
   62MOL   Cl94 7536   5.999   6.553   7.838  0.0905  0.0880  0.0940
   62MOL    C95 7537   6.064   6.478   8.086 -0.1757 -0.3177  0.6188
   62MOL    H96 7538   6.170   6.465   8.062  0.0334 -1.7456  2.2083
   62MOL    H97 7539   6.050   6.585   8.097 -0.0350 -0.0935 -1.2641
   62MOL    C98 7540   6.050   6.411   8.233  0.0186 -0.0449  0.7087
   62MOL   Cl99 7541   6.037   6.238   8.222 -0.1480 -0.0340  0.1591
   62MOL  Cl100 7542   5.909   6.460   8.323 -0.3032 -0.0000  0.0104
   62MOL   C101 7543   6.182   6.436   8.322  0.2945  0.0206 -0.1003
   62MOL   H102 7544   6.178   6.353   8.394 -3.4247  0.1096 -0.0714
   62MOL   H103 7545   6.269   6.408   8.264  1.9568  1.6587  1.5460
   62MOL   C104 7546   6.222   6.570   8.383  0.1014 -0.3052  0.2701
   62MOL  Cl105 7547   6.096   6.665   8.465 -0.2075  0.0834 -0.0370
   62MOL  Cl106 7548   6.267   6.680   8.255 -0.0551 -0.2573 -0.1831
   62MOL   C107 7549   6.339   6.557   8.490 -1.2567  0.6316  0.1128
   62MOL   H108 7550   6.367   6.651   8.536  0.4191  2.4141 -4.3115
   62MOL   H109 7551   6.297   6.502   8.574 -1.9705 -0.9493 -1.2374
   62MOL   C110 7552   6.477   6.483   8.462  0.2816  0.4543  0.3658
   62MOL  Cl111 7553   6.559   6.562   8.324 -0.1381  0.3006 -0.3927
   62MOL  Cl112 7554   6.465   6.315   8.406 -0.3380  0.0887 -0.1442
   62MOL   C113 7555   6.577   6.490   8.575  0.6807 -0.5003 -0.3720
   62MOL   H114 7556   6.670   6.445   8.540  2.0717 -0.5915  3.1413
   62MOL   H115 7557   6.591   6.595   8.599  2.7708 -1.8360  5.0146
   62MOL   C116 7558   6.556   6.417   8.712 -0.3119 -0.4498 -0.1750
   62MOL  Cl117 7559   6.438   6.490   8.819  0.1082 -0.2139 -0.3344
   62MOL  Cl118 7560   6.706   6.428   8.805 -0.0637 -0.5362 -0.1711
   62MOL   C119 7561   6.519   6.271   8.698 -0.3242  0.4632  0.7757
   62MOL   H120 7562   6.589   6.241   8.620  0.0779  0.8939  0.9689
   62MOL   H121 7563   6.545   6.217   8.789  3.3335  0.9805  0.1032
   62MOL   H122 7564   6.416   6.261   8.663  0.9714  0.6466 -3.3044
   63MOL     C1 7565   1.120   5.700   3.747  0.7731 -0.1379  0.2161
   63MOL    Cl2 7566   0.969   5.604   3.786 -0.2388 -0.0066 -0.3841
   63MOL    Cl3 7567   1.162   5.768   3.901 -0.1265 -0.0779 -0.0544
   63MOL     C4 7568   1.241   5.623   3.690 -0.3907 -0.2038  0.6117
   63MOL     H5 7569   1.331   5.685   3.680  0.7772 -1.6966  1.5758
   63MOL     H6 7570   1.268   5.538   3.752  1.2989 -0.5889 -0.6088
   63MOL     H7 7571   1.086   5.780   3.680 -1.5296  0.5039  2.0500
   63MOL     C8 7572   1.220   5.577   3.543  0.0147 -0.4006 -0.1821
   63MOL    Cl9 7573   1.362   5.497   3.481 -0.2013 -0.1386  0.2566
   63MOL   Cl10 7574   1.204   5.724   3.452 -0.0169 -0.0883 -0.3056
   63MOL    C11 7575   1.100   5.468   3.515  0.4846  0.3064 -0.3683
   63MOL    H12 7576   1.004   5.506   3.549  0.5858  0.2775 -0.0426
   63MOL    H13 7577   1.105   5.455   3.407 -0.6466 -2.6441 -0.1116
   63MOL    C14 7578   1.106   5.323   3.578 -0.1266 -0.4370  0.4675
   63MOL   Cl15 7579   0.951   5.251   3.548 -0.5526  0.1796  0.1773
   63MOL   Cl16 7580   1.129   5.335   3.753  0.2739  0.1627  0.3172
   63MOL    C17 7581   1.221   5.236   3.523  0.2224  0.3213 -0.5662
   63MOL    H18 7582   1.254   5.255   3.421  0.3101  0.2854 -0.5448
   63MOL    H19 7583   1.308   5.268   3.580  1.6338  0.0305 -2.5060
   63MOL    C20 7584   1.213   5.077   3.526 -0.2876 -0.1668  0.2470
   63MOL   Cl21 7585   1.372   5.015   3.479  0.6629  0.2507 -0.3024
   63MOL   Cl22 7586   1.090   5.026   3.400  0.3710  0.1700  0.4636
   63MOL    C23 7587   1.185   5.018   3.663 -0.5183 -0.2015 -0.9523
   63MOL    H24 7588   1.255   5.076   3.723 -0.8896 -0.5461 -0.1676
   63MOL    H25 7589   1.083   5.044   3.692 -0.0625 -0.2817  0.7706
   63MOL    C26 7590   1.205   4.865   3.704 -0.1931  0.1501  0.3357
   63MOL   Cl27 7591   1.376   4.831   3.727  0.1222  0.3454 -0.1691
   63MOL   Cl28 7592   1.153   4.764   3.568 -0.5227  0.1260  0.6904
   63MOL    C29 7593   1.125   4.823   3.829 -0.1450 -0.5191 -0.0653
   63MOL    H30 7594   1.019   4.839   3.809 -0.7992 -2.5978  1.5182
   63MOL    H31 7595   1.139   4.715   3.825 -0.2494 -0.5425  0.1809
   63MOL    C32 7596   1.155   4.877   3.977  0.4015 -0.5081 -0.6236
   63MOL   Cl33 7597   1.155   5.058   3.975 -0.0834  0.1490  0.0888
   63MOL   Cl34 7598   1.323   4.836   4.031 -0.4520  0.0463  0.2621
   63MOL    C35 7599   1.074   4.812   4.090  0.3971  0.0320  0.0076
   63MOL    H36 7600   1.090   4.704   4.081  0.1115  0.0804 -1.1345
   63MOL    H37 7601   1.121   4.841   4.184 -1.9125 -1.2661  1.6086
   63MOL    C38 7602   0.918   4.837   4.098  0.5344 -0.3568  0.8572
   63MOL   Cl39 7603   0.840   4.766   3.958 -0.0513 -0.1405  0.0867
   63MOL   Cl40 7604   0.868   5.012   4.109 -0.4763 -0.2440 -0.0126
   63MOL    C41 7605   0.861   4.754   4.220  0.5721 -0.0172  0.6668
   63MOL    H42 7606   0.759   4.791   4.223  1.3772  2.2783  0.5935
   63MOL    H43 7607   0.859   4.652   4.182 -2.2236  0.2258  0.0880
   63MOL    C44 7608   0.928   4.760   4.358  0.4829  0.3521  0.3940
   63MOL   Cl45 7609   0.984   4.920   4.400 -0.5230 -0.2010  0.2825
   63MOL   Cl46 7610   1.073   4.655   4.368  0.1503 -0.4098  0.3481
   63MOL    C47 7611   0.835   4.721   4.480 -0.3694  0.1087  0.2360
   63MOL    H48 7612   0.896   4.716   4.570  1.8571 -0.5368 -1.2740
   63MOL    H49 7613   0.765   4.803   4.493  0.7297  0.8393  1.6407
   63MOL    C50 7614   0.749   4.593   4.489 -0.1089 -0.2204  0.3275
   63MOL   Cl51 7615   0.851   4.451   4.462  0.0413  0.0744 -0.0834
   63MOL   Cl52 7616   0.636   4.586   4.350 -0.4984  0.2861 -0.2920
   63MOL    C53 7617   0.662   4.588   4.612  0.2122 -0.3536  0.1223
   63MOL    H54 7618   0.573   4.650   4.606 -1.1621 -2.1459  1.2293
   63MOL    H55 7619   0.635   4.482   4.605  0.1768 -0.3447  0.1295
   63MOL    C56 7620   0.718   4.607   4.750 -0.6434 -0.4996  0.0962
   63MOL   Cl57 7621   0.743   4.785   4.779 -0.2089  0.2828  0.1526
   63MOL   Cl58 7622   0.878   4.527   4.761  0.0638 -0.2648  0.2462
   63MOL    C59 7623   0.632   4.553   4.865 -0.2049  0.9348  0.1212
   63MOL    H60 7624   0.661   4.448   4.864 -1.5526  0.5417 -2.9164
   63MOL    H61 7625   0.675   4.591   4.958 -1.0263  2.0315  0.0639
   63MOL    C62 7626   0.475   4.562   4.879 -0.1585  0.1023 -0.2264
   63MOL   Cl63 7627   0.403   4.488   4.733  0.2037  0.1613  0.0482
   63MOL   Cl64 7628   0.420   4.725   4.870 -0.1221 -0.6187  0.0369
   63MOL    C65 7629   0.433   4.499   5.020 -1.1725 -0.6699  0.3510
   63MOL    H66 7630   0.482   4.402   5.019  1.0988  0.4268 -0.1863
   63MOL    H67 7631   0.491   4.565   5.086  0.9065 -1.8274 -0.2615
   63MOL    C68 7632   0.286   4.503   5.072  0.0744  0.4101  0.4007
   63MOL   Cl69 7633   0.173   4.423   4.955 -0.1689 -0.0313  0.1556
   63MOL   Cl70 7634   0.238   4.666   5.106 -0.0936 -0.1505 -0.2870
   63MOL    C71 7635   0.271   4.409   5.194 -0.1036 -0.1457 -0.3536
   63MOL    H72 7636   0.166   4.414   5.219  0.3064  2.7323  0.9145
   63MOL    H73 7637   0.286   4.317   5.137  1.8329  0.2145 -0.4597
   63MOL    C74 7638   0.350   4.422   5.332 -0.4671  0.0508 -0.7221
   63MOL   Cl75 7639   0.530   4.399   5.297  0.1347 -0.4403  0.0206
   63MOL   Cl76 7640   0.289   4.276   5.425  0.0172 -0.1759 -0.3775
   63MOL    C77 7641   0.310   4.555   5.400  0.2911 -0.4141 -0.4575
   63MOL    H78 7642   0.364   4.626   5.337  0.7154  0.5702  0.9942
   63MOL    H79 7643   0.203   4.575   5.393  0.0831 -1.5428 -0.6400
   63MOL    C80 7644   0.341   4.569   5.552  0.0958 -0.8990  0.3218
   63MOL   Cl81 7645   0.512   4.528   5.588  0.3250 -0.0263  0.2558
   63MOL   Cl82 7646   0.235   4.468   5.654  0.1112  0.0067 -0.4439
   63MOL    C83 7647   0.322   4.718   5.608  0.1851 -0.5811  0.9248
   63MOL    H84 7648   0.296   4.717   5.714 -0.3287 -1.3898  0.7944
   63MOL    H85 7649   0.414   4.774   5.591  0.1593 -0.3673  1.4687
   63MOL    C86 7650   0.190   4.801   5.565  0.1320 -0.7486 -0.2213
   63MOL   Cl87 7651   0.046   4.692   5.578 -0.1728  0.2227 -0.3045
   63MOL   Cl88 7652   0.208   4.854   5.397  0.4108 -0.1052  0.2043
   63MOL    C89 7653   0.160   4.919   5.659 -0.1758 -0.6703 -0.1260
   63MOL    H90 7654   0.064   4.959   5.627  0.0949  1.5145  1.7034
   63MOL    H91 7655   0.135   4.863   5.749  0.4234 -1.3238 -0.3583
   63MOL    C92 7656   0.259   5.040   5.699  1.2010  0.0144 -0.5448
   63MOL   Cl93 7657   0.413   4.980   5.764  0.0220 -0.1967 -0.1481
   63MOL   Cl94 7658   0.171   5.117   5.834 -0.0778  0.2327  0.2877
   63MOL    C95 7659   0.267   5.149   5.595  0.2381  0.1340 -0.4094
   63MOL    H96 7660   0.282   5.096   5.501 -3.4239 -1.2653 -0.2765
   63MOL    H97 7661   0.172   5.200   5.577  0.7137  0.4121 -2.2562
   63MOL    C98 7662   0.375   5.259   5.600  0.6792  0.5831 -0.2070
   63MOL   Cl99 7663   0.398   5.315   5.769  0.0806 -0.1663 -0.3641
   63MOL  Cl100 7664   0.296   5.398   5.522 -0.0012  0.0024 -0.1594
   63MOL   C101 7665   0.514   5.236   5.544  0.1393  0.7418  0.2096
   63MOL   H102 7666   0.580   5.315   5.580 -0.9706  1.1698  1.3590
   63MOL   H103 7667   0.551   5.147   5.595  1.2047  1.6626  1.0527
   63MOL   C104 7668   0.542   5.222   5.394  0.0638  0.4262 -0.4425
   63MOL  Cl105 7669   0.541   5.387   5.322  0.0110 -0.0055  0.0834
   63MOL  Cl106 7670   0.419   5.133   5.291 -0.1370 -0.0925  0.3583
   63MOL   C107 7671   0.674   5.165   5.359 -0.2619 -0.5364  0.0422
   63MOL   H108 7672   0.669   5.148   5.252 -0.5338 -0.6836  0.0783
   63MOL   H109 7673   0.753   5.239   5.353  0.6892 -1.4816  0.5908
   63MOL   C110 7674   0.742   5.044   5.436 -0.6844  0.3518 -0.3472
   63MOL  Cl111 7675   0.613   4.924   5.485  0.0687  0.1092  0.1472
   63MOL  Cl112 7676   0.818   5.109   5.591  0.0976  0.5885  0.1204
   63MOL   C113 7677   0.861   4.972   5.356  0.6064  0.3622 -0.5866
   63MOL   H114 7678   0.953   5.031   5.358  0.8789 -0.0953  1.0312
   63MOL   H115 7679   0.895   4.882   5.407  2.0742  1.0465 -0.3370
   63MOL   C116 7680   0.837   4.943   5.207  0.4723 -0.0061 -0.6618
   63MOL  Cl117 7681   0.852   5.101   5.108  0.4033  0.0860 -0.6615
   63MOL  Cl118 7682   0.681   4.863   5.173 -0.0004  0.2098  0.1266
   63MOL   C119 7683   0.941   4.861   5.142 -0.6431  0.1437  0.2165
   63MOL   H120 7684   1.035   4.915   5.152 -1.5211  1.2395  3.1650
   63MOL   H121 7685   0.963   4.763   5.185  2.3331  1.2692  1.4153
   63MOL   H122 7686   0.918   4.860   5.035 -0.1154  0.4940  0.0999
   64MOL     C1 7687   6.346   6.123   7.407 -0.3610 -0.4066 -0.7072
   64MOL    Cl2 7688   6.345   6.216   7.254 -0.3232  0.2087 -0.1917
   64MOL    Cl3 7689   6.192   6.042   7.419 -0.0145 -0.0069  0.3188
   64MOL     C4 7690   6.455   6.007   7.415 -0.5714 -0.5502 -0.2664
   64MOL     H5 7691   6.428   5.933   7.490  2.8199 -2.4397 -0.7963
   64MOL     H6 7692   6.463   5.969   7.314 -1.3690  0.6705 -0.7970
   64MOL     H7 7693   6.342   6.192   7.492 -1.4554 -0.7783 -0.4413
   64MOL     C8 7694   6.594   6.051   7.467  0.8503 -0.6345  0.2152
   64MOL    Cl9 7695   6.590   6.055   7.644  0.1107 -0.3132  0.2605
   64MOL   Cl10 7696   6.620   6.220   7.419  0.4588 -0.0533 -0.0723
   64MOL    C11 7697   6.708   5.970   7.413 -0.1315 -0.1642 -0.9911
   64MOL    H12 7698   6.701   5.970   7.304  0.5864  1.5860 -1.0524
   64MOL    H13 7699   6.797   6.030   7.428 -0.7891  0.7734 -0.8125
   64MOL    C14 7700   6.754   5.830   7.474 -0.4180 -0.4316  0.1638
   64MOL   Cl15 7701   6.617   5.731   7.543 -0.3191  0.2403  0.0884
   64MOL   Cl16 7702   6.872   5.853   7.612  0.2104 -0.2685 -0.1318
   64MOL    C17 7703   6.842   5.759   7.369  0.2890  0.2285 -0.5231
   64MOL    H18 7704   6.904   5.824   7.307  0.0358 -0.9275 -2.0020
   64MOL    H19 7705   6.925   5.709   7.418  1.2334 -1.1880 -3.4544
   64MOL    C20 7706   6.776   5.668   7.266  0.5965 -0.4687  0.6493
   64MOL   Cl21 7707   6.638   5.741   7.182 -0.0830 -0.2522  0.7817
   64MOL   Cl22 7708   6.728   5.513   7.350  0.2466  0.0031  0.2673
   64MOL    C23 7709   6.869   5.612   7.157 -0.0112 -0.6141 -0.6199
   64MOL    H24 7710   6.932   5.537   7.205  0.7628 -1.7840 -3.3729
   64MOL    H25 7711   6.811   5.549   7.090 -2.5831 -1.5544  2.3782
   64MOL    C26 7712   6.955   5.709   7.065  0.1867 -0.4719  0.0693
   64MOL   Cl27 7713   7.098   5.746   7.160  0.3817  0.2596  0.0329
   64MOL   Cl28 7714   6.882   5.878   7.043 -0.0275 -0.0033 -0.1412
   64MOL    C29 7715   6.996   5.644   6.929 -0.9879 -0.1197  0.4883
   64MOL    H30 7716   7.100   5.657   6.899 -1.3423  1.4873 -0.1362
   64MOL    H31 7717   6.987   5.539   6.956  0.1368 -0.8310 -1.7687
   64MOL    C32 7718   6.913   5.658   6.790  0.2877 -0.3082  0.3464
   64MOL   Cl33 7719   6.738   5.640   6.823  0.1786 -0.2087 -0.2566
   64MOL   Cl34 7720   6.967   5.526   6.678  0.1433  0.0853  0.1653
   64MOL    C35 7721   6.919   5.808   6.736 -0.5485 -0.0389  0.0560
   64MOL    H36 7722   6.830   5.864   6.765 -0.0932  0.5545  0.3326
   64MOL    H37 7723   7.000   5.854   6.793 -1.9390  1.8175  0.5710
   64MOL    C38 7724   6.965   5.845   6.590  0.2030 -0.7477  0.3322
   64MOL   Cl39 7725   7.130   5.767   6.573  0.3499  0.5059 -0.1287
   64MOL   Cl40 7726   6.994   6.021   6.579  0.4108  0.0923  0.2686
   64MOL    C41 7727   6.863   5.791   6.484  0.1982 -0.1684 -0.8654
   64MOL    H42 7728   6.845   5.685   6.505  2.9697 -0.5782 -0.4562
   64MOL    H43 7729   6.765   5.833   6.509 -0.2339 -1.8948  0.4981
   64MOL    C44 7730   6.890   5.809   6.334  0.2345 -0.7406  0.2007
   64MOL   Cl45 7731   6.842   5.981   6.281  0.3049  0.3156  0.1745
   64MOL   Cl46 7732   6.774   5.707   6.251 -0.3677 -0.2158  0.3795
   64MOL    C47 7733   7.033   5.772   6.276 -0.0919  0.0558  0.1855
   64MOL    H48 7734   7.096   5.839   6.334  1.1402  1.0063 -2.1606
   64MOL    H49 7735   7.060   5.671   6.308 -1.8675 -0.5569 -0.1286
   64MOL    C50 7736   7.092   5.802   6.131  0.0412 -0.0641 -0.4723
   64MOL   Cl51 7737   7.243   5.713   6.128 -0.6262  0.0554  0.0866
   64MOL   Cl52 7738   7.141   5.974   6.120 -0.1926 -0.5857 -0.0271
   64MOL    C53 7739   6.978   5.767   6.030  0.8488  0.3537 -0.2437
   64MOL    H54 7740   6.930   5.676   6.066  1.2135  0.4398  0.4656
   64MOL    H55 7741   6.899   5.841   6.026  0.2435 -0.3352 -1.1585
   64MOL    C56 7742   7.015   5.728   5.878 -0.2717  1.2677 -0.9227
   64MOL   Cl57 7743   6.876   5.730   5.771  0.3701 -0.3544  0.6267
   64MOL   Cl58 7744   7.059   5.557   5.888 -0.0280 -0.4221 -0.1820
   64MOL    C59 7745   7.135   5.831   5.821  0.3298  0.6565 -0.2073
   64MOL    H60 7746   7.090   5.930   5.811 -0.9881 -0.1492 -2.4651
   64MOL    H61 7747   7.217   5.842   5.892  0.9974  1.2693 -1.0686
   64MOL    C62 7748   7.204   5.818   5.691  0.2164  0.6348 -0.0688
   64MOL   Cl63 7749   7.333   5.945   5.690 -0.5324  0.2759 -0.2608
   64MOL   Cl64 7750   7.087   5.854   5.558 -0.1973  0.5758  0.0752
   64MOL    C65 7751   7.267   5.674   5.667  0.1144  0.2624 -0.7787
   64MOL    H66 7752   7.311   5.640   5.761 -1.0421  3.1383  0.8454
   64MOL    H67 7753   7.177   5.613   5.658  1.0718 -1.6691  2.0932
   64MOL    C68 7754   7.361   5.650   5.548  0.2834 -0.0943 -0.9005
   64MOL   Cl69 7755   7.527   5.720   5.585 -0.1190 -0.2082  0.0405
   64MOL   Cl70 7756   7.296   5.723   5.398  0.1724 -0.0272 -0.2724
   64MOL    C71 7757   7.392   5.496   5.535 -0.0759  0.4684 -0.7230
   64MOL    H72 7758   7.467   5.501   5.455 -0.1299  0.6630 -0.7634
   64MOL    H73 7759   7.435   5.464   5.629  1.6720 -0.3456 -1.7773
   64MOL    C74 7760   7.292   5.391   5.508 -0.1586 -0.1565 -0.1549
   64MOL   Cl75 7761   7.196   5.434   5.373  0.0174  0.0048  0.2571
   64MOL   Cl76 7762   7.190   5.359   5.645 -0.1924 -0.1750 -0.1702
   64MOL    C77 7763   7.350   5.256   5.473 -0.1677 -0.1181 -0.0822
   64MOL    H78 7764   7.269   5.183   5.481  0.5678 -1.0666 -1.1456
   64MOL    H79 7765   7.380   5.261   5.368  1.1704  4.2088  0.4326
   64MOL    C80 7766   7.480   5.192   5.549  0.1696  0.0496 -0.4422
   64MOL   Cl81 7767   7.448   5.188   5.723 -0.3631  0.2308  0.2188
   64MOL   Cl82 7768   7.622   5.301   5.527 -0.2895 -0.5747 -0.0463
   64MOL    C83 7769   7.530   5.054   5.495  0.5453  0.2871 -0.0036
   64MOL    H84 7770   7.586   5.066   5.402 -0.1544  0.5979 -0.3878
   64MOL    H85 7771   7.597   5.020   5.574 -0.4402 -1.5557  0.0698
   64MOL    C86 7772   7.427   4.939   5.470  0.5501 -0.2078 -0.0493
   64MOL   Cl87 7773   7.313   4.983   5.336  0.4590  0.2929 -0.4867
   64MOL   Cl88 7774   7.330   4.904   5.615  0.0420 -0.1415  0.4276
   64MOL    C89 7775   7.497   4.801   5.437  1.0680 -1.1206  0.0476
   64MOL    H90 7776   7.560   4.772   5.522  1.6369 -0.2616 -0.0753
   64MOL    H91 7777   7.420   4.724   5.438  0.0804 -0.1514 -0.8893
   64MOL    C92 7778   7.591   4.778   5.323  0.5499 -0.2035  0.4439
   64MOL   Cl93 7779   7.747   4.854   5.363 -0.3193  0.3010 -0.0242
   64MOL   Cl94 7780   7.538   4.859   5.171 -0.5315 -0.1195 -0.1459
   64MOL    C95 7781   7.600   4.630   5.280 -0.0158  0.6334  0.9769
   64MOL    H96 7782   7.494   4.606   5.276 -0.0836  1.2447 -2.1369
   64MOL    H97 7783   7.636   4.632   5.177 -1.8300 -0.2717  0.3031
   64MOL    C98 7784   7.680   4.522   5.360 -0.4948  0.1644 -0.7161
   64MOL   Cl99 7785   7.635   4.533   5.529  0.4840 -0.3653  0.0445
   64MOL  Cl100 7786   7.861   4.539   5.360 -0.1714  0.3215 -0.0565
   64MOL   C101 7787   7.650   4.378   5.310 -0.0741  0.4342  0.9401
   64MOL   H102 7788   7.728   4.319   5.359 -0.4116 -0.5870  0.2689
   64MOL   H103 7789   7.556   4.342   5.351 -1.0040  0.4748 -1.0586
   64MOL   C104 7790   7.659   4.342   5.162  0.4467 -0.0197  0.5261
   64MOL  Cl105 7791   7.514   4.414   5.077  0.7823  0.1234 -0.0205
   64MOL  Cl106 7792   7.634   4.162   5.155 -0.2499 -0.3011  0.0668
   64MOL   C107 7793   7.785   4.384   5.092  0.5118  0.7911  0.1930
   64MOL   H108 7794   7.783   4.492   5.104 -0.5958  0.6216  1.6572
   64MOL   H109 7795   7.866   4.358   5.160 -0.2077  1.0923  1.1735
   64MOL   C110 7796   7.817   4.356   4.941 -0.0799  0.0105  0.2357
   64MOL  Cl111 7797   7.846   4.177   4.918  0.2315  0.0944  0.8543
   64MOL  Cl112 7798   7.972   4.433   4.927  0.0081 -0.1832 -0.0280
   64MOL   C113 7799   7.711   4.397   4.827 -0.4054 -1.0702 -0.1470
   64MOL   H114 7800   7.610   4.359   4.844 -1.4051  1.0887 -1.1399
   64MOL   H115 7801   7.694   4.504   4.838  1.3929 -0.6557 -1.1698
   64MOL   C116 7802   7.734   4.367   4.673  0.2322  0.1036 -0.5185
   64MOL  Cl117 7803   7.688   4.195   4.642 -0.1125 -0.1697 -0.3384
   64MOL  Cl118 7804   7.901   4.393   4.618  0.6519 -0.0856  0.4818
   64MOL   C119 7805   7.647   4.453   4.576  0.2295 -0.0277  0.0945
   64MOL   H120 7806   7.695   4.460   4.478  1.8219 -0.1668  0.8481
   64MOL   H121 7807   7.540   4.433   4.573 -0.1056  1.7958 -0.5775
   64MOL   H122 7808   7.651   4.553   4.618  1.7687 -0.7100  1.6146
   65MOL     C1 7809   2.110   7.255   4.847 -0.5076  0.2257 -0.8159
   65MOL    Cl2 7810   2.166   7.317   4.686 -0.3049 -0.3711 -0.1365
   65MOL    Cl3 7811   1.930   7.274   4.861 -0.4599 -0.0155 -0.0206
   65MOL     C4 7812   2.156   7.113   4.858  0.2377 -0.4696  0.0589
   65MOL     H5 7813   2.096   7.052   4.790 -1.8137  0.6890  0.8113
   65MOL     H6 7814   2.260   7.109   4.824 -0.2868  0.2634 -1.7312
   65MOL     H7 7815   2.162   7.307   4.927  3.7020  1.4665 -4.1728
   65MOL     C8 7816   2.152   7.046   5.000 -0.2259 -0.1944  0.3030
   65MOL    Cl9 7817   1.998   7.054   5.095  0.2092  0.5357  0.1158
   65MOL   Cl10 7818   2.275   7.119   5.116 -0.0422  0.3510 -0.1470
   65MOL    C11 7819   2.186   6.893   4.990 -0.0744 -0.9538  0.2411
   65MOL    H12 7820   2.206   6.877   5.096  0.1832  1.4842  0.5830
   65MOL    H13 7821   2.088   6.853   4.963 -0.5296 -0.9397  1.8404
   65MOL    C14 7822   2.297   6.837   4.908  0.3563 -0.1072 -0.7376
   65MOL   Cl15 7823   2.447   6.922   4.933  0.0016 -0.4840 -0.4987
   65MOL   Cl16 7824   2.244   6.844   4.740  0.1316 -0.5431 -0.0648
   65MOL    C17 7825   2.319   6.687   4.950 -0.6091 -0.8328  0.5744
   65MOL    H18 7826   2.409   6.657   4.897 -0.5856 -1.4637  0.9644
   65MOL    H19 7827   2.359   6.682   5.051 -0.5552  0.0854  0.6054
   65MOL    C20 7828   2.218   6.569   4.932 -0.1180 -0.0823  0.5312
   65MOL   Cl21 7829   2.187   6.537   4.752 -0.3250  0.7905 -0.3139
   65MOL   Cl22 7830   2.066   6.593   5.010 -0.1060 -0.0301 -0.4051
   65MOL    C23 7831   2.280   6.437   4.983 -0.6502 -0.0251 -0.1411
   65MOL    H24 7832   2.236   6.367   4.912 -1.6820  0.3333  0.1351
   65MOL    H25 7833   2.384   6.436   4.950 -0.2426 -0.4614  1.1571
   65MOL    C26 7834   2.256   6.375   5.130 -0.5429  0.1365  0.5395
   65MOL   Cl27 7835   2.292   6.501   5.251 -0.0240  0.1324 -0.0201
   65MOL   Cl28 7836   2.379   6.255   5.157 -0.0952 -0.1101 -0.1506
   65MOL    C29 7837   2.115   6.316   5.156  0.6774  0.4703  0.1217
   65MOL    H30 7838   2.117   6.274   5.256  0.7086 -0.2858 -0.1918
   65MOL    H31 7839   2.043   6.395   5.175  0.1218 -0.2224  0.9097
   65MOL    C32 7840   2.048   6.205   5.070  0.4820 -0.1944 -0.2991
   65MOL   Cl33 7841   2.171   6.100   4.997  0.4668  0.2826 -0.1420
   65MOL   Cl34 7842   1.958   6.295   4.947 -0.2970 -0.2542 -0.3541
   65MOL    C35 7843   1.938   6.118   5.135  0.1970 -0.1539  0.0531
   65MOL    H36 7844   1.850   6.182   5.146  0.4864  0.6182 -1.8945
   65MOL    H37 7845   1.929   6.048   5.052  2.0940  1.2341 -1.3598
   65MOL    C38 7846   1.956   6.052   5.270  0.1103  0.4813 -0.5404
   65MOL   Cl39 7847   1.945   6.167   5.409  0.0600 -0.2665 -0.0827
   65MOL   Cl40 7848   2.118   5.980   5.277  0.4478 -0.2091  0.1150
   65MOL    C41 7849   1.852   5.939   5.304 -0.2824 -0.8547  0.0075
   65MOL    H42 7850   1.897   5.893   5.392  1.4878 -0.8776 -0.8870
   65MOL    H43 7851   1.766   5.987   5.351 -0.1380 -0.1920 -0.3942
   65MOL    C44 7852   1.804   5.838   5.193  0.5048 -0.3303  0.1006
   65MOL   Cl45 7853   1.931   5.784   5.085 -0.4830 -0.2435 -0.2739
   65MOL   Cl46 7854   1.685   5.926   5.090 -0.1766  0.0365  0.0921
   65MOL    C47 7855   1.725   5.719   5.255  0.5924  0.1446  0.3174
   65MOL    H48 7856   1.669   5.759   5.340 -0.1183 -0.3693  0.1034
   65MOL    H49 7857   1.651   5.673   5.189  0.7568 -1.9231  1.5408
   65MOL    C50 7858   1.800   5.589   5.304 -0.7491 -0.3214 -0.3504
   65MOL   Cl51 7859   1.681   5.518   5.421  0.2803  0.2735 -0.2739
   65MOL   Cl52 7860   1.947   5.634   5.391  0.3053 -0.3927  0.1197
   65MOL    C53 7861   1.828   5.487   5.193  0.0053  0.1724  0.9363
   65MOL    H54 7862   1.732   5.460   5.148 -0.1966  0.0127  1.4659
   65MOL    H55 7863   1.879   5.540   5.112 -0.4422  0.9122  1.1368
   65MOL    C56 7864   1.919   5.360   5.213  0.3284 -0.3058 -0.1312
   65MOL   Cl57 7865   2.082   5.427   5.223 -0.3180 -0.1704 -0.4665
   65MOL   Cl58 7866   1.916   5.271   5.058 -0.1016  0.0710 -0.7469
   65MOL    C59 7867   1.887   5.271   5.342  0.1532  0.1553  0.7665
   65MOL    H60 7868   1.978   5.212   5.355 -0.1512 -0.9215 -1.7409
   65MOL    H61 7869   1.874   5.326   5.435  1.4857  0.1789  0.9485
   65MOL    C62 7870   1.779   5.162   5.340  0.2460 -0.4184  0.1513
   65MOL   Cl63 7871   1.831   5.035   5.226 -0.2562 -0.0208  0.0490
   65MOL   Cl64 7872   1.633   5.229   5.271  0.0353 -0.2927  0.0308
   65MOL    C65 7873   1.738   5.085   5.476 -0.6334 -0.4367 -0.6499
   65MOL    H66 7874   1.671   5.163   5.513 -3.7456 -3.3643  0.1204
   65MOL    H67 7875   1.676   4.999   5.455 -0.3606 -0.9461  0.5632
   65MOL    C68 7876   1.857   5.042   5.575  0.5536 -0.4493  0.0107
   65MOL   Cl69 7877   1.952   5.180   5.635 -0.2820  0.1007  0.2210
   65MOL   Cl70 7878   1.969   4.937   5.496  0.2155 -0.4336 -0.1460
   65MOL    C71 7879   1.805   4.972   5.706 -0.5265  0.3296 -0.2825
   65MOL    H72 7880   1.794   4.867   5.682  1.4737  0.1185 -0.3681
   65MOL    H73 7881   1.895   4.968   5.768 -2.0140  2.0428  2.0660
   65MOL    C74 7882   1.677   5.012   5.784  0.5165  0.1591 -0.1144
   65MOL   Cl75 7883   1.539   4.957   5.690 -0.0446  0.3990 -0.2792
   65MOL   Cl76 7884   1.686   5.186   5.792  0.5470  0.0212  0.1733
   65MOL    C77 7885   1.681   4.949   5.922 -0.4365 -1.0953  0.4307
   65MOL    H78 7886   1.688   4.841   5.925  0.3513 -1.0829 -0.5202
   65MOL    H79 7887   1.767   4.985   5.979 -2.5285 -1.0030  3.7063
   65MOL    C80 7888   1.559   4.979   6.023 -0.6147 -0.0645 -0.6821
   65MOL   Cl81 7889   1.620   4.958   6.190  0.0970 -0.1105 -0.1068
   65MOL   Cl82 7890   1.433   4.849   6.001 -0.3071 -0.3080 -0.5095
   65MOL    C83 7891   1.488   5.117   6.004  0.6157  0.5706  0.0583
   65MOL    H84 7892   1.564   5.193   6.022  0.6146  0.4385  0.6439
   65MOL    H85 7893   1.456   5.114   5.900 -0.4493  0.2505  0.3900
   65MOL    C86 7894   1.364   5.167   6.083 -0.3135 -0.3438 -0.3852
   65MOL   Cl87 7895   1.219   5.089   6.014 -0.1094  0.0875  0.0585
   65MOL   Cl88 7896   1.354   5.345   6.048 -0.1708 -0.1982  0.1657
   65MOL    C89 7897   1.367   5.151   6.232  0.1432  0.3949 -0.0662
   65MOL    H90 7898   1.364   5.044   6.250  1.7670  0.7466  2.6183
   65MOL    H91 7899   1.459   5.186   6.278  0.2788  0.0542 -0.0787
   65MOL    C92 7900   1.253   5.192   6.324 -0.2134  0.9028 -0.8267
   65MOL   Cl93 7901   1.128   5.059   6.316 -0.1304  0.3051  0.0456
   65MOL   Cl94 7902   1.170   5.349   6.277 -0.2482  0.0150  0.0353
   65MOL    C95 7903   1.308   5.201   6.471 -0.5353  0.4626  0.2378
   65MOL    H96 7904   1.346   5.101   6.491  2.1414  1.2699 -0.5721
   65MOL    H97 7905   1.389   5.274   6.467 -0.6295  0.4943 -1.4848
   65MOL    C98 7906   1.229   5.242   6.598  0.0078 -0.4801 -0.4196
   65MOL   Cl99 7907   1.064   5.182   6.602  0.0773 -0.3361 -0.2968
   65MOL  Cl100 7908   1.210   5.416   6.593 -0.1733  0.2347 -0.3144
   65MOL   C101 7909   1.297   5.191   6.737 -0.7283  0.3150 -0.1231
   65MOL   H102 7910   1.235   5.213   6.824 -1.0703 -1.9766  0.2463
   65MOL   H103 7911   1.292   5.083   6.727 -1.1237  0.4127 -1.0363
   65MOL   C104 7912   1.448   5.229   6.760  0.1050 -0.1244 -0.6654
   65MOL  Cl105 7913   1.471   5.414   6.746  0.2031  0.1953  0.0640
   65MOL  Cl106 7914   1.557   5.162   6.636 -0.1998 -0.0961  0.0515
   65MOL   C107 7915   1.494   5.198   6.905 -0.2617  0.3190 -0.0241
   65MOL   H108 7916   1.602   5.212   6.902 -0.1027 -1.0418 -1.0172
   65MOL   H109 7917   1.460   5.283   6.964  1.4657  0.7867  0.3387
   65MOL   C110 7918   1.474   5.062   6.974  0.5402  0.1224 -0.6458
   65MOL  Cl111 7919   1.541   4.942   6.861 -0.0260  0.4855  0.1540
   65MOL  Cl112 7920   1.300   5.029   7.005  0.3824  0.3830  0.0234
   65MOL   C113 7921   1.555   5.046   7.097 -0.2764  0.0801 -0.4877
   65MOL   H114 7922   1.535   4.941   7.117 -0.0466 -0.3321 -2.2793
   65MOL   H115 7923   1.662   5.041   7.076 -0.0221 -0.0961  0.8306
   65MOL   C116 7924   1.522   5.123   7.225 -0.3252  0.2016  1.0107
   65MOL  Cl117 7925   1.549   5.300   7.214 -0.2782  0.4094  0.0806
   65MOL  Cl118 7926   1.650   5.051   7.333  0.1364 -0.4009 -0.2081
   65MOL   C119 7927   1.388   5.096   7.301  0.4475  0.3645  1.2319
   65MOL   H120 7928   1.375   4.989   7.316 -3.8200  0.4881 -0.8605
   65MOL   H121 7929   1.392   5.149   7.396  0.9752  1.3973  0.6446
   65MOL   H122 7930   1.295   5.120   7.249 -1.7262  0.2851  4.9053
   66MOL     C1 7931   4.968   1.566   2.774 -0.2505 -0.1905  0.0281
   66MOL    Cl2 7932   5.131   1.486   2.804  0.7314  0.2541 -0.2395
   66MOL    Cl3 7933   4.917   1.641   2.931  0.1803  0.1378 -0.2020
   66MOL     C4 7934   4.973   1.663   2.657 -0.5796 -0.0334  0.4141
   66MOL     H5 7935   4.873   1.703   2.641 -0.6896 -0.4242  0.0970
   66MOL     H6 7936   5.035   1.751   2.667  0.7290 -0.7814 -0.8659
   66MOL     H7 7937   4.902   1.482   2.750 -1.4649  0.4492  1.0668
   66MOL     C8 7938   5.000   1.599   2.516 -0.2049  0.0912 -0.1487
   66MOL    Cl9 7939   4.921   1.437   2.504 -0.5060 -0.4568 -0.2649
   66MOL   Cl10 7940   5.174   1.586   2.511 -0.3292  0.0139 -0.3083
   66MOL    C11 7941   4.970   1.676   2.383 -0.4306 -0.0952  0.2624
   66MOL    H12 7942   5.039   1.761   2.383  1.1920 -1.3724 -0.2857
   66MOL    H13 7943   4.993   1.604   2.304 -0.0106 -1.0586  1.2521
   66MOL    C14 7944   4.834   1.738   2.349  0.0832 -0.0923 -0.8286
   66MOL   Cl15 7945   4.808   1.881   2.449 -0.0599  0.0164 -0.2197
   66MOL   Cl16 7946   4.699   1.626   2.383 -0.2496 -0.1957  0.0672
   66MOL    C17 7947   4.840   1.806   2.209 -0.1994 -0.5086  0.3449
   66MOL    H18 7948   4.744   1.858   2.204  1.0398  2.0392  1.8850
   66MOL    H19 7949   4.912   1.887   2.224 -1.1454  0.8103 -1.9703
   66MOL    C20 7950   4.869   1.732   2.080 -0.9901 -0.3014  0.3440
   66MOL   Cl21 7951   5.046   1.701   2.076 -0.0005  0.2119  0.1391
   66MOL   Cl22 7952   4.845   1.869   1.962 -0.3077 -0.1595 -0.2701
   66MOL    C23 7953   4.778   1.610   2.045 -0.5174  0.3581 -0.4597
   66MOL    H24 7954   4.817   1.546   2.124  1.4519  2.1168  0.0491
   66MOL    H25 7955   4.681   1.644   2.082 -0.4096  0.6309 -0.4220
   66MOL    C26 7956   4.779   1.532   1.912  0.0073  0.1273 -0.2597
   66MOL   Cl27 7957   4.717   1.638   1.789  0.2845  0.2589 -0.0396
   66MOL   Cl28 7958   4.661   1.401   1.930 -0.2015 -0.0412 -0.0718
   66MOL    C29 7959   4.927   1.475   1.872  0.0684 -0.0202 -0.3250
   66MOL    H30 7960   4.997   1.556   1.854  1.0201 -1.0674 -1.4438
   66MOL    H31 7961   4.965   1.416   1.955  0.1076  0.5549  0.0700
   66MOL    C32 7962   4.944   1.371   1.760 -0.6541  0.6111 -0.0476
   66MOL   Cl33 7963   4.869   1.422   1.611 -0.1678 -0.2606  0.0975
   66MOL   Cl34 7964   4.859   1.219   1.798  0.0773 -0.2342 -0.0651
   66MOL    C35 7965   5.099   1.343   1.725  0.0974 -0.0584 -0.2764
   66MOL    H36 7966   5.099   1.267   1.647 -0.4387 -0.1058 -0.2266
   66MOL    H37 7967   5.131   1.432   1.671  1.3965 -1.5008 -1.9288
   66MOL    C38 7968   5.207   1.308   1.832  0.0378 -0.3137 -0.3856
   66MOL   Cl39 7969   5.160   1.187   1.949 -0.1068 -0.1682  0.1503
   66MOL   Cl40 7970   5.258   1.454   1.925 -0.3273 -0.2275  0.1373
   66MOL    C41 7971   5.327   1.247   1.759 -0.5540  0.0482  0.2630
   66MOL    H42 7972   5.392   1.188   1.823 -0.9691  0.4740  1.0780
   66MOL    H43 7973   5.294   1.163   1.698  2.8623 -1.4270  0.3188
   66MOL    C44 7974   5.432   1.328   1.672  0.2642 -0.4200  0.3969
   66MOL   Cl45 7975   5.354   1.442   1.551 -0.1719 -0.1378 -0.0486
   66MOL   Cl46 7976   5.514   1.195   1.579  0.2475 -0.3515 -0.0688
   66MOL    C47 7977   5.539   1.408   1.759 -0.6464  0.3730  0.0732
   66MOL    H48 7978   5.518   1.445   1.860 -3.2646 -1.7901  0.3604
   66MOL    H49 7979   5.616   1.332   1.768 -1.1920 -0.1627  0.2116
   66MOL    C50 7980   5.611   1.538   1.714 -0.2186 -0.5793 -0.4070
   66MOL   Cl51 7981   5.487   1.668   1.732 -0.0446 -0.1344  0.1724
   66MOL   Cl52 7982   5.647   1.536   1.539 -0.2722 -0.1325 -0.0447
   66MOL    C53 7983   5.726   1.593   1.795  0.8581  0.1001  0.5295
   66MOL    H54 7984   5.769   1.680   1.746 -0.5219  0.5347  0.0781
   66MOL    H55 7985   5.678   1.628   1.887  3.1650 -0.5869  2.0634
   66MOL    C56 7986   5.848   1.499   1.842  0.4810 -0.3324 -0.2792
   66MOL   Cl57 7987   5.801   1.380   1.969 -0.0347 -0.1098  0.0724
   66MOL   Cl58 7988   5.959   1.617   1.917  0.5000  0.1523  0.0050
   66MOL    C59 7989   5.906   1.433   1.713  0.2804  0.7523 -0.1394
   66MOL    H60 7990   5.821   1.375   1.675 -0.4300  1.3139  0.5808
   66MOL    H61 7991   5.915   1.502   1.630  1.1120  0.1711 -0.5330
   66MOL    C62 7992   6.039   1.347   1.714  0.2333 -0.4306 -0.2003
   66MOL   Cl63 7993   6.083   1.313   1.545  0.0935 -0.1604 -0.2844
   66MOL   Cl64 7994   6.000   1.191   1.792 -0.1818 -0.1593 -0.1334
   66MOL    C65 7995   6.157   1.417   1.786 -0.7243  0.0593  0.5262
   66MOL    H66 7996   6.148   1.525   1.773  0.2105  0.2990  1.7231
   66MOL    H67 7997   6.138   1.407   1.893 -0.7062 -0.7957  0.4462
   66MOL    C68 7998   6.309   1.376   1.774  0.2763  0.0812  0.8940
   66MOL   Cl69 7999   6.402   1.458   1.898 -0.2319 -0.1718  0.0994
   66MOL   Cl70 8000   6.372   1.435   1.618  0.4176  0.0220 -0.0252
   66MOL    C71 8001   6.319   1.221   1.786  0.3306 -0.3446  0.0878
   66MOL    H72 8002   6.263   1.188   1.874  1.4585 -1.4757  0.3839
   66MOL    H73 8003   6.270   1.180   1.698  0.0588  0.6488 -0.2377
   66MOL    C74 8004   6.454   1.157   1.815 -0.2495  0.2224 -0.4768
   66MOL   Cl75 8005   6.422   0.984   1.783 -0.1132 -0.0086 -0.0285
   66MOL   Cl76 8006   6.489   1.155   1.989  0.7285  0.1158  0.2439
   66MOL    C77 8007   6.572   1.209   1.730 -0.3502 -0.1432  0.2683
   66MOL    H78 8008   6.528   1.196   1.631 -0.0098  0.2866  0.0586
   66MOL    H79 8009   6.591   1.315   1.748 -1.1571  0.2261 -1.0369
   66MOL    C80 8010   6.717   1.130   1.723  0.3726 -0.7264 -0.1386
   66MOL   Cl81 8011   6.706   1.010   1.591 -0.1271  0.1307 -0.1580
   66MOL   Cl82 8012   6.761   1.030   1.859  0.3067  0.0968 -0.0817
   66MOL    C83 8013   6.828   1.227   1.695 -0.2706 -0.5953 -0.4841
   66MOL    H84 8014   6.914   1.161   1.683 -0.8231 -1.2926 -0.7060
   66MOL    H85 8015   6.802   1.265   1.596 -1.0712  2.4377  0.8524
   66MOL    C86 8016   6.855   1.356   1.786 -0.1681 -0.0747 -0.3758
   66MOL   Cl87 8017   6.773   1.503   1.719 -0.0935  0.1925  0.2811
   66MOL   Cl88 8018   7.033   1.384   1.770  0.1205 -0.1672  0.3053
   66MOL    C89 8019   6.813   1.345   1.936  0.6398 -0.1444 -0.5491
   66MOL    H90 8020   6.715   1.299   1.948  1.0643 -0.3744  2.1201
   66MOL    H91 8021   6.883   1.271   1.973  0.7020 -0.5849 -1.5199
   66MOL    C92 8022   6.838   1.458   2.040  0.4824  0.3251 -0.1604
   66MOL   Cl93 8023   6.779   1.402   2.194 -0.1928  0.0777 -0.0691
   66MOL   Cl94 8024   6.719   1.599   2.015 -0.1464  0.0225 -0.1929
   66MOL    C95 8025   6.984   1.508   2.049  0.5697  0.2184 -0.5815
   66MOL    H96 8026   7.043   1.420   2.023  1.8317  0.8407  0.1367
   66MOL    H97 8027   6.996   1.567   1.958 -0.8049  1.1910 -0.1427
   66MOL    C98 8028   7.052   1.569   2.173 -0.3146  0.0210  0.2103
   66MOL   Cl99 8029   7.206   1.637   2.117 -0.2535  0.3400 -0.3163
   66MOL  Cl100 8030   7.101   1.427   2.267 -0.1760 -0.0645 -0.0706
   66MOL   C101 8031   6.968   1.676   2.252 -0.1142 -0.1642 -0.0729
   66MOL   H102 8032   6.907   1.732   2.182  0.7491  1.7296  0.6594
   66MOL   H103 8033   6.910   1.613   2.320 -1.3798  0.1853 -0.8101
   66MOL   C104 8034   7.031   1.779   2.350 -0.0035 -0.1906 -0.7844
   66MOL  Cl105 8035   7.175   1.714   2.446  0.0780 -0.1134  0.1313
   66MOL  Cl106 8036   6.895   1.821   2.464  0.2150  0.2290 -0.2135
   66MOL   C107 8037   7.085   1.902   2.275 -0.3062  0.2247 -0.5920
   66MOL   H108 8038   7.145   1.872   2.189  0.2705  0.1669 -0.1718
   66MOL   H109 8039   6.998   1.951   2.231 -0.7200  1.5107  1.5691
   66MOL   C110 8040   7.174   2.007   2.354  0.3489 -0.3258 -0.3821
   66MOL  Cl111 8041   7.340   1.959   2.330  0.1748  0.2702  0.1416
   66MOL  Cl112 8042   7.138   2.005   2.523  0.1753  0.5163  0.0921
   66MOL   C113 8043   7.150   2.143   2.293  0.2518 -0.0684 -0.2458
   66MOL   H114 8044   7.154   2.136   2.185  0.1353  2.1673 -0.4158
   66MOL   H115 8045   7.044   2.157   2.313 -0.0602 -2.3364 -0.1761
   66MOL   C116 8046   7.240   2.265   2.340 -0.1103  0.3680  0.2479
   66MOL  Cl117 8047   7.139   2.396   2.285 -0.1568 -0.2745 -0.2880
   66MOL  Cl118 8048   7.393   2.280   2.253  0.2266  0.3237  0.2049
   66MOL   C119 8049   7.262   2.295   2.489  0.2052  0.2672  0.0990
   66MOL   H120 8050   7.173   2.311   2.551 -0.2954  0.6827 -0.7203
   66MOL   H121 8051   7.321   2.218   2.538  0.3619  0.7279  0.6374
   66MOL   H122 8052   7.308   2.393   2.499 -2.1461  1.6010 -1.6805
   67MOL     C1 8053   8.990   1.040   1.180  0.1733 -0.4888  0.3364
   67MOL    Cl2 8054   8.861   1.140   1.103  0.2414 -0.3988 -0.1798
   67MOL    Cl3 8055   8.937   0.863   1.200  0.2537  0.1785  0.0710
   67MOL     C4 8056   9.124   1.049   1.102 -0.1510 -0.3018  0.0384
   67MOL     H5 8057   9.178   0.955   1.113 -0.6161 -0.7210 -1.1773
   67MOL     H6 8058   9.097   1.050   0.997  0.9817 -2.3636 -0.2950
   67MOL     H7 8059   9.004   1.077   1.281 -1.8682  0.7009  0.2178
   67MOL     C8 8060   0.034   1.173   1.149 -0.7694  1.0993  0.4634
   67MOL    Cl9 8061   0.048   1.178   1.326 -0.1760 -0.4558  0.0418
   67MOL   Cl10 8062   9.141   1.325   1.109 -0.7554  0.2508 -0.1694
   67MOL    C11 8063   0.185   1.166   1.101 -0.6282  0.5499 -0.0038
   67MOL    H12 8064   0.246   1.229   1.166  0.9769  1.6533 -2.4903
   67MOL    H13 8065   0.216   1.064   1.125 -1.0918  0.4881  0.3397
   67MOL    C14 8066   0.230   1.197   0.954  0.3558 -0.1817  0.1457
   67MOL   Cl15 8067   0.216   1.370   0.929 -0.5009  0.2047 -0.0260
   67MOL   Cl16 8068   0.116   1.118   0.844  0.3174 -0.0811  0.3389
   67MOL    C17 8069   0.371   1.148   0.918  0.1338  0.2012 -0.2366
   67MOL    H18 8070   0.372   1.044   0.889  1.5655  0.1500 -0.0622
   67MOL    H19 8071   0.398   1.206   0.830  0.9229 -0.3750 -0.3777
   67MOL    C20 8072   0.492   1.143   1.018 -0.1306  0.9882 -0.7448
   67MOL   Cl21 8073   0.456   1.045   1.169  0.1719  0.0793  0.1536
   67MOL   Cl22 8074   0.522   1.311   1.073 -0.2009  0.2220  0.1667
   67MOL    C23 8075   0.619   1.076   0.954  0.0144 -0.3614 -0.1728
   67MOL    H24 8076   0.578   0.998   0.890  0.1778 -1.4481  1.0315
   67MOL    H25 8077   0.654   1.146   0.878 -0.6183  0.6262  0.4352
   67MOL    C26 8078   0.743   1.024   1.032 -0.0439 -0.2064  0.4381
   67MOL   Cl27 8079   0.698   0.862   1.103  0.0191  0.2621  0.1669
   67MOL   Cl28 8080   0.771   1.142   1.165 -0.2147 -0.3020  0.3574
   67MOL    C29 8081   0.873   1.010   0.953  0.0430  0.0941  0.2599
   67MOL    H30 8082   0.927   1.104   0.956  0.2903 -0.0794  1.8474
   67MOL    H31 8083   0.921   0.939   1.021 -2.4218 -0.0764  1.9250
   67MOL    C32 8084   0.873   0.946   0.816  0.5315 -0.0559 -0.2246
   67MOL   Cl33 8085   0.807   1.074   0.700 -0.2141  0.4331 -0.1355
   67MOL   Cl34 8086   0.760   0.805   0.813  0.1001 -0.0514  0.2061
   67MOL    C35 8087   1.011   0.907   0.756 -0.0735  0.0971  0.1278
   67MOL    H36 8088   0.993   0.825   0.686 -1.5381  0.6958 -0.2072
   67MOL    H37 8089   1.057   0.995   0.711 -0.2337 -0.2369 -0.7048
   67MOL    C38 8090   1.126   0.841   0.839  0.6163 -0.5708  0.3893
   67MOL   Cl39 8091   1.057   0.698   0.913  0.0928  0.0922 -0.5761
   67MOL   Cl40 8092   1.187   0.954   0.969 -0.1573  0.1764 -0.2788
   67MOL    C41 8093   1.255   0.808   0.751  0.8013 -0.8712 -0.6710
   67MOL    H42 8094   1.223   0.765   0.655  1.9298 -0.1168 -1.3927
   67MOL    H43 8095   1.295   0.907   0.731 -2.5384  0.6987  0.1691
   67MOL    C44 8096   1.372   0.709   0.795 -0.3901 -0.2887  0.7427
   67MOL   Cl45 8097   1.524   0.735   0.692  0.1566  0.2445 -0.3054
   67MOL   Cl46 8098   1.319   0.540   0.779  0.0842  0.0035  0.3861
   67MOL    C47 8099   1.417   0.732   0.942  0.1598 -0.5945 -0.2761
   67MOL    H48 8100   1.462   0.830   0.928 -1.1802 -0.2417 -2.3297
   67MOL    H49 8101   1.337   0.746   1.014  0.4041 -2.5271  0.4076
   67MOL    C50 8102   1.511   0.642   1.037  0.1218 -0.4034  0.6659
   67MOL   Cl51 8103   1.425   0.489   1.087 -0.1056 -0.4553  0.0174
   67MOL   Cl52 8104   1.530   0.745   1.177 -0.1226  0.2073 -0.1256
   67MOL    C53 8105   1.644   0.615   0.970  0.1963  0.0197  0.4258
   67MOL    H54 8106   1.638   0.561   0.875  0.1876 -0.7983  0.8879
   67MOL    H55 8107   1.684   0.710   0.935 -1.3201  0.3167 -0.5642
   67MOL    C56 8108   1.763   0.536   1.040 -0.1551 -0.2696  0.2386
   67MOL   Cl57 8109   1.898   0.537   0.930  0.3159  0.1685 -0.2733
   67MOL   Cl58 8110   1.715   0.364   1.041  0.4804  0.0479 -0.1821
   67MOL    C59 8111   1.803   0.589   1.178  0.0422 -0.3672 -0.4509
   67MOL    H60 8112   1.797   0.698   1.190  1.5862 -0.4003  0.7334
   67MOL    H61 8113   1.726   0.559   1.249 -0.9297 -0.4247 -1.5182
   67MOL    C62 8114   1.940   0.543   1.254  0.1348  0.2192  0.7274
   67MOL   Cl63 8115   1.917   0.586   1.426  0.0327 -0.0716 -0.0396
   67MOL   Cl64 8116   2.073   0.637   1.194 -0.1285  0.7164  0.3067
   67MOL    C65 8117   1.973   0.387   1.251 -0.2286  0.3001  0.1303
   67MOL    H66 8118   1.891   0.342   1.306  1.6751 -3.5399 -0.0219
   67MOL    H67 8119   1.958   0.357   1.148  1.5043  0.5376 -0.2203
   67MOL    C68 8120   2.105   0.315   1.294 -0.2119  0.3997  0.1205
   67MOL   Cl69 8121   2.149   0.361   1.456 -0.1227  0.2484 -0.2338
   67MOL   Cl70 8122   2.234   0.353   1.176  0.3032  0.0915  0.1952
   67MOL    C71 8123   2.078   0.161   1.303  1.4519  0.4411 -0.2308
   67MOL    H72 8124   2.026   0.139   1.396  1.4239 -0.0822 -0.3703
   67MOL    H73 8125   2.006   0.128   1.229  0.8008 -0.9991  1.0345
   67MOL    C74 8126   2.187   0.056   1.278  0.4148  0.2149  0.5673
   67MOL   Cl75 8127   2.216   0.048   1.104 -0.2508 -0.3385  0.1336
   67MOL   Cl76 8128   2.134   9.074   1.330  0.1291 -0.0217 -0.0976
   67MOL    C77 8129   2.318   0.095   1.359  0.4166  0.5788 -0.2163
   67MOL    H78 8130   2.347   0.197   1.336 -0.2760  0.5308 -1.3143
   67MOL    H79 8131   2.308   0.091   1.467 -0.5733  0.0132 -0.3219
   67MOL    C80 8132   2.450   0.015   1.332 -0.1401 -0.2332  0.0027
   67MOL   Cl81 8133   2.495   9.163   1.155  0.2503  0.5160  0.0866
   67MOL   Cl82 8134   2.454   9.030   1.407  0.1190 -0.0589 -0.0483
   67MOL    C83 8135   2.577   0.088   1.389 -0.1268  1.1004  0.3627
   67MOL    H84 8136   2.570   0.064   1.495 -0.9792 -0.4490 -0.0301
   67MOL    H85 8137   2.662   0.036   1.344 -2.3852  0.5940 -3.5983
   67MOL    C86 8138   2.619   0.240   1.381 -0.0987 -0.0606  0.4693
   67MOL   Cl87 8139   2.499   0.353   1.464  0.1069 -0.3061  0.0880
   67MOL   Cl88 8140   2.622   0.299   1.214 -0.4173 -0.1092  0.6382
   67MOL    C89 8141   2.762   0.271   1.437  0.2449 -0.1550  0.3139
   67MOL    H90 8142   2.833   0.247   1.358  1.3878 -0.0684  1.2963
   67MOL    H91 8143   2.764   0.380   1.442  3.2192 -0.1362 -0.2139
   67MOL    C92 8144   2.814   0.217   1.572 -0.5754 -0.0148 -0.5267
   67MOL   Cl93 8145   2.966   0.310   1.583 -0.0870 -0.0331 -0.1162
   67MOL   Cl94 8146   2.854   0.046   1.560  0.5577  0.3068  0.1784
   67MOL    C95 8147   2.728   0.256   1.708  0.1288 -0.0936  0.3993
   67MOL    H96 8148   2.702   0.361   1.723 -0.0003 -0.2218  1.0664
   67MOL    H97 8149   2.628   0.218   1.689 -0.4958  1.6482  0.1326
   67MOL    C98 8150   2.775   0.208   1.854 -0.2259 -0.4605  0.2410
   67MOL   Cl99 8151   2.696   0.317   1.969  0.1107 -0.4492  0.3503
   67MOL  Cl100 8152   2.946   0.238   1.886  0.2836 -0.0886  0.1547
   67MOL   C101 8153   2.756   0.061   1.902 -0.0204 -0.3082 -0.6655
   67MOL   H102 8154   2.815   0.000   1.833  2.0090  1.5165 -0.5779
   67MOL   H103 8155   2.800   0.051   2.001  2.7899  2.0309 -1.5959
   67MOL   C104 8156   2.617   9.168   1.912 -0.5709  0.5366 -0.2370
   67MOL  Cl105 8157   2.523   9.178   1.765 -0.1197 -0.4138 -0.2156
   67MOL  Cl106 8158   2.507   0.054   2.041  0.3099 -0.0587 -0.3858
   67MOL   C107 8159   2.635   9.018   1.931 -0.1777 -0.2603  0.2089
   67MOL   H108 8160   2.536   8.974   1.918 -0.3745 -0.1210  1.1906
   67MOL   H109 8161   2.680   8.979   1.840  1.5237  1.6900  0.1920
   67MOL   C110 8162   2.707   8.952   2.057 -0.0484  0.0155 -0.2891
   67MOL  Cl111 8163   2.637   8.997   2.216  0.3918  0.4456  0.0356
   67MOL  Cl112 8164   2.876   9.001   2.050  0.4163 -0.4987 -0.4613
   67MOL   C113 8165   2.704   8.796   2.054 -0.6305  0.7431 -0.1999
   67MOL   H114 8166   2.770   8.757   2.132  1.1206  2.1859 -0.9187
   67MOL   H115 8167   2.604   8.769   2.087 -0.8016 -1.2750 -2.3082
   67MOL   C116 8168   2.741   8.720   1.929 -0.2960  0.0275 -0.7734
   67MOL  Cl117 8169   2.613   8.729   1.805 -0.4647 -0.1710 -0.0637
   67MOL  Cl118 8170   2.745   8.550   1.972  0.0211 -0.2120 -0.1409
   67MOL   C119 8171   2.878   8.758   1.866  0.5061 -0.1997  0.2714
   67MOL   H120 8172   2.901   8.705   1.773 -0.9069  1.2468 -0.9492
   67MOL   H121 8173   2.892   8.862   1.836 -0.6383  0.1647  0.9752
   67MOL   H122 8174   2.949   8.731   1.943 -0.9192  1.1042  2.0792
   68MOL     C1 8175   0.197   6.732   0.561  0.3098  0.0866 -0.7178
   68MOL    Cl2 8176   0.031   6.795   0.590 -0.2783  0.4635  0.1981
   68MOL    Cl3 8177   0.272   6.831   0.429 -0.6726 -0.0085  0.3958
   68MOL     C4 8178   0.293   6.752   0.689  0.9704 -0.1831  0.1609
   68MOL     H5 8179   0.395   6.736   0.653  1.8060 -0.7959  2.6871
   68MOL     H6 8180   0.279   6.857   0.716 -1.0083  0.3223 -2.5462
   68MOL     H7 8181   0.191   6.628   0.527 -3.6041  0.0681 -0.1821
   68MOL     C8 8182   0.277   6.666   0.812  0.2019  0.2962  0.2515
   68MOL    Cl9 8183   0.416   6.711   0.912 -0.1077 -0.0767 -0.3219
   68MOL   Cl10 8184   0.302   6.503   0.758  0.2044  0.1802  0.4280
   68MOL    C11 8185   0.134   6.673   0.877 -0.3676  0.0270  0.1905
   68MOL    H12 8186   0.099   6.777   0.880  2.0284  0.8654  0.4496
   68MOL    H13 8187   0.074   6.610   0.812  1.1064 -1.6946  0.4975
   68MOL    C14 8188   0.117   6.634   1.024 -0.8690 -0.4917  0.8674
   68MOL   Cl15 8189   9.118   6.641   1.031 -0.3997  0.0020  0.2764
   68MOL   Cl16 8190   0.191   6.756   1.132 -0.0414  0.1133  0.0138
   68MOL    C17 8191   0.168   6.486   1.045  0.7459 -0.3645 -0.7487
   68MOL    H18 8192   0.116   6.429   0.967  1.3776 -0.0031 -1.4423
   68MOL    H19 8193   0.269   6.481   1.004  0.6725 -0.4114 -0.9266
   68MOL    C20 8194   0.164   6.403   1.173  0.0531  0.6277  0.3266
   68MOL   Cl21 8195   9.175   6.378   1.212 -0.1234 -0.2186  0.0363
   68MOL   Cl22 8196   0.251   6.498   1.300 -0.0681  0.1632  0.2946
   68MOL    C23 8197   0.227   6.262   1.179 -0.5638 -0.1390 -0.1466
   68MOL    H24 8198   0.335   6.277   1.168 -0.2900  0.3949  2.8010
   68MOL    H25 8199   0.207   6.237   1.283 -1.3857 -0.8558 -0.4805
   68MOL    C26 8200   0.184   6.144   1.094  0.7721 -0.7624  0.1890
   68MOL   Cl27 8201   0.169   6.185   0.921 -0.3736  0.0632  0.0584
   68MOL   Cl28 8202   0.021   6.073   1.138  0.2102 -0.4061 -0.1287
   68MOL    C29 8203   0.293   6.028   1.100  0.8028  1.1986 -0.2666
   68MOL    H30 8204   0.262   5.941   1.042  0.1086  1.2345  0.0451
   68MOL    H31 8205   0.379   6.065   1.045  2.3630 -1.8284  0.0402
   68MOL    C32 8206   0.344   5.975   1.238  0.0075 -1.0632  0.5303
   68MOL   Cl33 8207   0.211   5.971   1.355  0.0875  0.0954 -0.0530
   68MOL   Cl34 8208   0.461   6.091   1.290  0.1555  0.1867 -0.4485
   68MOL    C35 8209   0.401   5.830   1.222 -0.5114  0.2500 -0.4498
   68MOL    H36 8210   0.315   5.764   1.232  1.6488 -3.1706 -3.1897
   68MOL    H37 8211   0.435   5.815   1.119  1.3424  0.0590  0.1835
   68MOL    C38 8212   0.509   5.774   1.319 -0.4517  0.0143  0.1708
   68MOL   Cl39 8213   0.438   5.791   1.480  0.3278 -0.1473 -0.1639
   68MOL   Cl40 8214   0.661   5.852   1.288  0.0491 -0.1047  0.0977
   68MOL    C41 8215   0.531   5.625   1.286  0.4849 -0.1801  0.2495
   68MOL    H42 8216   0.436   5.573   1.289  0.4252 -0.0927 -0.1803
   68MOL    H43 8217   0.573   5.619   1.185  0.6803 -0.8673  0.3636
   68MOL    C44 8218   0.626   5.534   1.376  0.2247 -0.7295 -0.3597
   68MOL   Cl45 8219   0.781   5.608   1.418 -0.1133  0.1131  0.1661
   68MOL   Cl46 8220   0.650   5.400   1.270  0.3215  0.0728  0.2250
   68MOL    C47 8221   0.546   5.478   1.506 -0.9881 -0.5107  0.1539
   68MOL    H48 8222   0.534   5.560   1.577  0.5821  0.1800 -0.3583
   68MOL    H49 8223   0.449   5.454   1.461 -0.1044 -1.1504 -1.4720
   68MOL    C50 8224   0.602   5.365   1.595 -0.3238  0.2203 -0.4742
   68MOL   Cl51 8225   0.773   5.400   1.619  0.3819  0.0086  0.1659
   68MOL   Cl52 8226   0.576   5.199   1.530 -0.1000 -0.1424  0.3603
   68MOL    C53 8227   0.543   5.370   1.739 -0.3054 -0.2171 -0.4945
   68MOL    H54 8228   0.600   5.290   1.787  0.0295  0.8536  0.9052
   68MOL    H55 8229   0.581   5.454   1.796 -0.9593 -0.2253 -0.0469
   68MOL    C56 8230   0.390   5.360   1.780 -0.4640 -0.3529  0.3060
   68MOL   Cl57 8231   0.302   5.230   1.702  0.3219  0.0662 -0.1090
   68MOL   Cl58 8232   0.319   5.509   1.717  0.1275  0.0112  0.1381
   68MOL    C59 8233   0.370   5.366   1.941  0.1659 -0.4119  0.3473
   68MOL    H60 8234   0.404   5.465   1.972 -0.1075 -0.0853 -0.3699
   68MOL    H61 8235   0.263   5.372   1.963 -0.0038  2.8520 -1.0147
   68MOL    C62 8236   0.451   5.268   2.031  0.3972  0.2004  0.2371
   68MOL   Cl63 8237   0.614   5.332   2.062  0.2468 -0.3472  0.3542
   68MOL   Cl64 8238   0.475   5.109   1.956  0.1069 -0.3264  0.0013
   68MOL    C65 8239   0.367   5.241   2.164  0.1582 -0.4028  0.2080
   68MOL    H66 8240   0.283   5.178   2.135  1.9198 -1.9102 -1.7742
   68MOL    H67 8241   0.431   5.172   2.218  0.3591 -1.0776 -0.8776
   68MOL    C68 8242   0.326   5.347   2.269 -0.5817  0.0781  0.3520
   68MOL   Cl69 8243   0.226   5.481   2.214 -0.3183 -0.0732 -0.4817
   68MOL   Cl70 8244   0.470   5.428   2.333 -0.6534  0.1485 -0.1527
   68MOL    C71 8245   0.258   5.282   2.396  0.9400  0.2083 -0.0931
   68MOL    H72 8246   0.321   5.227   2.465  1.0571 -0.8487 -1.0359
   68MOL    H73 8247   0.224   5.371   2.449  1.0923  0.7450 -0.8886
   68MOL    C74 8248   0.132   5.184   2.377 -0.2459 -0.2435 -0.2996
   68MOL   Cl75 8249   0.187   5.028   2.323 -0.2444 -0.2386 -0.1989
   68MOL   Cl76 8250   0.024   5.246   2.247  0.1573  0.0112 -0.1825
   68MOL    C77 8251   0.058   5.187   2.509  0.5230 -0.1962 -0.1783
   68MOL    H78 8252   0.003   5.281   2.517  0.9203  0.2871 -2.8348
   68MOL    H79 8253   9.163   5.109   2.502  0.2434  0.1163 -0.6777
   68MOL    C80 8254   0.132   5.165   2.646  0.4002  0.3861  0.4650
   68MOL   Cl81 8255   0.214   5.307   2.709  0.1195 -0.2212  0.1475
   68MOL   Cl82 8256   0.253   5.041   2.642 -0.2544  0.0873  0.0816
   68MOL    C83 8257   0.027   5.122   2.761 -0.3256 -0.1194  0.0820
   68MOL    H84 8258   9.161   5.031   2.722 -1.8621  0.5964  0.2013
   68MOL    H85 8259   0.086   5.102   2.850 -0.8001  0.8138  0.6143
   68MOL    C86 8260   9.089   5.213   2.809  0.4011 -0.0336 -0.3620
   68MOL   Cl87 8261   8.971   5.208   2.676  0.0753 -0.5382 -0.1174
   68MOL   Cl88 8262   9.127   5.383   2.839 -0.5227  0.3529 -0.1662
   68MOL    C89 8263   9.025   5.144   2.940 -0.6588  0.5176  0.2741
   68MOL    H90 8264   9.012   5.036   2.926  3.0073  0.2343 -1.6425
   68MOL    H91 8265   9.108   5.138   3.010 -0.2838  1.9501 -0.0416
   68MOL    C92 8266   8.898   5.207   3.011 -0.2598  1.1329  0.0952
   68MOL   Cl93 8267   8.890   5.112   3.158 -0.1203 -0.3314  0.0312
   68MOL   Cl94 8268   8.757   5.164   2.924  0.2067 -0.1797 -0.0552
   68MOL    C95 8269   8.892   5.367   3.039  0.3381  0.3220 -0.5679
   68MOL    H96 8270   8.987   5.409   3.070  0.5588 -0.3736 -0.3017
   68MOL    H97 8271   8.859   5.419   2.949  2.6205  0.1131 -1.5682
   68MOL    C98 8272   8.801   5.430   3.147 -0.2171 -0.5627  0.1350
   68MOL   Cl99 8273   8.882   5.381   3.293 -0.2378  0.2688 -0.1586
   68MOL  Cl100 8274   8.640   5.344   3.155 -0.6631 -0.1005  0.2048
   68MOL   C101 8275   8.780   5.588   3.126  0.6412  0.7767  0.2352
   68MOL   H102 8276   8.879   5.630   3.140  0.9622  0.1321 -0.0630
   68MOL   H103 8277   8.749   5.613   3.025  1.8291 -0.4517 -0.4444
   68MOL   C104 8278   8.687   5.671   3.223  0.3923 -0.7002  0.6626
   68MOL  Cl105 8279   8.732   5.841   3.209 -0.1683  0.2598 -0.2816
   68MOL  Cl106 8280   8.709   5.614   3.389 -0.3791  0.3816  0.0839
   68MOL   C107 8281   8.537   5.663   3.169 -0.0397  0.1156  0.1906
   68MOL   H108 8282   8.541   5.701   3.067 -2.1322  1.8695  0.7344
   68MOL   H109 8283   8.498   5.562   3.153  0.2742  0.3549 -2.2313
   68MOL   C110 8284   8.413   5.732   3.237  0.0533  0.2316  0.7527
   68MOL  Cl111 8285   8.450   5.889   3.309  0.0978  0.2599 -0.0300
   68MOL  Cl112 8286   8.379   5.624   3.377  0.0785  0.0600 -0.1636
   68MOL   C113 8287   8.285   5.741   3.140  0.2350  0.1888  0.2652
   68MOL   H114 8288   8.314   5.803   3.055 -0.8704  0.9483  0.4313
   68MOL   H115 8289   8.264   5.641   3.104  2.8369 -1.0646  2.0376
   68MOL   C116 8290   8.138   5.778   3.186  0.1700 -0.4933  0.3174
   68MOL  Cl117 8291   8.066   5.647   3.278  0.3011  0.0399 -0.2578
   68MOL  Cl118 8292   8.044   5.808   3.038  0.3114  0.1360 -0.1127
   68MOL   C119 8293   8.130   5.902   3.266  0.4374  0.5908 -0.2141
   68MOL   H120 8294   8.028   5.935   3.281 -0.8088 -3.4072  0.5683
   68MOL   H121 8295   8.162   5.882   3.368 -0.8592  1.4895  0.3666
   68MOL   H122 8296   8.190   5.984   3.226  0.2421  1.3050  0.9379
   69MOL     C1 8297   5.984   8.481   0.666 -0.2197  0.2290  0.0251
   69MOL    Cl2 8298   6.083   8.392   0.791  0.0981 -0.2273  0.1945
   69MOL    Cl3 8299   5.829   8.414   0.644  0.2687 -0.2485  0.3034
   69MOL     C4 8300   5.952   8.628   0.715 -0.7892 -0.6025 -0.0890
   69MOL     H5 8301   5.846   8.645   0.693 -0.4573 -0.5515 -1.6766
   69MOL     H6 8302   5.974   8.628   0.822  0.7739  0.8340 -0.3888
   69MOL     H7 8303   6.042   8.473   0.574 -0.7845  0.6510 -0.3703
   69MOL     C8 8304   6.037   8.736   0.651 -0.4297  0.6611  0.6740
   69MOL    Cl9 8305   6.001   8.751   0.473  0.5390  0.2784  0.1343
   69MOL   Cl10 8306   6.205   8.687   0.665 -0.4276 -0.0458 -0.2817
   69MOL    C11 8307   6.033   8.873   0.727  0.3440  0.6405  0.3963
   69MOL    H12 8308   6.085   8.855   0.821  0.8239  2.0275  0.4175
   69MOL    H13 8309   6.098   8.945   0.677  0.0519  0.6732  0.0610
   69MOL    C14 8310   5.904   8.952   0.767  0.6972  0.2137 -0.1240
   69MOL   Cl15 8311   5.800   8.847   0.869  0.0060 -0.0845  0.0282
   69MOL   Cl16 8312   5.813   9.011   0.624  0.1706  0.1295  0.3565
   69MOL    C17 8313   5.949   9.070   0.852  0.4949 -0.4263  0.2657
   69MOL    H18 8314   6.000   9.046   0.945 -0.5263  0.9874  1.2110
   69MOL    H19 8315   6.014   9.127   0.784  1.1142 -1.7245 -0.2421
   69MOL    C20 8316   5.855   0.008   0.905  0.5861  0.7085 -0.0826
   69MOL   Cl21 8317   5.970   0.121   1.004 -0.0776 -0.1170 -0.0393
   69MOL   Cl22 8318   5.740   9.117   1.013 -0.3871 -0.6922 -0.0078
   69MOL    C23 8319   5.781   0.088   0.792  0.4241  0.3989 -0.2376
   69MOL    H24 8320   5.842   0.101   0.703  0.9186  1.9947  0.3257
   69MOL    H25 8321   5.698   0.025   0.759  0.0391  0.4225  0.6752
   69MOL    C26 8322   5.731   0.229   0.823  0.1546 -0.3654 -0.7141
   69MOL   Cl27 8323   5.624   0.261   0.676  0.2399  0.0043  0.1718
   69MOL   Cl28 8324   5.858   0.352   0.802  0.0214 -0.2358  0.0212
   69MOL    C29 8325   5.649   0.244   0.955 -0.6108  0.4595 -0.6271
   69MOL    H30 8326   5.559   0.183   0.947 -1.1025  1.0827  0.0821
   69MOL    H31 8327   5.703   0.204   1.040 -2.5058  1.7331  1.2168
   69MOL    C32 8328   5.618   0.390   1.014  0.5257  0.1511 -0.0844
   69MOL   Cl33 8329   5.569   0.506   0.886  0.1773 -0.1702 -0.0848
   69MOL   Cl34 8330   5.743   0.474   1.111 -0.0899 -0.3769  0.0084
   69MOL    C35 8331   5.497   0.378   1.107  0.2252  0.4439 -0.0864
   69MOL    H36 8332   5.493   0.477   1.152  0.3636  0.3731  0.0819
   69MOL    H37 8333   5.410   0.357   1.046 -0.4550 -1.5613  1.4970
   69MOL    C38 8334   5.488   0.279   1.234 -0.0581  1.0427  0.2603
   69MOL   Cl39 8335   5.633   0.281   1.345  0.4791  0.1231 -0.3291
   69MOL   Cl40 8336   5.480   0.101   1.179 -0.2909  0.2931 -0.1861
   69MOL    C41 8337   5.357   0.299   1.317  0.6087 -0.0353  0.3188
   69MOL    H42 8338   5.271   0.256   1.266  0.0583  1.1991  0.1919
   69MOL    H43 8339   5.358   0.223   1.395  0.5645 -0.0983  0.2589
   69MOL    C44 8340   5.303   0.438   1.364 -0.0503  0.4638 -0.1724
   69MOL   Cl45 8341   5.214   0.519   1.237 -0.1057  0.0662  0.0854
   69MOL   Cl46 8342   5.443   0.526   1.420  0.0845 -0.3731  0.2530
   69MOL    C47 8343   5.214   0.427   1.488  0.8433  0.8188  0.5658
   69MOL    H48 8344   5.154   0.337   1.475  1.2477  0.6139  0.1145
   69MOL    H49 8345   5.282   0.402   1.569  1.6006  0.8589 -0.0619
   69MOL    C50 8346   5.111   0.542   1.531 -1.1138 -0.4629  0.4696
   69MOL   Cl51 8347   5.062   0.489   1.692 -0.6515 -0.1444 -0.2541
   69MOL   Cl52 8348   4.965   0.546   1.424 -0.0763 -0.3976  0.2971
   69MOL    C53 8349   5.167   0.688   1.535 -0.8775  0.2449  0.4471
   69MOL    H54 8350   5.273   0.682   1.561 -0.5928  0.9023 -0.5350
   69MOL    H55 8351   5.171   0.718   1.430 -0.7304  1.4710  0.7901
   69MOL    C56 8352   5.089   0.795   1.624 -0.7172 -0.3697 -0.2691
   69MOL   Cl57 8353   5.181   0.947   1.593  0.1271  0.6369  0.3076
   69MOL   Cl58 8354   5.103   0.769   1.798  0.1432  0.0602 -0.1640
   69MOL    C59 8355   4.932   0.825   1.611  1.1034 -0.3843 -0.0087
   69MOL    H60 8356   4.875   0.735   1.630  0.6297  0.1604  1.2091
   69MOL    H61 8357   4.906   0.891   1.694 -0.8386  0.8830 -1.5919
   69MOL    C62 8358   4.866   0.903   1.489 -0.4253 -0.8879  0.1319
   69MOL   Cl63 8359   4.956   0.862   1.337  0.3025  0.3830 -0.4851
   69MOL   Cl64 8360   4.908   1.074   1.483 -0.4603  0.3380  0.1987
   69MOL    C65 8361   4.717   0.869   1.460 -0.5625  0.1618  0.2556
   69MOL    H66 8362   4.700   0.903   1.357 -0.8061  1.1383  0.6156
   69MOL    H67 8363   4.708   0.760   1.458  3.6841 -0.2710 -0.1880
   69MOL    C68 8364   4.607   0.930   1.552  0.6886 -0.7167 -0.3241
   69MOL   Cl69 8365   4.459   0.860   1.488 -0.1574 -0.0395 -0.4365
   69MOL   Cl70 8366   4.597   1.108   1.539 -0.2612  0.1219  0.1992
   69MOL    C71 8367   4.623   0.900   1.707 -0.2507  0.3495 -0.3515
   69MOL    H72 8368   4.667   0.801   1.717  0.2898  0.6967  0.7786
   69MOL    H73 8369   4.694   0.972   1.747 -0.8689  0.2074  1.0185
   69MOL    C74 8370   4.502   0.909   1.807 -0.6958 -0.1280  0.3619
   69MOL   Cl75 8371   4.567   0.868   1.969 -0.1041  0.2747 -0.0065
   69MOL   Cl76 8372   4.391   0.773   1.774 -0.3541  0.1040 -0.1162
   69MOL    C77 8373   4.425   1.047   1.818 -0.4161  0.0708 -0.7822
   69MOL    H78 8374   4.499   1.114   1.862  1.2638 -0.7276 -2.3470
   69MOL    H79 8375   4.416   1.092   1.719 -0.2165  0.2780 -0.7080
   69MOL    C80 8376   4.288   1.074   1.890 -0.4524  0.0084  0.4460
   69MOL   Cl81 8377   4.257   1.258   1.901 -0.0632  0.3451 -0.0336
   69MOL   Cl82 8378   4.314   1.014   2.053 -0.2330  0.2717 -0.1008
   69MOL    C83 8379   4.155   1.004   1.840 -0.4037  0.0885  0.3747
   69MOL    H84 8380   4.166   0.896   1.844  3.8394  0.4493  0.5470
   69MOL    H85 8381   4.074   1.018   1.912  1.0563 -1.2698  2.3346
   69MOL    C86 8382   4.095   1.030   1.703 -0.0632 -0.3676 -0.5619
   69MOL   Cl87 8383   4.017   0.874   1.672  0.3189  0.2374 -0.1234
   69MOL   Cl88 8384   4.220   1.056   1.579  0.0158  0.2310  0.1098
   69MOL    C89 8385   3.997   1.143   1.697  0.0422  0.9273 -0.9785
   69MOL    H90 8386   3.922   1.110   1.769 -1.4478 -0.1884 -2.9638
   69MOL    H91 8387   4.041   1.224   1.755  0.7650  0.7865 -1.3240
   69MOL    C92 8388   3.927   1.202   1.563 -0.0238 -0.3388  0.2282
   69MOL   Cl93 8389   3.813   1.332   1.626 -0.0621  0.0451  0.0805
   69MOL   Cl94 8390   3.831   1.069   1.491 -0.0132  0.1704 -0.2168
   69MOL    C95 8391   4.026   1.248   1.449  0.0238 -0.2699 -0.7237
   69MOL    H96 8392   4.116   1.286   1.499 -0.7495 -0.0188  0.5085
   69MOL    H97 8393   4.053   1.157   1.396  2.3002  0.3649 -0.7254
   69MOL    C98 8394   3.979   1.354   1.346  0.2469  0.1961 -0.3886
   69MOL   Cl99 8395   4.124   1.361   1.234  0.0827  0.5877  0.0581
   69MOL  Cl100 8396   3.979   1.512   1.435 -0.0797  0.1181  0.1728
   69MOL   C101 8397   3.845   1.320   1.281  0.1545  0.4053  0.6126
   69MOL   H102 8398   3.870   1.223   1.237 -0.3010  1.3383 -1.7711
   69MOL   H103 8399   3.763   1.312   1.352  0.2083 -1.3402  0.5165
   69MOL   C104 8400   3.787   1.408   1.165 -0.4531 -0.1673 -0.4277
   69MOL  Cl105 8401   3.900   1.451   1.042 -0.1344 -0.4269  0.1601
   69MOL  Cl106 8402   3.735   1.566   1.230  0.0930 -0.0001  0.0737
   69MOL   C107 8403   3.670   1.352   1.082 -0.4613 -0.5556  1.0456
   69MOL   H108 8404   3.623   1.434   1.028 -0.8049  0.0220  2.1873
   69MOL   H109 8405   3.718   1.299   1.000  0.9346 -2.8999  3.3081
   69MOL   C110 8406   3.558   1.261   1.148 -0.2031  0.1453  0.2356
   69MOL  Cl111 8407   3.498   1.347   1.290  0.0815  0.3827  0.1932
   69MOL  Cl112 8408   3.638   1.116   1.202 -0.2990 -0.5539 -0.0652
   69MOL   C113 8409   3.454   1.233   1.034  0.9651 -0.5222 -0.2527
   69MOL   H114 8410   3.440   1.334   0.995 -1.5612 -0.3988  0.8621
   69MOL   H115 8411   3.492   1.164   0.958  0.2098 -0.1524 -0.9752
   69MOL   C116 8412   3.315   1.174   1.083 -0.4571  0.9413  0.1201
   69MOL  Cl117 8413   3.221   1.142   0.936  0.1109 -0.1506  0.1918
   69MOL  Cl118 8414   3.229   1.296   1.175 -0.1273 -0.2577 -0.3226
   69MOL   C119 8415   3.328   1.043   1.161 -0.1766  0.4449 -0.0616
   69MOL   H120 8416   3.374   1.059   1.259  0.7224  0.0633 -0.4273
   69MOL   H121 8417   3.230   0.999   1.177 -0.0150 -0.2448 -0.9707
   69MOL   H122 8418   3.396   0.973   1.114 -1.5290 -0.2843 -0.9556
   70MOL     C1 8419   5.390   8.896   1.402  0.0109 -0.6163 -0.1317
   70MOL    Cl2 8420   5.281   8.967   1.515  0.2455  0.0111  0.1365
   70MOL    Cl3 8421   5.332   8.936   1.237  0.0168 -0.0636  0.0076
   70MOL     C4 8422   5.529   8.949   1.425 -0.6212 -0.5666 -0.6885
   70MOL     H5 8423   5.536   9.048   1.381  1.2845  0.0130  0.8587
   70MOL     H6 8424   5.549   8.950   1.533  2.1507  0.9263 -1.1857
   70MOL     H7 8425   5.387   8.788   1.415 -0.7685 -0.5814  0.0427
   70MOL     C8 8426   5.654   8.858   1.382 -0.3130 -0.8813  0.6372
   70MOL    Cl9 8427   5.627   8.797   1.219 -0.3848 -0.1286  0.0791
   70MOL   Cl10 8428   5.669   8.725   1.495 -0.5481  0.3384  0.0465
   70MOL    C11 8429   5.781   8.949   1.374 -0.0686 -0.2161  0.0809
   70MOL    H12 8430   5.856   8.881   1.333  1.1927  0.1714  1.7139
   70MOL    H13 8431   5.753   9.012   1.290 -0.5611  0.0900  0.4702
   70MOL    C14 8432   5.840   9.028   1.497 -0.0742  0.0369  0.5723
   70MOL   Cl15 8433   5.839   8.937   1.654 -0.2757 -0.3054  0.0724
   70MOL   Cl16 8434   5.722   9.161   1.529  0.5062 -0.4335 -0.0435
   70MOL    C17 8435   5.983   9.082   1.473  0.0557 -0.6799  0.3415
   70MOL    H18 8436   5.988   9.177   1.419  0.5379 -0.9988 -0.1860
   70MOL    H19 8437   6.015   9.118   1.570  4.0207  3.1577 -2.2302
   70MOL    C20 8438   6.087   8.986   1.422 -0.2500 -0.4955 -0.0694
   70MOL   Cl21 8439   6.071   8.968   1.236  0.1361 -0.0806  0.2166
   70MOL   Cl22 8440   6.094   8.824   1.502  0.6379  0.4629  0.3210
   70MOL    C23 8441   6.225   9.051   1.442  0.9044  0.0282 -0.4099
   70MOL    H24 8442   6.235   9.160   1.442  0.0411  0.1160  0.7330
   70MOL    H25 8443   6.245   9.027   1.547  0.1890  2.4160  0.3209
   70MOL    C26 8444   6.346   8.997   1.363 -0.0945 -0.0629 -0.1179
   70MOL   Cl27 8445   6.488   9.059   1.455 -0.1403 -0.3040  0.1886
   70MOL   Cl28 8446   6.361   9.093   1.214  0.2256  0.0843 -0.6823
   70MOL    C29 8447   6.361   8.843   1.337  0.1656 -0.2949  0.0716
   70MOL    H30 8448   6.345   8.802   1.437 -1.5214  1.9673  0.7485
   70MOL    H31 8449   6.269   8.821   1.283 -0.0243 -0.2322  0.3710
   70MOL    C32 8450   6.493   8.787   1.272 -0.0780 -0.2938  0.1848
   70MOL   Cl33 8451   6.485   8.612   1.269 -0.1615  0.2078  0.0989
   70MOL   Cl34 8452   6.634   8.821   1.381 -0.2321  0.0114 -0.1614
   70MOL    C35 8453   6.549   8.845   1.133  0.1601  0.1196  0.6772
   70MOL    H36 8454   6.548   8.954   1.145 -1.3589  0.0667  1.1588
   70MOL    H37 8455   6.653   8.817   1.119  0.0157 -0.2178  0.2760
   70MOL    C38 8456   6.493   8.801   0.994 -0.5322 -0.0448 -0.0947
   70MOL   Cl39 8457   6.314   8.784   1.019  0.3967 -0.3992  0.0437
   70MOL   Cl40 8458   6.537   8.629   0.953  0.2709 -0.1577 -0.0420
   70MOL    C41 8459   6.504   8.902   0.872 -0.4399 -0.2348  0.3163
   70MOL    H42 8460   6.449   8.844   0.797 -1.2746  1.3410 -0.3153
   70MOL    H43 8461   6.449   8.994   0.889 -0.1363  0.7951 -3.8057
   70MOL    C44 8462   6.649   8.924   0.818 -0.9641 -0.5330  0.5277
   70MOL   Cl45 8463   6.745   8.773   0.802 -0.0040  0.0917  0.1106
   70MOL   Cl46 8464   6.737   9.033   0.929 -0.0477 -0.1844  0.1036
   70MOL    C47 8465   6.650   8.990   0.681  0.1568 -0.2345 -0.2748
   70MOL    H48 8466   6.747   9.035   0.661 -1.6169  3.2908 -1.3566
   70MOL    H49 8467   6.627   8.915   0.605 -2.2562  1.7588 -1.5554
   70MOL    C50 8468   6.565   9.118   0.651  0.0014 -0.0352 -0.7312
   70MOL   Cl51 8469   6.390   9.074   0.641 -0.1738  0.1587  0.0185
   70MOL   Cl52 8470   6.633   9.155   0.488 -0.2142 -0.1388  0.7321
   70MOL    C53 8471   6.589   0.064   0.745 -0.0560 -0.8902  0.3110
   70MOL    H54 8472   6.568   0.039   0.849  1.3960 -0.9811  0.5976
   70MOL    H55 8473   6.695   0.088   0.740 -0.6744  1.6485 -1.1904
   70MOL    C56 8474   6.513   0.201   0.723 -0.0345 -0.2102  0.1034
   70MOL   Cl57 8475   6.353   0.165   0.798 -0.1968 -0.1065  0.1223
   70MOL   Cl58 8476   6.475   0.227   0.549 -0.0177 -0.0468  0.1009
   70MOL    C59 8477   6.556   0.329   0.801 -0.7054 -0.2514  0.7935
   70MOL    H60 8478   6.485   0.408   0.776 -0.0174  0.8309  2.1756
   70MOL    H61 8479   6.532   0.322   0.907  1.6381 -1.4582  1.2680
   70MOL    C62 8480   6.699   0.377   0.791 -0.1734 -0.2828  0.3789
   70MOL   Cl63 8481   6.803   0.277   0.888  0.0664  0.0530  0.2611
   70MOL   Cl64 8482   6.709   0.538   0.865  0.4720  0.4736  0.2620
   70MOL    C65 8483   6.744   0.384   0.641 -0.2169  0.0939  0.1734
   70MOL    H66 8484   6.741   0.282   0.602  1.6396  0.6191 -1.3921
   70MOL    H67 8485   6.671   0.446   0.591 -2.0688 -1.9144  0.2931
   70MOL    C68 8486   6.883   0.436   0.598 -0.4669 -0.2617  0.3969
   70MOL   Cl69 8487   6.881   0.391   0.430  0.2613  0.1230 -0.1493
   70MOL   Cl70 8488   7.018   0.345   0.669 -0.3019  0.0732 -0.1871
   70MOL    C71 8489   6.912   0.587   0.618  0.0298 -0.2043  0.5045
   70MOL    H72 8490   6.818   0.637   0.593  0.2980  0.2244  0.3522
   70MOL    H73 8491   6.932   0.587   0.725  0.9932  0.5761  0.3255
   70MOL    C74 8492   7.023   0.662   0.544 -0.4477  0.3580 -0.2909
   70MOL   Cl75 8493   6.979   0.671   0.368 -0.5085  0.1993 -0.2191
   70MOL   Cl76 8494   7.179   0.582   0.561 -0.0470 -0.2296  0.2505
   70MOL    C77 8495   7.032   0.813   0.583 -0.2812 -0.2152  0.0663
   70MOL    H78 8496   7.125   0.851   0.539 -0.9520  3.5560  1.7181
   70MOL    H79 8497   6.948   0.868   0.542 -1.0704 -0.2314  1.6580
   70MOL    C80 8498   7.046   0.871   0.729 -0.6269  0.2017  0.3673
   70MOL   Cl81 8499   7.157   0.772   0.826 -0.0954  0.1576  0.1010
   70MOL   Cl82 8500   6.888   0.859   0.808  0.3386  0.2047 -0.2137
   70MOL    C83 8501   7.105   1.015   0.733 -0.0205 -0.6316 -0.3955
   70MOL    H84 8502   7.102   1.055   0.834 -3.5893 -1.2724 -0.1796
   70MOL    H85 8503   7.211   1.001   0.709  0.0010 -2.3790  0.6011
   70MOL    C86 8504   7.057   1.132   0.630 -0.2197  0.5978  0.3202
   70MOL   Cl87 8505   6.886   1.150   0.642  0.0217  0.0700 -0.1913
   70MOL   Cl88 8506   7.085   1.089   0.458  0.1644 -0.3538  0.3781
   70MOL    C89 8507   7.120   1.270   0.644 -0.0139 -0.0388 -0.0725
   70MOL    H90 8508   7.085   1.329   0.559 -2.0022 -0.8335  0.1555
   70MOL    H91 8509   7.066   1.327   0.720 -0.6864 -0.8211  0.0476
   70MOL    C92 8510   7.274   1.288   0.672  0.0594  0.1852  0.2085
   70MOL   Cl93 8511   7.390   1.179   0.584  0.0624 -0.0662  0.0747
   70MOL   Cl94 8512   7.306   1.249   0.843  0.4736 -0.0812  0.4340
   70MOL    C95 8513   7.341   1.428   0.659 -0.0691  0.6967 -0.0638
   70MOL    H96 8514   7.432   1.429   0.719 -0.8110 -5.1157  1.4421
   70MOL    H97 8515   7.374   1.436   0.555  1.0924  0.2593  0.2633
   70MOL    C98 8516   7.259   1.564   0.675 -0.3341  0.1083  0.4805
   70MOL   Cl99 8517   7.122   1.570   0.557  0.0930 -0.0910  0.3121
   70MOL  Cl100 8518   7.380   1.697   0.629 -0.2544 -0.3087  0.2089
   70MOL   C101 8519   7.220   1.588   0.825 -0.2646 -0.0490 -0.1485
   70MOL   H102 8520   7.198   1.503   0.889  3.3323  1.0558  2.7310
   70MOL   H103 8521   7.312   1.622   0.872  0.6304 -0.9195 -1.2514
   70MOL   C104 8522   7.105   1.688   0.851  0.4898  0.3901 -0.2857
   70MOL  Cl105 8523   7.112   1.702   1.020 -0.1283 -0.3833 -0.2273
   70MOL  Cl106 8524   6.953   1.602   0.809  0.0057 -0.0264 -0.5967
   70MOL   C107 8525   7.125   1.836   0.795  0.1843  0.1292 -0.1825
   70MOL   H108 8526   7.204   1.882   0.855  1.2913  1.4647 -2.6321
   70MOL   H109 8527   7.165   1.820   0.695  2.7917 -0.4081  0.9154
   70MOL   C110 8528   7.008   1.935   0.783 -0.4947 -0.2247  0.1125
   70MOL  Cl111 8529   6.917   1.929   0.935 -0.3472 -0.3695  0.7563
   70MOL  Cl112 8530   6.902   1.884   0.647 -0.0500  0.4033 -0.1105
   70MOL   C113 8531   7.053   2.081   0.756  0.2284  0.3389 -0.0783
   70MOL   H114 8532   6.961   2.140   0.764 -0.1848 -0.6499  2.8604
   70MOL   H115 8533   7.106   2.100   0.849  2.1089  1.9431 -1.4215
   70MOL   C116 8534   7.151   2.123   0.644 -0.2119  0.0576 -0.0118
   70MOL  Cl117 8535   7.317   2.069   0.670 -0.0897 -0.3719  0.4571
   70MOL  Cl118 8536   7.148   2.301   0.652 -0.1006  0.0630 -0.4589
   70MOL   C119 8537   7.122   2.073   0.501  0.7059  0.5420 -0.1675
   70MOL   H120 8538   7.148   1.967   0.500 -0.1539  0.3248 -1.3026
   70MOL   H121 8539   7.016   2.076   0.479  0.9928  1.0711 -1.5883
   70MOL   H122 8540   7.181   2.126   0.426  1.0329  1.9414  1.0699
   71MOL     C1 8541   4.163   5.031   7.595  0.1056 -0.3296 -0.6724
   71MOL    Cl2 8542   4.163   5.193   7.507 -0.0583 -0.4388 -0.0523
   71MOL    Cl3 8543   4.049   4.931   7.498  0.2574  0.3073 -0.0044
   71MOL     C4 8544   4.304   4.971   7.585 -0.6545  0.0549 -0.5271
   71MOL     H5 8545   4.317   4.949   7.479  0.3313 -1.7873 -0.0420
   71MOL     H6 8546   4.379   5.051   7.593  0.8003 -1.3755  0.4091
   71MOL     H7 8547   4.116   5.036   7.693 -0.4268 -2.7747 -0.7688
   71MOL     C8 8548   4.358   4.857   7.672 -0.1559  0.3221  0.3021
   71MOL    Cl9 8549   4.530   4.836   7.626 -0.3016 -0.0392  0.0735
   71MOL   Cl10 8550   4.277   4.710   7.618 -0.5636 -0.5648 -0.2330
   71MOL    C11 8551   4.341   4.873   7.827  0.0543 -0.6530  0.2188
   71MOL    H12 8552   4.234   4.859   7.844  0.0197 -2.9298 -1.7644
   71MOL    H13 8553   4.386   4.778   7.858  0.0252 -0.5852  0.4791
   71MOL    C14 8554   4.396   4.985   7.921 -0.2787 -0.5062  0.5184
   71MOL   Cl15 8555   4.352   5.156   7.877  0.1315  0.1494 -0.0086
   71MOL   Cl16 8556   4.570   4.977   7.903  0.1830  0.3544 -0.0170
   71MOL    C17 8557   4.358   4.961   8.071 -0.1426  0.8363 -0.3944
   71MOL    H18 8558   4.251   4.948   8.059  0.0706  0.7779 -2.3299
   71MOL    H19 8559   4.382   4.857   8.090  0.7118  0.4823 -3.2342
   71MOL    C20 8560   4.381   5.057   8.188  0.0896  0.6418 -0.2692
   71MOL   Cl21 8561   4.330   4.958   8.333 -0.2285 -0.3949 -0.3651
   71MOL   Cl22 8562   4.253   5.184   8.174 -0.1199  0.3532 -0.1409
   71MOL    C23 8563   4.525   5.108   8.197  0.1734 -0.0866  0.8266
   71MOL    H24 8564   4.593   5.028   8.168  0.1941  0.4064 -0.4832
   71MOL    H25 8565   4.536   5.184   8.120 -0.3540 -1.1660 -0.3274
   71MOL    C26 8566   4.587   5.152   8.337  0.2003 -0.5406 -0.4047
   71MOL   Cl27 8567   4.651   5.007   8.428 -0.3912  0.1526 -0.2377
   71MOL   Cl28 8568   4.465   5.232   8.435  0.0905 -0.4187 -0.0860
   71MOL    C29 8569   4.709   5.255   8.307  0.2516 -0.0456 -0.0455
   71MOL    H30 8570   4.789   5.196   8.262 -1.3114 -0.2660 -2.5833
   71MOL    H31 8571   4.674   5.334   8.241  1.5878  1.3524  0.8711
   71MOL    C32 8572   4.790   5.331   8.420 -0.0442 -0.8489  0.8582
   71MOL   Cl33 8573   4.845   5.215   8.541 -0.0836 -0.3253 -0.1659
   71MOL   Cl34 8574   4.684   5.453   8.501 -0.2609  0.1022  0.3086
   71MOL    C35 8575   4.922   5.397   8.380 -0.3330  0.4984 -0.0088
   71MOL    H36 8576   4.973   5.440   8.467  1.2182 -0.8293 -0.2354
   71MOL    H37 8577   4.984   5.319   8.336 -0.6582 -0.8465  1.8522
   71MOL    C38 8578   4.937   5.507   8.271 -0.3231 -0.4718 -0.4005
   71MOL   Cl39 8579   4.846   5.475   8.126 -0.1256 -0.3888  0.1891
   71MOL   Cl40 8580   5.116   5.520   8.245 -0.5950 -0.1637 -0.1438
   71MOL    C41 8581   4.897   5.637   8.336 -0.3026  0.1477 -0.8849
   71MOL    H42 8582   4.789   5.638   8.355  0.0069  2.9810  0.9765
   71MOL    H43 8583   4.947   5.640   8.432  1.8730  0.5477 -2.0145
   71MOL    C44 8584   4.919   5.773   8.268 -0.8041 -0.1145  0.3676
   71MOL   Cl45 8585   5.077   5.835   8.299  0.3328 -0.0444  0.1728
   71MOL   Cl46 8586   4.802   5.886   8.350  0.3779 -0.2773 -0.1926
   71MOL    C47 8587   4.881   5.777   8.113  0.4448  0.1785  0.1566
   71MOL    H48 8588   4.942   5.703   8.061  1.1386  0.8904 -0.0727
   71MOL    H49 8589   4.779   5.748   8.090 -0.0683  2.9818 -1.3643
   71MOL    C50 8590   4.892   5.898   8.025 -0.3100 -0.6487  0.6855
   71MOL   Cl51 8591   4.834   5.836   7.871 -0.3093  0.1997  0.2154
   71MOL   Cl52 8592   5.065   5.919   7.992 -0.0520  0.0533  0.2404
   71MOL    C53 8593   4.813   6.016   8.076  0.3091 -0.0018  0.2302
   71MOL    H54 8594   4.720   5.984   8.124  1.1819  1.6782  3.1689
   71MOL    H55 8595   4.866   6.060   8.161 -1.8824 -0.3305  1.8157
   71MOL    C56 8596   4.780   6.125   7.974  0.7474 -0.0080 -0.8662
   71MOL   Cl57 8597   4.717   6.249   8.078  0.1398  0.1885  0.1924
   71MOL   Cl58 8598   4.643   6.082   7.861 -0.2159  0.2127  0.1388
   71MOL    C59 8599   4.895   6.189   7.882 -0.1977  0.2030  0.1185
   71MOL    H60 8600   4.992   6.158   7.922  0.3006 -0.0750 -1.2912
   71MOL    H61 8601   4.883   6.136   7.788  0.0513  1.5934 -0.7087
   71MOL    C62 8602   4.899   6.337   7.841 -0.2287  0.7791 -1.0081
   71MOL   Cl63 8603   5.040   6.347   7.725 -0.1064  0.1209 -0.0740
   71MOL   Cl64 8604   4.944   6.429   7.994  0.1447  0.0477  0.2691
   71MOL    C65 8605   4.769   6.386   7.781 -0.0524 -0.1165  0.1112
   71MOL    H66 8606   4.750   6.324   7.694 -0.8808 -1.6989  1.3927
   71MOL    H67 8607   4.687   6.363   7.849  2.1372 -2.6401  2.0002
   71MOL    C68 8608   4.754   6.541   7.741 -1.1015 -0.1523 -0.1067
   71MOL   Cl69 8609   4.671   6.608   7.885  0.0747 -0.0109  0.0167
   71MOL   Cl70 8610   4.634   6.561   7.615  0.1051  0.0113 -0.1734
   71MOL    C71 8611   4.877   6.615   7.705 -0.2567 -0.9786  0.1761
   71MOL    H72 8612   4.944   6.616   7.790  3.5664  0.8100 -2.7233
   71MOL    H73 8613   4.930   6.561   7.627  0.4229  0.6448 -0.5013
   71MOL    C74 8614   4.879   6.766   7.650 -0.0214 -0.1748  0.3940
   71MOL   Cl75 8615   4.758   6.872   7.728  0.1406  0.2253 -0.5114
   71MOL   Cl76 8616   4.844   6.768   7.475  0.1423  0.2321 -0.0912
   71MOL    C77 8617   5.024   6.817   7.682 -0.4254  0.6873 -0.6723
   71MOL    H78 8618   5.014   6.848   7.786 -1.5210  2.6748 -1.3369
   71MOL    H79 8619   5.083   6.726   7.677  0.4418  1.2552 -0.9696
   71MOL    C80 8620   5.098   6.927   7.600 -0.0480  0.0669  0.2131
   71MOL   Cl81 8621   5.139   6.858   7.442  0.1452 -0.2120  0.0477
   71MOL   Cl82 8622   5.251   6.949   7.693  0.0714  0.1791  0.1256
   71MOL    C83 8623   5.009   7.048   7.583 -0.9208 -0.5488 -0.5597
   71MOL    H84 8624   4.916   7.018   7.535 -1.8762  2.1023 -0.4589
   71MOL    H85 8625   4.982   7.074   7.686  1.3308  3.7113 -0.9380
   71MOL    C86 8626   5.048   7.178   7.507 -0.5162  0.4099  0.3982
   71MOL   Cl87 8627   5.212   7.229   7.555 -0.7122 -0.1192  0.1930
   71MOL   Cl88 8628   4.927   7.289   7.577  0.1023 -0.1572  0.1676
   71MOL    C89 8629   5.027   7.162   7.350 -0.3326 -0.1342 -1.0596
   71MOL    H90 8630   5.106   7.100   7.307  1.1975  0.2057  1.1809
   71MOL    H91 8631   4.934   7.109   7.330 -0.9428  0.2103  0.7943
   71MOL    C92 8632   5.025   7.284   7.252  0.3782 -0.0202 -0.1767
   71MOL   Cl93 8633   4.863   7.350   7.253  0.0971  0.0991 -0.0209
   71MOL   Cl94 8634   5.042   7.221   7.084 -0.3192 -0.2939  0.5959
   71MOL    C95 8635   5.135   7.392   7.288  0.9132  0.1996 -0.8421
   71MOL    H96 8636   5.108   7.435   7.384 -1.2597 -1.4005 -0.7045
   71MOL    H97 8637   5.230   7.349   7.319  1.8304  2.4965 -0.3358
   71MOL    C98 8638   5.170   7.503   7.196 -0.2308 -0.1117  0.1781
   71MOL   Cl99 8639   5.250   7.440   7.049 -0.0867  0.4426 -0.5414
   71MOL  Cl100 8640   5.290   7.601   7.287 -0.1226 -0.0885 -0.2520
   71MOL   C101 8641   5.043   7.583   7.145 -0.0873  0.0795 -0.0154
   71MOL   H102 8642   4.988   7.517   7.079  0.2631  0.8175 -1.0762
   71MOL   H103 8643   4.978   7.599   7.231  0.7545 -1.2077  0.8688
   71MOL   C104 8644   5.059   7.716   7.074 -0.5444  0.1744 -0.6326
   71MOL  Cl105 8645   5.197   7.721   6.948  0.3183 -0.1101 -0.2180
   71MOL  Cl106 8646   5.091   7.844   7.203 -0.3432  0.2907  0.3434
   71MOL   C107 8647   4.936   7.778   7.008 -0.4098  0.3048  0.3510
   71MOL   H108 8648   4.883   7.835   7.085  0.2747  1.5170 -0.0515
   71MOL   H109 8649   4.979   7.857   6.946  0.3312  0.0462  0.5326
   71MOL   C110 8650   4.835   7.701   6.913 -0.1687  0.0072  0.9290
   71MOL  Cl111 8651   4.735   7.831   6.842  0.3684  0.1580  0.1918
   71MOL  Cl112 8652   4.733   7.578   6.997 -0.1042 -0.3072 -0.0898
   71MOL   C113 8653   4.913   7.630   6.798  0.3886 -0.5036 -0.2127
   71MOL   H114 8654   4.967   7.712   6.750 -1.9809  0.7739 -0.7454
   71MOL   H115 8655   4.984   7.569   6.854  0.4444  1.0380  1.4453
   71MOL   C116 8656   4.830   7.544   6.704 -0.3302 -0.9760 -0.4338
   71MOL  Cl117 8657   4.838   7.378   6.764 -0.3150  0.0991  0.0674
   71MOL  Cl118 8658   4.928   7.553   6.556 -0.0077 -0.0625 -0.1551
   71MOL   C119 8659   4.691   7.584   6.658  0.5957  0.1707  0.4973
   71MOL   H120 8660   4.638   7.503   6.607  1.6288 -1.5269  2.0528
   71MOL   H121 8661   4.630   7.601   6.746  0.5653 -0.6007  0.6280
   71MOL   H122 8662   4.691   7.671   6.592 -1.0726 -1.1998 -1.4073
   72MOL     C1 8663   3.673   8.908   9.102  0.3509  0.1854  0.2466
   72MOL    Cl2 8664   3.671   8.843   8.937  0.3087 -0.1146 -0.2136
   72MOL    Cl3 8665   3.502   8.906   9.154 -0.0223 -0.0197  0.0242
   72MOL     C4 8666   3.753   8.829   0.031 -0.7461 -0.1758 -0.1449
   72MOL     H5 8667   3.725   8.886   0.120  1.8418  2.0549 -0.6910
   72MOL     H6 8668   3.718   8.729   0.059 -0.9347 -0.4341 -1.2879
   72MOL     H7 8669   3.698   9.014   9.101  0.5560  0.2167  3.3320
   72MOL     C8 8670   3.907   8.835   0.016  0.1425 -0.0493 -0.1509
   72MOL    Cl9 8671   3.950   8.701   9.083 -0.1359 -0.3240 -0.0997
   72MOL   Cl10 8672   3.986   8.803   0.171  0.1370 -0.2818 -0.2634
   72MOL    C11 8673   3.968   8.959   9.137  0.4648  0.3215  0.0720
   72MOL    H12 8674   3.935   8.952   9.033  0.5071  2.2624 -0.0863
   72MOL    H13 8675   3.928   9.043   0.013 -0.5448 -0.8099  1.0676
   72MOL    C14 8676   4.119   8.982   9.141  0.0229 -0.0821 -0.0200
   72MOL   Cl15 8677   4.175   9.037   0.121 -0.2297  0.1513 -0.2129
   72MOL   Cl16 8678   4.156   9.123   9.037  0.2145 -0.0854  0.0123
   72MOL    C17 8679   4.208   8.867   9.087 -0.3801 -0.1256  0.8761
   72MOL    H18 8680   4.228   8.806   9.175  0.7676 -1.1375 -0.0650
   72MOL    H19 8681   4.156   8.815   9.006 -0.0014  2.4365 -1.0870
   72MOL    C20 8682   4.354   8.881   9.036  0.3009 -0.0707  0.3221
   72MOL   Cl21 8683   4.434   8.725   9.060  0.1117 -0.4102  0.4097
   72MOL   Cl22 8684   4.443   8.995   9.142  0.1758  0.4935  0.0313
   72MOL    C23 8685   4.366   8.928   8.887 -0.6264 -0.2904 -0.0312
   72MOL    H24 8686   4.357   9.036   8.875  0.2836  0.0280  1.9828
   72MOL    H25 8687   4.472   8.914   8.865 -0.4776  0.1421  0.4111
   72MOL    C26 8688   4.294   8.860   8.769  0.6118 -0.3542  0.2241
   72MOL   Cl27 8689   4.371   8.933   8.620 -0.1529  0.3276 -0.0152
   72MOL   Cl28 8690   4.115   8.902   8.773  0.1580 -0.0492 -0.1132
   72MOL    C29 8691   4.293   8.707   8.763 -0.2228 -0.4202  0.5021
   72MOL    H30 8692   4.276   8.680   8.867  1.6228  0.1364  0.9832
   72MOL    H31 8693   4.206   8.665   8.713 -1.4012  2.4933 -0.0334
   72MOL    C32 8694   4.414   8.626   8.704 -0.0649 -0.3590 -0.5560
   72MOL   Cl33 8695   4.571   8.693   8.753  0.1312  0.0822 -0.1107
   72MOL   Cl34 8696   4.404   8.642   8.525 -0.1845 -0.2045  0.0777
   72MOL    C35 8697   4.431   8.474   8.738  0.4897  0.3864  0.3346
   72MOL    H36 8698   4.509   8.438   8.671 -0.5823 -1.8985  0.2512
   72MOL    H37 8699   4.479   8.463   8.836  0.6441  0.1297  0.2322
   72MOL    C38 8700   4.313   8.374   8.733 -0.3745  0.2970 -0.0417
   72MOL   Cl39 8701   4.240   8.377   8.569 -0.0639 -0.1607 -0.1653
   72MOL   Cl40 8702   4.186   8.429   8.852  0.0247 -0.5257  0.4272
   72MOL    C41 8703   4.370   8.234   8.772 -0.5063 -0.2453 -0.1766
   72MOL    H42 8704   4.395   8.205   8.670 -2.4103 -0.0473 -0.7344
   72MOL    H43 8705   4.455   8.251   8.837  0.4669 -1.0008 -1.2440
   72MOL    C44 8706   4.276   8.129   8.835  0.1533  0.3039  0.0622
   72MOL   Cl45 8707   4.355   7.976   8.814  0.0478  0.2400  0.2026
   72MOL   Cl46 8708   4.121   8.105   8.751 -0.2423  0.1960  0.0063
   72MOL    C47 8709   4.253   8.140   8.995  0.5203 -0.1765 -0.2984
   72MOL    H48 8710   4.178   8.217   9.013 -0.3674 -1.2632  0.7480
   72MOL    H49 8711   4.197   8.050   9.020  0.3317  0.2043  0.6598
   72MOL    C50 8712   4.371   8.177   9.092  0.2374  0.2248 -0.3235
   72MOL   Cl51 8713   4.303   8.164   0.081 -0.3947 -0.0872  0.1499
   72MOL   Cl52 8714   4.405   8.353   9.072  0.0097  0.0737 -0.2409
   72MOL    C53 8715   4.497   8.092   9.088 -0.1522 -1.0480  0.7857
   72MOL    H54 8716   4.454   7.997   9.120 -2.2112 -1.0000 -1.6502
   72MOL    H55 8717   4.535   8.076   8.988  0.3249 -0.3948  0.8625
   72MOL    C56 8718   4.619   8.134   9.166  0.0691  0.0675 -0.4655
   72MOL   Cl57 8719   4.587   8.214   0.149 -0.2619 -0.1945  0.3792
   72MOL   Cl58 8720   4.708   8.251   9.058  0.2974 -0.6595  0.2847
   72MOL    C59 8721   4.723   8.020   0.014 -0.1207 -0.8257  0.3032
   72MOL    H60 8722   4.799   8.080   0.064 -0.1913  0.7108 -1.3948
   72MOL    H61 8723   4.669   7.946   0.073 -1.1293  0.2063  0.6966
   72MOL    C62 8724   4.789   7.923   9.096 -0.7407 -0.4045 -0.2207
   72MOL   Cl63 8725   4.872   8.010   8.965  0.3777  0.0213  0.0287
   72MOL   Cl64 8726   4.680   7.813   9.013 -0.0083  0.2501 -0.5879
   72MOL    C65 8727   4.891   7.835   9.172  1.0692  0.5268  0.4879
   72MOL    H66 8728   4.916   7.758   9.100 -1.2681 -0.2526  0.4504
   72MOL    H67 8729   4.979   7.898   0.003  1.7548 -0.6849  2.0333
   72MOL    C68 8730   4.854   7.763   0.130 -0.2198  0.0343  0.7838
   72MOL   Cl69 8731   4.864   7.877   0.262 -0.0717  0.1440 -0.3288
   72MOL   Cl70 8732   4.982   7.654   0.175 -0.1071 -0.0775  0.1620
   72MOL    C71 8733   4.727   7.663   0.129  0.1860 -0.3072 -0.2858
   72MOL    H72 8734   4.649   7.700   0.063  2.1826 -0.4144 -2.7944
   72MOL    H73 8735   4.752   7.567   0.084  3.3026  0.5949 -0.5942
   72MOL    C74 8736   4.638   7.630   0.257 -0.5562  0.3509 -0.1240
   72MOL   Cl75 8737   4.562   7.784   0.297  0.5287  0.3427 -0.2282
   72MOL   Cl76 8738   4.729   7.576   0.393  0.3480  0.3100 -0.0530
   72MOL    C77 8739   4.524   7.525   0.225 -0.0861  0.5317 -0.2818
   72MOL    H78 8740   4.575   7.428   0.225  1.0300  1.1049 -0.3454
   72MOL    H79 8741   4.461   7.518   0.314  1.0536 -0.8469  0.4509
   72MOL    C80 8742   4.433   7.531   0.101  0.0472 -0.7145  0.0804
   72MOL   Cl81 8743   4.521   7.489   9.131 -0.0392 -0.2878 -0.0047
   72MOL   Cl82 8744   4.370   7.696   0.068  0.2407 -0.1092 -0.1445
   72MOL    C83 8745   4.301   7.444   0.114 -0.4281  0.6852 -0.1764
   72MOL    H84 8746   4.239   7.499   0.185 -0.7815  2.4381 -1.7910
   72MOL    H85 8747   4.252   7.435   0.018  1.4367 -1.8364 -0.9344
   72MOL    C86 8748   4.306   7.294   0.159  0.3882  0.2306  0.4831
   72MOL   Cl87 8749   4.372   7.280   0.325  0.2602  0.5116 -0.2964
   72MOL   Cl88 8750   4.425   7.210   0.042 -0.1621  0.3625 -0.3166
   72MOL    C89 8751   4.168   7.216   0.145 -0.1771  0.2625 -0.0912
   72MOL    H90 8752   4.188   7.109   0.150 -0.8124  0.1834  0.9397
   72MOL    H91 8753   4.115   7.219   0.240 -0.1591 -2.8958  0.0612
   72MOL    C92 8754   4.068   7.240   0.029  0.0458 -0.1591  0.5807
   72MOL   Cl93 8755   4.156   7.233   9.057 -0.2425  0.0362 -0.3038
   72MOL   Cl94 8756   3.989   7.398   0.049  0.0196 -0.3358  0.1807
   72MOL    C95 8757   3.974   7.124   0.031 -0.2007  0.1365  0.3238
   72MOL    H96 8758   4.037   7.042   9.176  1.0252  0.4882  1.6244
   72MOL    H97 8759   3.969   7.084   0.132 -1.6016 -0.7967 -0.1030
   72MOL    C98 8760   3.834   7.122   9.151  0.2722  0.1340  0.6313
   72MOL   Cl99 8761   3.791   6.945   9.125  0.1387  0.0179  0.0569
   72MOL  Cl100 8762   3.836   7.193   8.987  0.1425 -0.0231  0.8591
   72MOL   C101 8763   3.720   7.191   0.062 -1.0648  0.6885  0.0115
   72MOL   H102 8764   3.711   7.123   0.147  0.9011 -3.6594 -3.1026
   72MOL   H103 8765   3.745   7.287   0.108  1.7605  0.8083 -1.6694
   72MOL   C104 8766   3.572   7.216   0.015 -0.4135  0.3395  0.5258
   72MOL  Cl105 8767   3.576   7.380   9.118  0.1927  0.2777  0.1939
   72MOL  Cl106 8768   3.476   7.246   0.167 -0.1943 -0.2252 -0.0804
   72MOL   C107 8769   3.515   7.115   9.084 -0.0270  0.8213  0.4193
   72MOL   H108 8770   3.443   7.168   9.022  0.0070  1.4160  0.8802
   72MOL   H109 8771   3.597   7.094   9.015  0.1529 -0.8098  1.1188
   72MOL   C110 8772   3.439   6.988   9.136  0.1432  0.7101  0.5052
   72MOL  Cl111 8773   3.290   7.020   0.039  0.2330 -0.2025  0.3206
   72MOL  Cl112 8774   3.528   6.907   0.082 -0.0022 -0.1593  0.0714
   72MOL   C113 8775   3.416   6.883   9.018 -0.2959  0.3509 -0.3384
   72MOL   H114 8776   3.515   6.868   8.975  0.0006  2.0489 -0.2798
   72MOL   H115 8777   3.388   6.789   9.066  2.2487  0.1190  0.8097
   72MOL   C116 8778   3.320   6.924   8.904 -0.2225  0.1202  0.0529
   72MOL  Cl117 8779   3.337   6.792   8.788  0.0803 -0.0282  0.0756
   72MOL  Cl118 8780   3.383   7.061   8.798 -0.3248 -0.0574 -0.0007
   72MOL   C119 8781   3.168   6.939   8.948  0.2562  0.1762 -0.0183
   72MOL   H120 8782   3.162   7.042   8.981 -0.0062  0.7193 -1.6980
   72MOL   H121 8783   3.113   6.930   8.854  3.6049 -0.8232 -2.0151
   72MOL   H122 8784   3.131   6.877   9.029  2.4765 -2.5589 -1.0035
   73MOL     C1 8785   2.025   3.145   3.484 -0.0509 -0.0097  0.0949
   73MOL    Cl2 8786   1.994   3.291   3.391  0.0439 -0.2820 -0.0764
   73MOL    Cl3 8787   2.152   3.178   3.605  0.2446  0.6155  0.7817
   73MOL     C4 8788   1.892   3.106   3.546 -0.0047  0.3845 -0.0577
   73MOL     H5 8789   1.918   3.043   3.631 -0.6784  0.7202  0.3961
   73MOL     H6 8790   1.850   3.193   3.595  1.8861  1.3623 -0.1108
   73MOL     H7 8791   2.063   3.069   3.415  0.0568 -1.5371  1.7951
   73MOL     C8 8792   1.790   3.030   3.453  0.1316 -0.1916  0.2017
   73MOL    Cl9 8793   1.855   2.868   3.399  0.2110  0.1030 -0.1461
   73MOL   Cl10 8794   1.760   3.128   3.304  0.0230 -0.2491  0.2094
   73MOL    C11 8795   1.647   3.007   3.510 -0.1777  0.2468 -0.1246
   73MOL    H12 8796   1.592   3.101   3.509  2.2499  1.7215  0.5709
   73MOL    H13 8797   1.588   2.955   3.434  0.3495 -1.0092  0.3111
   73MOL    C14 8798   1.623   2.953   3.656  0.7197  0.5128 -0.4555
   73MOL   Cl15 8799   1.450   2.954   3.669 -0.4105  0.2427  0.2260
   73MOL   Cl16 8800   1.687   3.076   3.771 -0.5472 -0.0295 -0.0629
   73MOL    C17 8801   1.674   2.806   3.673 -0.5716  0.2431  0.8020
   73MOL    H18 8802   1.600   2.746   3.621 -0.4795  1.9202 -1.3428
   73MOL    H19 8803   1.755   2.775   3.607 -1.6474 -1.9561  0.4837
   73MOL    C20 8804   1.694   2.739   3.808  0.6995  0.1139  0.5274
   73MOL   Cl21 8805   1.843   2.795   3.870 -0.2387  0.4705 -0.4330
   73MOL   Cl22 8806   1.708   2.562   3.779 -0.0190 -0.6643 -0.1972
   73MOL    C23 8807   1.574   2.777   3.909  0.2656 -0.2751 -0.7762
   73MOL    H24 8808   1.598   2.877   3.945  1.1783 -0.3331 -1.1929
   73MOL    H25 8809   1.483   2.784   3.850 -1.0223  1.2353  1.3446
   73MOL    C26 8810   1.545   2.684   4.035  0.7068 -0.4541  0.2798
   73MOL   Cl27 8811   1.456   2.533   3.964  0.1798  0.0381 -0.3916
   73MOL   Cl28 8812   1.429   2.777   4.127 -0.0289  0.2177 -0.4135
   73MOL    C29 8813   1.668   2.651   4.122  0.7170 -0.3916  0.2703
   73MOL    H30 8814   1.735   2.577   4.077  1.3144 -1.1763  2.3918
   73MOL    H31 8815   1.731   2.740   4.119 -1.3998  1.1145 -0.8363
   73MOL    C32 8816   1.649   2.595   4.269 -0.2675  0.0200  0.4841
   73MOL   Cl33 8817   1.524   2.474   4.285  0.1150 -0.3034  0.0682
   73MOL   Cl34 8818   1.605   2.722   4.379  0.4831 -0.3664 -0.3302
   73MOL    C35 8819   1.779   2.522   4.321  0.6162 -0.2991  0.0107
   73MOL    H36 8820   1.746   2.458   4.403  0.6677  0.7968  0.9009
   73MOL    H37 8821   1.809   2.455   4.241 -1.2960  1.2704 -2.0833
   73MOL    C38 8822   1.906   2.598   4.385 -0.4462 -0.4451 -0.5957
   73MOL   Cl39 8823   1.865   2.658   4.549  0.0671 -0.0720 -0.9673
   73MOL   Cl40 8824   1.952   2.734   4.275 -0.2237  0.0235 -0.8268
   73MOL    C41 8825   2.035   2.505   4.411 -0.2271 -0.6159 -0.3292
   73MOL    H42 8826   2.081   2.534   4.505 -0.5330  1.2430 -0.7309
   73MOL    H43 8827   2.003   2.402   4.427 -0.8275 -0.3879 -0.0261
   73MOL    C44 8828   2.142   2.484   4.295  0.3776  0.1576 -0.4635
   73MOL   Cl45 8829   2.062   2.439   4.138 -0.4028  0.2669 -0.2630
   73MOL   Cl46 8830   2.225   2.328   4.335 -0.0879 -0.3235  0.1412
   73MOL    C47 8831   2.243   2.599   4.275 -0.5029 -0.1483 -0.4593
   73MOL    H48 8832   2.319   2.544   4.219 -0.3575  0.6380 -1.0359
   73MOL    H49 8833   2.202   2.672   4.205  0.6791  2.7244  1.7059
   73MOL    C50 8834   2.310   2.665   4.406  0.0104  0.6454 -1.2276
   73MOL   Cl51 8835   2.375   2.534   4.517  0.3862  0.2933  0.0960
   73MOL   Cl52 8836   2.195   2.758   4.504  0.2796  0.3059  0.0925
   73MOL    C53 8837   2.436   2.743   4.360 -0.0542 -0.8884  0.2795
   73MOL    H54 8838   2.451   2.821   4.434  0.7864 -0.1544 -0.6560
   73MOL    H55 8839   2.521   2.680   4.382  1.3174  0.4033 -1.1711
   73MOL    C56 8840   2.434   2.822   4.225  0.7417  0.3226 -0.3251
   73MOL   Cl57 8841   2.275   2.913   4.222  0.3663 -0.2535  0.0132
   73MOL   Cl58 8842   2.447   2.712   4.085 -0.0892  0.1378 -0.2503
   73MOL    C59 8843   2.547   2.927   4.213  0.1799  0.4324 -0.5037
   73MOL    H60 8844   2.528   2.978   4.119  0.9382 -0.4680 -1.1653
   73MOL    H61 8845   2.522   3.000   4.290 -2.7039  0.3816 -1.3133
   73MOL    C62 8846   2.698   2.895   4.219 -0.5493  0.2976 -0.3740
   73MOL   Cl63 8847   2.744   2.859   4.385 -0.5166 -0.1910  0.0843
   73MOL   Cl64 8848   2.765   3.045   4.169 -0.1642  0.1256  0.1161
   73MOL    C65 8849   2.757   2.791   4.123 -0.4768  0.4686  0.3633
   73MOL    H66 8850   2.723   2.695   4.163 -0.1241  0.9668  1.8758
   73MOL    H67 8851   2.697   2.807   4.034 -0.8347  1.2006  0.7284
   73MOL    C68 8852   2.910   2.769   4.083 -0.4109  0.5146 -0.2448
   73MOL   Cl69 8853   2.936   2.881   3.949 -0.0418 -0.2061 -0.1765
   73MOL   Cl70 8854   2.920   2.597   4.016 -0.0202 -0.0252 -0.1850
   73MOL    C71 8855   3.014   2.787   4.199 -0.1101  0.3033 -0.6594
   73MOL    H72 8856   2.979   2.873   4.257 -0.7027  0.0702 -0.6705
   73MOL    H73 8857   2.992   2.703   4.265  1.7492  0.3209  0.0143
   73MOL    C74 8858   3.167   2.802   4.188 -0.9523 -0.3753 -0.1446
   73MOL   Cl75 8859   3.236   2.779   4.354  0.1008 -0.2571  0.0075
   73MOL   Cl76 8860   3.211   2.962   4.121 -0.0603  0.0401  0.2646
   73MOL    C77 8861   3.219   2.688   4.092 -0.3328  1.2952 -0.6461
   73MOL    H78 8862   3.163   2.597   4.111  0.2166  0.5889 -2.3499
   73MOL    H79 8863   3.177   2.728   4.000 -0.0327  1.9352 -0.5061
   73MOL    C80 8864   3.374   2.662   4.074 -0.0433  0.6904 -0.3337
   73MOL   Cl81 8865   3.431   2.526   4.185 -0.2154  0.2078  0.0800
   73MOL   Cl82 8866   3.483   2.797   4.117  0.0385 -0.3174  0.1238
   73MOL    C83 8867   3.413   2.645   3.929 -0.1948 -0.3126  0.4861
   73MOL    H84 8868   3.349   2.720   3.882  2.2893 -0.6859 -3.8154
   73MOL    H85 8869   3.509   2.683   3.893  0.4853 -0.8196  1.7467
   73MOL    C86 8870   3.377   2.513   3.856 -0.8643  0.7508 -0.2007
   73MOL   Cl87 8871   3.347   2.547   3.688 -0.2157  0.0527 -0.0511
   73MOL   Cl88 8872   3.228   2.442   3.900  0.2531 -0.1716 -0.0226
   73MOL    C89 8873   3.492   2.406   3.862  0.4951 -0.0960  0.9498
   73MOL    H90 8874   3.506   2.359   3.959 -1.3918 -2.1027  0.2686
   73MOL    H91 8875   3.467   2.322   3.798 -1.1265  0.7415  0.4535
   73MOL    C92 8876   3.640   2.450   3.826 -0.4091 -0.4041  0.2522
   73MOL   Cl93 8877   3.711   2.557   3.949  0.1755 -0.0184  0.5179
   73MOL   Cl94 8878   3.662   2.531   3.663  0.1491  0.1872 -0.2190
   73MOL    C95 8879   3.730   2.324   3.815 -0.0074 -0.4576  0.3530
   73MOL    H96 8880   3.697   2.272   3.725  0.0254  0.6508 -0.3142
   73MOL    H97 8881   3.832   2.361   3.798 -1.8039  3.4801 -2.6248
   73MOL    C98 8882   3.736   2.216   3.930 -0.0767 -0.3580 -0.1768
   73MOL   Cl99 8883   3.872   2.113   3.875  0.3683 -0.3093  0.0521
   73MOL  Cl100 8884   3.597   2.107   3.937 -0.2272  0.2340  0.5573
   73MOL   C101 8885   3.770   2.278   4.070 -0.4176  0.1382  0.1989
   73MOL   H102 8886   3.862   2.335   4.057 -0.8181  0.1932 -2.7092
   73MOL   H103 8887   3.695   2.353   4.098 -1.1699 -0.1622 -0.9783
   73MOL   C104 8888   3.787   2.191   4.202 -0.5300 -0.1556 -0.5977
   73MOL  Cl105 8889   3.635   2.105   4.244 -0.2926 -0.1008 -0.3827
   73MOL  Cl106 8890   3.823   2.284   4.346  0.4015  0.0984 -0.0973
   73MOL   C107 8891   3.899   2.081   4.188  0.3296  0.6267  0.3405
   73MOL   H108 8892   3.894   2.020   4.278 -2.1937 -0.2851 -0.3603
   73MOL   H109 8893   3.876   2.011   4.108 -0.4208 -0.6132  1.6113
   73MOL   C110 8894   4.051   2.114   4.194  0.5704 -0.4892 -0.7026
   73MOL  Cl111 8895   4.106   2.127   4.366 -0.2854 -0.4112 -0.1714
   73MOL  Cl112 8896   4.089   2.272   4.118 -0.4373  0.1149  0.2454
   73MOL   C113 8897   4.142   2.006   4.123 -0.0291  0.4451 -0.0716
   73MOL   H114 8898   4.124   2.017   4.016  2.0182 -1.0189 -0.5810
   73MOL   H115 8899   4.242   2.041   4.145  0.3527 -0.0542 -1.0021
   73MOL   C116 8900   4.130   1.855   4.158  0.3446 -0.4915  0.0179
   73MOL  Cl117 8901   4.260   1.779   4.063  0.0116 -0.2330 -0.2847
   73MOL  Cl118 8902   3.980   1.786   4.096  0.0934 -0.0196  0.1542
   73MOL   C119 8903   4.155   1.806   4.299  0.1245  0.0952  0.0127
   73MOL   H120 8904   4.254   1.840   4.329  1.0095 -1.3812 -1.1903
   73MOL   H121 8905   4.075   1.843   4.363 -1.5557  1.7522 -2.9181
   73MOL   H122 8906   4.166   1.698   4.307  0.2233  0.0695 -0.4866
   74MOL     C1 8907   8.345   2.872   2.385 -0.0443 -0.0685  0.4084
   74MOL    Cl2 8908   8.208   2.846   2.271  0.0718  0.0977 -0.1241
   74MOL    Cl3 8909   8.313   3.034   2.463  0.3658 -0.3215 -0.0324
   74MOL     C4 8910   8.352   2.758   2.492 -0.6516  0.4860 -0.2926
   74MOL     H5 8911   8.346   2.805   2.590 -1.2062  1.5223 -0.8210
   74MOL     H6 8912   8.269   2.690   2.473  2.8971 -4.1547 -0.1720
   74MOL     H7 8913   8.439   2.894   2.334  0.5344 -2.3981  0.4347
   74MOL     C8 8914   8.491   2.678   2.488  0.3635 -0.4970  0.0131
   74MOL    Cl9 8915   8.610   2.801   2.535 -0.0809  0.0715 -0.0819
   74MOL   Cl10 8916   8.544   2.623   2.329  0.0679  0.0031 -0.1461
   74MOL    C11 8917   8.503   2.562   2.593 -0.9119 -1.2326  0.3461
   74MOL    H12 8918   8.590   2.500   2.571 -0.6301 -0.8458  0.3833
   74MOL    H13 8919   8.527   2.610   2.687 -0.0367  0.4982 -0.7350
   74MOL    C14 8920   8.382   2.465   2.603  0.0977  0.0689  0.0242
   74MOL   Cl15 8921   8.334   2.420   2.440  0.2188 -0.3793 -0.1996
   74MOL   Cl16 8922   8.238   2.545   2.685 -0.2701  0.2558  0.0333
   74MOL    C17 8923   8.412   2.328   2.681  0.1756  0.4354  0.2897
   74MOL    H18 8924   8.323   2.265   2.676  0.7934 -0.4890  0.6483
   74MOL    H19 8925   8.479   2.265   2.622  1.2770  0.9284  0.9758
   74MOL    C20 8926   8.469   2.329   2.824  0.0656 -0.0803 -0.6605
   74MOL   Cl21 8927   8.623   2.410   2.828 -0.1919 -0.1963 -0.2898
   74MOL   Cl22 8928   8.494   2.154   2.856  0.2015 -0.2226  0.0723
   74MOL    C23 8929   8.369   2.374   2.934  0.2712 -0.1530 -0.6392
   74MOL    H24 8930   8.324   2.468   2.901 -0.7604 -0.5264 -0.3028
   74MOL    H25 8931   8.294   2.296   2.937 -2.8620  2.7094 -1.4281
   74MOL    C26 8932   8.424   2.405   3.081  0.3186  0.0651  0.6400
   74MOL   Cl27 8933   8.499   2.561   3.082  0.0142  0.3036 -0.2517
   74MOL   Cl28 8934   8.566   2.303   3.121  0.0371  0.2281  0.0558
   74MOL    C29 8935   8.322   2.382   3.204 -0.4270 -0.5371  0.0600
   74MOL    H30 8936   8.312   2.274   3.213 -0.2093 -0.8070 -2.5287
   74MOL    H31 8937   8.379   2.408   3.294 -1.9857  2.3756  0.2564
   74MOL    C32 8938   8.185   2.456   3.199  0.1524  1.2221 -0.1505
   74MOL   Cl33 8939   8.088   2.399   3.060  0.0121  0.1819 -0.2616
   74MOL   Cl34 8940   8.210   2.635   3.190  0.0211  0.6159 -0.1216
   74MOL    C35 8941   8.107   2.415   3.329 -0.2258  0.2737  0.2236
   74MOL    H36 8942   8.082   2.313   3.302 -0.0605 -0.2232  1.9302
   74MOL    H37 8943   8.177   2.404   3.411 -1.3587 -4.8912  0.6182
   74MOL    C38 8944   7.977   2.480   3.378  0.3014 -0.7585 -0.0821
   74MOL   Cl39 8945   7.893   2.372   3.496 -0.1968 -0.2748 -0.6319
   74MOL   Cl40 8946   7.855   2.490   3.245 -0.4641 -0.4926  0.3084
   74MOL    C41 8947   7.975   2.619   3.441  0.1995  0.1773  0.2585
   74MOL    H42 8948   8.009   2.691   3.367  0.2613 -0.8866 -0.7614
   74MOL    H43 8949   7.868   2.638   3.454  0.0263 -0.9121  0.4696
   74MOL    C44 8950   8.057   2.654   3.574  0.2135 -0.2990 -0.1113
   74MOL   Cl45 8951   7.994   2.809   3.625  0.0925 -0.5571 -0.1640
   74MOL   Cl46 8952   8.227   2.681   3.535  0.2861  0.5807 -0.2177
   74MOL    C47 8953   8.044   2.550   3.691 -0.1512 -0.5955  0.4845
   74MOL    H48 8954   7.936   2.543   3.701 -0.0826 -0.0227  1.6020
   74MOL    H49 8955   8.077   2.456   3.646  1.1394 -0.0607  0.2898
   74MOL    C50 8956   8.110   2.569   3.831 -0.0305 -0.6119  0.5185
   74MOL   Cl51 8957   8.105   2.731   3.896  0.0912  0.0705  0.2392
   74MOL   Cl52 8958   8.286   2.533   3.814  0.0078  0.0614  0.1030
   74MOL    C53 8959   8.052   2.483   3.947  0.3770  0.0489  0.1341
   74MOL    H54 8960   8.134   2.480   4.019  0.8742  1.4460 -0.3458
   74MOL    H55 8961   7.971   2.540   3.992  1.8081  0.9749  1.5598
   74MOL    C56 8962   8.004   2.336   3.919  0.2255  0.9857 -0.6482
   74MOL   Cl57 8963   8.122   2.241   3.839 -0.0602  0.3044  0.2353
   74MOL   Cl58 8964   7.858   2.340   3.824 -0.2249  0.2379 -0.5166
   74MOL    C59 8965   7.972   2.245   4.039 -0.0855 -0.3641 -0.1274
   74MOL    H60 8966   7.921   2.157   4.000 -2.8415  1.8807 -1.7835
   74MOL    H61 8967   8.064   2.199   4.077  0.6430  1.6651  0.6305
   74MOL    C62 8968   7.891   2.303   4.160 -0.5533  0.0501  0.6445
   74MOL   Cl63 8969   7.766   2.414   4.108 -0.3081 -0.1979  0.0880
   74MOL   Cl64 8970   8.005   2.407   4.258  0.2359  0.4925 -0.0110
   74MOL    C65 8971   7.816   2.194   4.246  0.1720 -0.0819 -0.0654
   74MOL    H66 8972   7.773   2.254   4.326  0.1957 -0.4868  0.2497
   74MOL    H67 8973   7.739   2.145   4.186  1.5244 -1.8463 -0.4068
   74MOL    C68 8974   7.890   2.082   4.317 -0.3678 -0.9832  0.3661
   74MOL   Cl69 8975   7.979   1.977   4.208  0.1353 -0.3647  0.0960
   74MOL   Cl70 8976   7.760   1.973   4.381 -0.2526  0.1278  0.1179
   74MOL    C71 8977   7.990   2.130   4.441  0.1419 -0.1952 -0.6159
   74MOL    H72 8978   8.073   2.183   4.394  0.7682 -0.2861  0.3781
   74MOL    H73 8979   7.941   2.209   4.498  0.1947  0.2399 -1.1724
   74MOL    C74 8980   8.056   2.029   4.534 -0.2691 -0.5592  0.5144
   74MOL   Cl75 8981   7.931   1.979   4.651  0.2818  0.2278  0.2169
   74MOL   Cl76 8982   8.182   2.118   4.628 -0.2425 -0.2972  0.3770
   74MOL    C77 8983   8.133   1.910   4.458  0.2349 -0.9873 -0.5687
   74MOL    H78 8984   8.065   1.836   4.415 -0.9882 -1.7597  2.5657
   74MOL    H79 8985   8.188   1.961   4.379 -2.1296  0.5328 -1.2846
   74MOL    C80 8986   8.238   1.824   4.537  0.7523  0.1086  0.2613
   74MOL   Cl81 8987   8.385   1.920   4.567 -0.0575 -0.2777  0.1716
   74MOL   Cl82 8988   8.287   1.694   4.424 -0.0517  0.1727  0.0267
   74MOL    C83 8989   8.193   1.770   4.675 -0.2259  0.0901 -0.3970
   74MOL    H84 8990   8.284   1.741   4.727 -0.0448 -0.2186 -0.8876
   74MOL    H85 8991   8.155   1.860   4.723  0.3553  0.3245 -0.3826
   74MOL    C86 8992   8.093   1.652   4.684  0.2882  0.3634 -0.1606
   74MOL   Cl87 8993   8.198   1.500   4.682 -0.1123 -0.0036 -0.3587
   74MOL   Cl88 8994   7.970   1.645   4.554  0.0650  0.0284  0.4145
   74MOL    C89 8995   8.005   1.640   4.813 -0.2491 -1.0002 -0.6275
   74MOL    H90 8996   7.927   1.714   4.798  0.8406 -0.0654 -1.8721
   74MOL    H91 8997   7.954   1.545   4.810  2.2298 -2.3644 -1.1656
   74MOL    C92 8998   8.061   1.671   4.961  0.1743 -0.8110 -0.3906
   74MOL   Cl93 8999   7.924   1.632   5.070 -0.2671 -0.0361 -0.3705
   74MOL   Cl94 9000   8.086   1.847   4.976  0.0055 -0.0204  0.0366
   74MOL    C95 9001   8.188   1.582   4.998 -0.0547  0.3576 -0.2871
   74MOL    H96 9002   8.161   1.476   4.999  0.7887  0.1367 -0.0567
   74MOL    H97 9003   8.260   1.590   4.916  0.6066  0.7300  0.3334
   74MOL    C98 9004   8.280   1.630   5.117 -0.1562 -0.1301  0.4627
   74MOL   Cl99 9005   8.374   1.772   5.056  0.0900  0.3682 -0.1984
   74MOL  Cl100 9006   8.397   1.504   5.128  0.0562 -0.4129  0.5148
   74MOL   C101 9007   8.215   1.645   5.257  0.0489  0.0794  0.5486
   74MOL   H102 9008   8.112   1.678   5.249  0.2298  0.4000 -0.7102
   74MOL   H103 9009   8.203   1.544   5.296 -4.3005  0.2610 -0.0650
   74MOL   C104 9010   8.276   1.737   5.356 -0.7129 -0.3713  0.8533
   74MOL  Cl105 9011   8.257   1.909   5.295 -0.3247  0.1831 -0.1086
   74MOL  Cl106 9012   8.443   1.703   5.368  0.0759  0.1700 -0.2259
   74MOL   C107 9013   8.221   1.719   5.501  0.0262  0.1431 -0.4400
   74MOL   H108 9014   8.273   1.633   5.544 -0.9034  0.5050  1.4745
   74MOL   H109 9015   8.261   1.803   5.558 -0.1566 -0.8668  1.2118
   74MOL   C110 9016   8.072   1.702   5.540  0.4786 -0.4356  0.0433
   74MOL  Cl111 9017   8.081   1.719   5.710  0.3861 -0.5598  0.5485
   74MOL  Cl112 9018   8.020   1.541   5.490  0.0752  0.0289  0.2944
   74MOL   C113 9019   7.980   1.816   5.478  0.2557  0.1401  0.4607
   74MOL   H114 9020   8.011   1.905   5.531 -1.0157 -0.3135  2.0132
   74MOL   H115 9021   7.995   1.824   5.370  0.6093 -2.0412  0.3165
   74MOL   C116 9022   7.826   1.803   5.491 -0.1778  0.1861 -0.3017
   74MOL  Cl117 9023   7.758   1.684   5.372 -0.2646  0.3960  0.0382
   74MOL  Cl118 9024   7.752   1.950   5.450  0.2260 -0.5063  0.1547
   74MOL   C119 9025   7.777   1.771   5.633 -0.1264  0.3760  0.2478
   74MOL   H120 9026   7.819   1.830   5.714  1.3739 -0.7638  0.3136
   74MOL   H121 9027   7.669   1.780   5.644  0.0812  2.6145  0.5424
   74MOL   H122 9028   7.808   1.669   5.657  0.6231  1.0382  2.1492
   75MOL     C1 9029   5.093   7.834   4.753 -0.4440 -0.5383 -0.6229
   75MOL    Cl2 9030   4.978   7.901   4.633 -0.1768 -0.2525 -0.2937
   75MOL    Cl3 9031   5.156   7.682   4.684  0.2017 -0.2220 -0.0971
   75MOL     C4 9032   5.202   7.945   4.781 -0.4906  0.3039 -0.4920
   75MOL     H5 9033   5.231   7.984   4.684  0.2726 -0.2015 -0.4761
   75MOL     H6 9034   5.148   8.029   4.826 -1.2604  0.8902 -2.4893
   75MOL     H7 9035   5.037   7.806   4.841 -1.2797 -1.3004 -1.3852
   75MOL     C8 9036   5.332   7.919   4.866  0.1827  0.0647 -0.2701
   75MOL    Cl9 9037   5.269   7.836   5.012 -0.1392  0.4887  0.2990
   75MOL   Cl10 9038   5.393   8.080   4.905  0.0063  0.1562  0.2234
   75MOL    C11 9039   5.429   7.836   4.784 -0.0387  0.5297  0.2833
   75MOL    H12 9040   5.391   7.735   4.772 -1.1418  0.7463  1.7882
   75MOL    H13 9041   5.429   7.876   4.682 -1.4440 -1.4025 -0.4995
   75MOL    C14 9042   5.580   7.821   4.833 -0.7717  0.0514  0.0209
   75MOL   Cl15 9043   5.661   7.978   4.810 -0.2013 -0.1196  0.4617
   75MOL   Cl16 9044   5.657   7.710   4.712  0.3956 -0.0041  0.0872
   75MOL    C17 9045   5.592   7.756   4.972  0.3808  0.4177 -0.1707
   75MOL    H18 9046   5.549   7.824   5.045  0.6457 -1.1041  1.4587
   75MOL    H19 9047   5.538   7.661   4.976  1.0751 -0.1440 -3.2779
   75MOL    C20 9048   5.728   7.702   5.031 -0.0814  0.4516 -0.4949
   75MOL   Cl21 9049   5.770   7.539   4.964  0.1152 -0.3065  0.3203
   75MOL   Cl22 9050   5.704   7.683   5.208  0.3137  0.0848 -0.4359
   75MOL    C23 9051   5.839   7.802   5.000  0.4043  1.0247 -0.2315
   75MOL    H24 9052   5.858   7.799   4.892 -2.3717  1.6987 -0.7843
   75MOL    H25 9053   5.791   7.896   5.029 -0.8327  0.2706  0.2242
   75MOL    C26 9054   5.979   7.797   5.069 -0.1887  0.4700  0.5679
   75MOL   Cl27 9055   5.973   7.866   5.236  0.1345 -0.2450  0.1631
   75MOL   Cl28 9056   6.080   7.887   4.958 -0.0165 -0.1849 -0.0335
   75MOL    C29 9057   6.037   7.654   5.070 -0.2192  0.1185  0.0120
   75MOL    H30 9058   5.975   7.593   5.135 -0.2445  1.2275  1.0510
   75MOL    H31 9059   6.015   7.611   4.972 -2.5987 -0.2250  0.6814
   75MOL    C32 9060   6.190   7.606   5.094  0.0614  1.3002 -0.4207
   75MOL   Cl33 9061   6.261   7.702   5.229 -0.1882 -0.2198 -0.2395
   75MOL   Cl34 9062   6.289   7.634   4.949 -0.3038  0.1703  0.1434
   75MOL    C35 9063   6.204   7.452   5.133  0.0136 -0.0085  0.3311
   75MOL    H36 9064   6.313   7.444   5.143 -0.2344 -1.5408  2.1139
   75MOL    H37 9065   6.173   7.454   5.237  1.5472 -1.5969  0.8480
   75MOL    C38 9066   6.138   7.331   5.062 -0.0430 -0.8472 -0.9376
   75MOL   Cl39 9067   6.163   7.352   4.890 -0.1772  0.0042 -0.1548
   75MOL   Cl40 9068   5.962   7.337   5.100 -0.1700  0.2828 -0.1903
   75MOL    C41 9069   6.195   7.193   5.107  0.1592  0.0232  0.3946
   75MOL    H42 9070   6.127   7.145   5.177  1.2707  0.9008  2.1013
   75MOL    H43 9071   6.183   7.133   5.017  2.9555  0.7214 -0.5033
   75MOL    C44 9072   6.352   7.174   5.136 -0.1891 -0.3805  0.0555
   75MOL   Cl45 9073   6.392   7.228   5.311  0.2723 -0.0936  0.2427
   75MOL   Cl46 9074   6.455   7.275   5.031 -0.5104 -0.1338 -0.1145
   75MOL    C47 9075   6.396   7.027   5.109  0.3614 -0.0080 -0.2753
   75MOL    H48 9076   6.357   6.995   5.013  3.1987  0.6973 -1.7302
   75MOL    H49 9077   6.504   7.024   5.089  0.5776  1.7123  0.5268
   75MOL    C50 9078   6.378   6.908   5.205  0.0049 -0.0086  0.1781
   75MOL   Cl51 9079   6.236   6.926   5.307  0.0504  0.1571  0.0659
   75MOL   Cl52 9080   6.521   6.919   5.318 -0.1968 -0.0786 -0.1775
   75MOL    C53 9081   6.380   6.769   5.127 -0.1290  0.0794  0.2751
   75MOL    H54 9082   6.466   6.774   5.060  0.1901  0.5587  0.7084
   75MOL    H55 9083   6.406   6.682   5.188 -0.2589 -0.4609 -0.4388
   75MOL    C56 9084   6.247   6.716   5.066 -0.4973  0.5460  0.0601
   75MOL   Cl57 9085   6.134   6.843   5.018  0.3546 -0.1743  0.1540
   75MOL   Cl58 9086   6.142   6.632   5.187  0.0465 -0.4075  0.1979
   75MOL    C59 9087   6.265   6.620   4.935 -0.7015  0.6180 -0.3360
   75MOL    H60 9088   6.167   6.578   4.914  0.6424 -1.4104 -2.8235
   75MOL    H61 9089   6.301   6.672   4.846  0.8627  0.7853  0.3738
   75MOL    C62 9090   6.362   6.498   4.933  0.1477 -1.0491  0.3456
   75MOL   Cl63 9091   6.319   6.393   5.069  0.0234  0.5408  0.1934
   75MOL   Cl64 9092   6.528   6.549   4.949 -0.5429 -0.0564 -0.0361
   75MOL    C65 9093   6.335   6.418   4.793 -0.0429 -0.2999 -0.7214
   75MOL    H66 9094   6.244   6.361   4.813 -0.2154  0.4424  0.6680
   75MOL    H67 9095   6.315   6.494   4.718  0.0481 -0.4748 -0.9229
   75MOL    C68 9096   6.434   6.323   4.725  0.4416  0.1384  1.3104
   75MOL   Cl69 9097   6.556   6.416   4.627 -0.0825 -0.0350  0.0207
   75MOL   Cl70 9098   6.327   6.224   4.623 -0.1167 -0.1077 -0.2136
   75MOL    C71 9099   6.504   6.230   4.822 -0.3765  0.2277 -1.0031
   75MOL    H72 9100   6.569   6.290   4.886 -0.6250 -0.5112 -0.0527
   75MOL    H73 9101   6.426   6.203   4.893  0.0592  0.3816 -0.4579
   75MOL    C74 9102   6.592   6.103   4.784 -0.4801  0.5769 -0.4387
   75MOL   Cl75 9103   6.662   6.031   4.931 -0.0323  0.2473  0.1838
   75MOL   Cl76 9104   6.731   6.143   4.689  0.4888 -0.1023  0.0733
   75MOL    C77 9105   6.520   5.995   4.694 -0.5745  0.1000 -1.4851
   75MOL    H78 9106   6.491   6.036   4.598 -1.2107 -2.1666 -2.2900
   75MOL    H79 9107   6.600   5.927   4.664 -1.0744 -1.1771 -0.0231
   75MOL    C80 9108   6.405   5.904   4.751 -0.2031  0.1995  0.4195
   75MOL   Cl81 9109   6.288   5.997   4.849 -0.2017 -0.0023  0.2605
   75MOL   Cl82 9110   6.479   5.783   4.860 -0.0938  0.4618 -0.3842
   75MOL    C83 9111   6.331   5.837   4.635 -0.3444 -0.0004 -0.0598
   75MOL    H84 9112   6.295   5.913   4.566  0.5205  0.0840 -0.4308
   75MOL    H85 9113   6.408   5.784   4.579 -0.7620  0.0882 -0.7287
   75MOL    C86 9114   6.209   5.741   4.643 -0.1876 -0.4641  0.1783
   75MOL   Cl87 9115   6.163   5.685   4.483  0.4425 -0.5736  0.2194
   75MOL   Cl88 9116   6.070   5.827   4.714 -0.0608 -0.2483 -0.1075
   75MOL    C89 9117   6.226   5.616   4.732 -0.6988 -0.1466 -0.2097
   75MOL    H90 9118   6.256   5.663   4.826 -0.4574 -0.3456 -0.1846
   75MOL    H91 9119   6.129   5.571   4.749  0.4090 -1.7458  2.1004
   75MOL    C92 9120   6.328   5.490   4.701  0.4993 -0.0942 -0.6487
   75MOL   Cl93 9121   6.343   5.423   4.868  0.4534  0.1338  0.0572
   75MOL   Cl94 9122   6.494   5.529   4.645 -0.1124  0.3139  0.1352
   75MOL    C95 9123   6.267   5.386   4.602  0.4896  0.0333 -0.0305
   75MOL    H96 9124   6.162   5.370   4.626 -0.1619  1.9842 -1.4593
   75MOL    H97 9125   6.258   5.434   4.504 -1.4664 -1.1130 -0.4256
   75MOL    C98 9126   6.331   5.243   4.585  0.1265  0.3359  0.0160
   75MOL   Cl99 9127   6.255   5.182   4.428  0.7844 -0.3538  0.0716
   75MOL  Cl100 9128   6.264   5.133   4.717  0.2529 -0.0360 -0.5710
   75MOL   C101 9129   6.488   5.235   4.579 -0.7974  0.1918 -0.7617
   75MOL   H102 9130   6.520   5.292   4.492  0.3842 -0.4766 -0.7797
   75MOL   H103 9131   6.540   5.284   4.662  1.1675  0.2813 -2.0014
   75MOL   C104 9132   6.566   5.098   4.571  0.7017  0.0853 -1.0473
   75MOL  Cl105 9133   6.474   4.971   4.474  0.2545  0.3338  0.1884
   75MOL  Cl106 9134   6.582   5.036   4.733 -0.3436  0.2032 -0.0485
   75MOL   C107 9135   6.709   5.108   4.520 -0.7925 -0.2745 -0.1467
   75MOL   H108 9136   6.767   5.137   4.607 -0.4514  2.0150 -1.1208
   75MOL   H109 9137   6.744   5.010   4.486 -0.3532  0.2294 -1.1713
   75MOL   C110 9138   6.759   5.209   4.407 -0.1982  0.2040  0.1442
   75MOL  Cl111 9139   6.749   5.379   4.464  0.2574  0.3596 -0.6506
   75MOL  Cl112 9140   6.646   5.209   4.275 -0.1553  0.1852 -0.1039
   75MOL   C113 9141   6.896   5.187   4.347 -0.2218  0.5310 -0.0645
   75MOL   H114 9142   6.891   5.093   4.292  1.2636  1.0175 -1.0474
   75MOL   H115 9143   6.919   5.256   4.265  2.3446  1.5465  1.4545
   75MOL   C116 9144   7.028   5.160   4.433 -0.2229  0.1024 -0.4372
   75MOL  Cl117 9145   7.026   4.991   4.491 -0.3416 -0.3703  0.0554
   75MOL  Cl118 9146   7.045   5.274   4.565 -0.2438 -0.2776  0.1254
   75MOL   C119 9147   7.150   5.177   4.335  0.4154 -0.2268 -0.7934
   75MOL   H120 9148   7.244   5.157   4.386 -0.3333  0.8363  1.0268
   75MOL   H121 9149   7.141   5.097   4.261  0.9776 -0.5105 -0.5554
   75MOL   H122 9150   7.154   5.280   4.298  0.5624  0.2406  0.5061
   76MOL     C1 9151   1.290   4.070   2.667 -0.1597  0.5589  0.2927
   76MOL    Cl2 9152   1.110   4.099   2.663  0.2888 -0.1519 -0.3125
   76MOL    Cl3 9153   1.317   3.906   2.613 -0.0265  0.4699 -0.0829
   76MOL     C4 9154   1.366   4.174   2.580  0.4004  0.4440  0.4249
   76MOL     H5 9155   1.457   4.125   2.544  1.2457  2.4369 -0.2669
   76MOL     H6 9156   1.298   4.192   2.497 -1.8922 -0.6029  2.0255
   76MOL     H7 9157   1.317   4.086   2.771 -1.5919  0.4810  0.6901
   76MOL     C8 9158   1.426   4.295   2.650 -1.2048  0.1476 -0.0139
   76MOL    Cl9 9159   1.556   4.220   2.758  0.0463  0.0358  0.0593
   76MOL   Cl10 9160   1.304   4.374   2.761 -0.0569 -0.3807 -0.1552
   76MOL    C11 9161   1.495   4.401   2.556 -0.1786  0.2719 -0.0992
   76MOL    H12 9162   1.521   4.484   2.622 -0.3074  0.8985 -0.8298
   76MOL    H13 9163   1.594   4.363   2.531  0.5633  0.5123  2.3646
   76MOL    C14 9164   1.425   4.456   2.431  0.2412 -0.0994 -0.2173
   76MOL   Cl15 9165   1.267   4.520   2.460 -0.2699  0.0487 -0.1721
   76MOL   Cl16 9166   1.414   4.315   2.327 -0.0000 -0.5917  0.1136
   76MOL    C17 9167   1.509   4.565   2.354  0.5431  0.4167  0.1843
   76MOL    H18 9168   1.577   4.507   2.290 -0.0210 -1.2417  1.0531
   76MOL    H19 9169   1.430   4.604   2.291 -0.8801 -2.1734  0.3017
   76MOL    C20 9170   1.582   4.685   2.420 -0.2713 -0.4193  0.1627
   76MOL   Cl21 9171   1.726   4.619   2.483 -0.1101 -0.1980  0.0969
   76MOL   Cl22 9172   1.491   4.759   2.547 -0.2492 -0.3027 -0.3624
   76MOL    C23 9173   1.597   4.799   2.315  0.8923  0.0376  0.8373
   76MOL    H24 9174   1.499   4.845   2.300  1.1367  0.2944 -0.0304
   76MOL    H25 9175   1.649   4.881   2.364 -3.5786  2.4853  1.7485
   76MOL    C26 9176   1.654   4.777   2.169 -0.4214 -0.1049  0.8226
   76MOL   Cl27 9177   1.568   4.656   2.067 -0.2450  0.2989 -0.2164
   76MOL   Cl28 9178   1.813   4.721   2.195 -0.3839 -0.4344  0.0477
   76MOL    C29 9179   1.670   4.906   2.086 -0.1400  0.4183 -0.3599
   76MOL    H30 9180   1.747   4.970   2.129  2.6507 -1.7580 -1.9199
   76MOL    H31 9181   1.710   4.876   1.989  0.2301 -0.9249  0.1897
   76MOL    C32 9182   1.555   5.007   2.078 -0.4573  0.6051 -0.1702
   76MOL   Cl33 9183   1.555   5.104   2.231  0.2861 -0.1685 -0.1793
   76MOL   Cl34 9184   1.399   4.922   2.066  0.3786 -0.2282 -0.0222
   76MOL    C35 9185   1.570   5.106   1.959  0.2567  0.3226 -0.2942
   76MOL    H36 9186   1.547   5.052   1.867 -1.3956  2.0651 -0.9532
   76MOL    H37 9187   1.492   5.183   1.967  0.8465  0.8517  0.4739
   76MOL    C38 9188   1.697   5.193   1.923 -0.5082 -0.8112  0.4722
   76MOL   Cl39 9189   1.826   5.080   1.858  0.0537  0.1912 -0.0263
   76MOL   Cl40 9190   1.758   5.286   2.064 -0.2473  0.3107 -0.0984
   76MOL    C41 9191   1.657   5.302   1.827 -0.2975  0.0036  0.7931
   76MOL    H42 9192   1.581   5.269   1.757 -0.8002  0.6878  1.0097
   76MOL    H43 9193   1.600   5.373   1.886 -0.6190  0.4290 -0.0161
   76MOL    C44 9194   1.753   5.369   1.725 -0.5186  0.4522  0.1612
   76MOL   Cl45 9195   1.670   5.516   1.661  0.0458 -0.5596 -0.3988
   76MOL   Cl46 9196   1.779   5.254   1.594 -0.0752 -0.2968  0.2981
   76MOL    C47 9197   1.880   5.412   1.795 -0.2328  0.3714 -0.0524
   76MOL    H48 9198   1.850   5.475   1.879 -0.7390  0.8651 -0.6086
   76MOL    H49 9199   1.922   5.318   1.832 -0.9375  0.9049  2.2085
   76MOL    C50 9200   1.999   5.476   1.719  0.1184  0.5901 -0.4719
   76MOL   Cl51 9201   2.102   5.344   1.655 -0.3792  0.3605  0.2840
   76MOL   Cl52 9202   2.092   5.543   1.855 -0.1123 -0.2081 -0.2495
   76MOL    C53 9203   1.973   5.576   1.599  0.3308  0.7698  0.2710
   76MOL    H54 9204   1.912   5.514   1.534 -1.2048  0.3868  2.0224
   76MOL    H55 9205   1.899   5.649   1.631 -1.5874 -0.5264 -1.0678
   76MOL    C56 9206   2.088   5.640   1.515  0.2739  0.0605 -0.3092
   76MOL   Cl57 9207   2.007   5.766   1.411  0.0414 -0.2767 -0.0852
   76MOL   Cl58 9208   2.149   5.519   1.400 -0.0649 -0.4635 -0.2199
   76MOL    C59 9209   2.214   5.703   1.599  0.3927 -0.8629  0.0206
   76MOL    H60 9210   2.184   5.760   1.686  1.0469  0.0709 -0.3519
   76MOL    H61 9211   2.257   5.619   1.654  2.2609 -0.5784 -0.9671
   76MOL    C62 9212   2.334   5.782   1.537 -0.2838  0.2172  0.5842
   76MOL   Cl63 9213   2.274   5.935   1.466  0.0496  0.0144 -0.2661
   76MOL   Cl64 9214   2.420   5.685   1.409 -0.2872 -0.3876 -0.1376
   76MOL    C65 9215   2.437   5.840   1.639 -0.0892 -0.1264 -0.1110
   76MOL    H66 9216   2.508   5.900   1.581  0.6157 -0.9849 -0.1548
   76MOL    H67 9217   2.387   5.915   1.700 -0.0010 -0.3635  0.2524
   76MOL    C68 9218   2.515   5.745   1.741  0.4698 -0.0375  0.1871
   76MOL   Cl69 9219   2.404   5.714   1.879 -0.2488  0.3573  0.3314
   76MOL   Cl70 9220   2.647   5.846   1.793  0.1660  0.3430 -0.2517
   76MOL    C71 9221   2.571   5.614   1.675  0.0665  0.0352 -0.3689
   76MOL    H72 9222   2.487   5.571   1.621 -1.7870  0.6119  1.9611
   76MOL    H73 9223   2.629   5.635   1.585  0.1573 -4.8130 -1.5601
   76MOL    C74 9224   2.634   5.495   1.754  0.1367 -0.0584 -0.6229
   76MOL   Cl75 9225   2.517   5.419   1.858  0.1673 -0.0847 -0.2382
   76MOL   Cl76 9226   2.758   5.560   1.870 -0.2240  0.2968 -0.0611
   76MOL    C77 9227   2.716   5.385   1.667 -0.4159 -0.6631 -0.4212
   76MOL    H78 9228   2.810   5.424   1.627  1.0236 -1.1159  2.3797
   76MOL    H79 9229   2.749   5.312   1.741 -1.2797  0.3653  0.9875
   76MOL    C80 9230   2.653   5.298   1.550 -0.2532  0.3763 -0.9301
   76MOL   Cl81 9231   2.784   5.195   1.502 -0.2543  0.0344  0.1276
   76MOL   Cl82 9232   2.608   5.397   1.396 -0.1955 -0.1597 -0.2248
   76MOL    C83 9233   2.530   5.214   1.605 -0.1575 -0.9125  0.5791
   76MOL    H84 9234   2.563   5.149   1.686 -1.9044 -0.4297  1.7168
   76MOL    H85 9235   2.470   5.292   1.652  2.0996  0.8418  0.6456
   76MOL    C86 9236   2.445   5.133   1.513  0.6479 -0.6715 -0.7946
   76MOL   Cl87 9237   2.337   5.237   1.419 -0.0800 -0.0865 -0.1174
   76MOL   Cl88 9238   2.338   5.036   1.622 -0.3228  0.2002 -0.0069
   76MOL    C89 9239   2.526   5.039   1.413  0.0902 -0.0689 -0.5506
   76MOL    H90 9240   2.562   5.117   1.345 -1.2723 -2.1392 -3.7634
   76MOL    H91 9241   2.612   5.004   1.469  1.0747  0.3147 -1.8011
   76MOL    C92 9242   2.472   4.921   1.329 -1.0362  0.1329  0.2379
   76MOL   Cl93 9243   2.323   4.962   1.243  0.0751 -0.5650 -0.0941
   76MOL   Cl94 9244   2.438   4.782   1.434 -0.4716 -0.2482 -0.0726
   76MOL    C95 9245   2.575   4.864   1.226  0.0471 -0.0807  0.2422
   76MOL    H96 9246   2.649   4.799   1.272  0.1263 -1.2715 -1.5151
   76MOL    H97 9247   2.509   4.802   1.165  0.5970 -1.0852  0.6552
   76MOL    C98 9248   2.652   4.956   1.123  0.1582  0.0838  0.4240
   76MOL   Cl99 9249   2.777   5.044   1.204 -0.1678 -0.3288  0.1667
   76MOL  Cl100 9250   2.560   5.070   1.031  0.3020  0.1140  0.5915
   76MOL   C101 9251   2.727   4.878   1.012  0.5896  0.5349 -0.0224
   76MOL   H102 9252   2.662   4.846   0.930  0.3987 -0.4006  0.4912
   76MOL   H103 9253   2.790   4.949   0.958  1.9966 -1.1299 -0.6272
   76MOL   C104 9254   2.816   4.752   1.043  0.3840  0.2325  0.3147
   76MOL  Cl105 9255   2.890   4.718   0.885  0.6784 -0.3493  0.2452
   76MOL  Cl106 9256   2.703   4.614   1.073 -0.1238  0.0547  0.0212
   76MOL   C107 9257   2.918   4.769   1.156  0.7194  0.5933  0.1067
   76MOL   H108 9258   2.982   4.847   1.114  1.2094  0.0349 -0.1987
   76MOL   H109 9259   2.875   4.816   1.244 -1.1924 -2.3991  0.8260
   76MOL   C110 9260   3.018   4.653   1.199  0.2852  0.2463  0.0582
   76MOL  Cl111 9261   3.121   4.608   1.061 -0.5127  0.2564 -0.1229
   76MOL  Cl112 9262   2.931   4.512   1.257  0.1822 -0.5168 -0.0389
   76MOL   C113 9263   3.117   4.691   1.312 -0.0007 -0.4716 -0.4742
   76MOL   H114 9264   3.066   4.676   1.407  0.9025  0.2014  0.1218
   76MOL   H115 9265   3.195   4.615   1.307  1.9631  1.5403 -1.1569
   76MOL   C116 9266   3.178   4.834   1.322  0.3628  0.2824 -0.1775
   76MOL  Cl117 9267   3.061   4.945   1.379 -0.0883  0.2412  0.2184
   76MOL  Cl118 9268   3.250   4.891   1.168 -0.1934  0.0645  0.3549
   76MOL   C119 9269   3.291   4.837   1.426 -0.3325  0.1083 -0.1642
   76MOL   H120 9270   3.361   4.758   1.397  0.9469  1.6938 -1.4957
   76MOL   H121 9271   3.349   4.929   1.426 -0.3708  0.1373  1.0988
   76MOL   H122 9272   3.246   4.817   1.523  0.2133  0.1339  0.0942
   77MOL     C1 9273   6.629   2.593   7.426 -0.3613 -0.1261  0.2922
   77MOL    Cl2 9274   6.534   2.703   7.534  0.0918 -0.0175  0.1609
   77MOL    Cl3 9275   6.675   2.452   7.526  0.1090  0.3295 -0.2844
   77MOL     C4 9276   6.534   2.545   7.307  0.0470 -0.1988  0.4286
   77MOL     H5 9277   6.464   2.471   7.346  1.1021 -1.3091  0.2647
   77MOL     H6 9278   6.477   2.631   7.273 -0.3064  0.6089  2.8925
   77MOL     H7 9279   6.719   2.649   7.401 -0.7953  0.6477  0.4331
   77MOL     C8 9280   6.605   2.491   7.181 -0.0581 -0.0209  0.2642
   77MOL    Cl9 9281   6.710   2.350   7.216  0.2272 -0.1259 -0.3961
   77MOL   Cl10 9282   6.717   2.619   7.119 -0.0369  0.1400 -0.3843
   77MOL    C11 9283   6.523   2.417   7.068  0.3301 -0.0261  0.4496
   77MOL    H12 9284   6.596   2.410   6.988  2.6575 -2.0285  2.6649
   77MOL    H13 9285   6.501   2.318   7.108 -0.5094  0.5857  1.5480
   77MOL    C14 9286   6.386   2.489   7.011 -0.2212  0.3041  0.4478
   77MOL   Cl15 9287   6.426   2.658   6.988 -0.3454 -0.3460 -0.2608
   77MOL   Cl16 9288   6.256   2.487   7.130 -0.3087  0.0641  0.3834
   77MOL    C17 9289   6.332   2.435   6.871  0.6015  0.3028 -0.4594
   77MOL    H18 9290   6.251   2.495   6.830 -0.6706 -1.6515 -0.8719
   77MOL    H19 9291   6.411   2.458   6.800  0.6703  0.9771 -0.1691
   77MOL    C20 9292   6.295   2.286   6.853 -0.4542 -0.0419  0.0442
   77MOL   Cl21 9293   6.158   2.249   6.947 -0.2751 -0.2160 -0.3308
   77MOL   Cl22 9294   6.435   2.180   6.892 -0.2147 -0.3772  0.1421
   77MOL    C23 9295   6.280   2.243   6.703  0.5281 -0.0603  0.9141
   77MOL    H24 9296   6.366   2.285   6.652 -0.2040 -0.6463 -0.8807
   77MOL    H25 9297   6.298   2.136   6.690  1.9229  0.1534  1.0628
   77MOL    C26 9298   6.153   2.274   6.619 -0.0199 -0.5428  0.1724
   77MOL   Cl27 9299   6.129   2.452   6.628 -0.0243 -0.4950 -0.3352
   77MOL   Cl28 9300   6.011   2.196   6.688  0.1321 -0.1605 -0.0361
   77MOL    C29 9301   6.176   2.242   6.470 -0.0941 -0.2813  0.9875
   77MOL    H30 9302   6.072   2.250   6.439  0.1012 -0.6297  0.2426
   77MOL    H31 9303   6.245   2.315   6.427 -0.3795  1.3470  3.2181
   77MOL    C32 9304   6.237   2.103   6.427  0.1371  0.2197  0.1237
   77MOL   Cl33 9305   6.174   1.971   6.530  0.0600 -0.2250 -0.0824
   77MOL   Cl34 9306   6.414   2.112   6.452  0.0020  0.1490 -0.2315
   77MOL    C35 9307   6.196   2.066   6.283 -0.2015 -0.4328 -0.4827
   77MOL    H36 9308   6.220   1.961   6.267 -0.0741  0.0254 -3.8101
   77MOL    H37 9309   6.087   2.067   6.271 -0.3007  0.0852  0.4612
   77MOL    C38 9310   6.254   2.149   6.163  0.1000 -0.4863 -0.2585
   77MOL   Cl39 9311   6.434   2.144   6.158 -0.0658  0.1929 -0.2771
   77MOL   Cl40 9312   6.206   2.322   6.160  0.0242  0.1544 -0.0896
   77MOL    C41 9313   6.214   2.103   6.023  0.0880  0.1338  0.4996
   77MOL    H42 9314   6.120   2.153   5.999  0.4375  0.3509 -0.4306
   77MOL    H43 9315   6.288   2.144   5.954  0.0651 -0.4469  0.1250
   77MOL    C44 9316   6.191   1.956   5.978 -0.3166  0.0851 -0.2154
   77MOL   Cl45 9317   6.050   1.886   6.049 -0.3600 -0.2790  0.2355
   77MOL   Cl46 9318   6.322   1.854   6.038  0.2251 -0.2591  0.3227
   77MOL    C47 9319   6.191   1.937   5.825 -0.0834 -0.9570 -0.5408
   77MOL    H48 9320   6.297   1.946   5.803 -0.2914  1.4966 -0.6150
   77MOL    H49 9321   6.163   1.832   5.815  1.9627 -1.4217 -1.7302
   77MOL    C50 9322   6.109   2.023   5.724 -0.3423  0.5911  0.5171
   77MOL   Cl51 9323   6.176   2.186   5.698 -0.3363  0.0621 -0.3501
   77MOL   Cl52 9324   5.943   2.050   5.796  0.0428 -0.3590  0.1358
   77MOL    C53 9325   6.081   1.961   5.585 -0.1769 -1.1607  0.0286
   77MOL    H54 9326   5.990   2.011   5.554  0.2186 -0.4370  0.0103
   77MOL    H55 9327   6.160   1.986   5.514 -1.6019 -2.1068 -1.9356
   77MOL    C56 9328   6.038   1.814   5.553 -0.6002  1.1446 -0.3705
   77MOL   Cl57 9329   5.908   1.754   5.660  0.1617  0.5232 -0.1694
   77MOL   Cl58 9330   6.175   1.703   5.581 -0.0671 -0.2658 -0.2621
   77MOL    C59 9331   5.973   1.794   5.411  0.6120 -0.5149  0.3262
   77MOL    H60 9332   5.971   1.687   5.394  1.0881 -0.1061 -2.4899
   77MOL    H61 9333   5.871   1.830   5.427  1.4570  1.5727  1.2729
   77MOL    C62 9334   6.023   1.875   5.278  0.5627  0.6233 -0.0034
   77MOL   Cl63 9335   6.199   1.856   5.270 -0.4956  0.2809  0.0885
   77MOL   Cl64 9336   5.989   2.050   5.260 -0.1069  0.3221 -0.5327
   77MOL    C65 9337   5.971   1.807   5.145  0.2769  0.0202  0.1962
   77MOL    H66 9338   6.032   1.862   5.073  0.9082 -0.9594 -0.0334
   77MOL    H67 9339   6.012   1.706   5.146  2.3638  0.8029 -1.4248
   77MOL    C68 9340   5.815   1.820   5.107 -0.3104  0.0140 -0.1961
   77MOL   Cl69 9341   5.743   1.987   5.080 -0.6517 -0.7007  0.0702
   77MOL   Cl70 9342   5.714   1.750   5.236  0.3361  0.1224  0.0709
   77MOL    C71 9343   5.792   1.738   4.976  0.0487 -0.4376  0.3472
   77MOL    H72 9344   5.789   1.631   5.001 -0.6339 -0.3211  0.7905
   77MOL    H73 9345   5.689   1.754   4.942 -0.2220  1.4263  1.9678
   77MOL    C74 9346   5.885   1.740   4.849  0.2058  0.3918  0.0074
   77MOL   Cl75 9347   6.050   1.664   4.885  0.2397  0.0823 -0.2275
   77MOL   Cl76 9348   5.910   1.904   4.789 -0.1721  0.1344  0.2418
   77MOL    C77 9349   5.846   1.630   4.744  0.7208  0.7631  0.4980
   77MOL    H78 9350   5.923   1.599   4.674  1.2451  0.4257  1.2301
   77MOL    H79 9351   5.810   1.537   4.788  0.4331  0.9841  0.7313
   77MOL    C80 9352   5.727   1.665   4.641 -0.0767 -0.7268  0.2821
   77MOL   Cl81 9353   5.785   1.750   4.496 -0.2246  0.1206 -0.0411
   77MOL   Cl82 9354   5.598   1.769   4.710  0.2155  0.6243 -0.4916
   77MOL    C83 9355   5.649   1.544   4.594  0.3519 -0.0766  0.0946
   77MOL    H84 9356   5.617   1.513   4.693  0.5215 -0.0725  0.1492
   77MOL    H85 9357   5.561   1.580   4.539 -0.3773 -1.0081  0.6325
   77MOL    C86 9358   5.708   1.417   4.518  0.0338 -0.0626 -0.1380
   77MOL   Cl87 9359   5.572   1.302   4.513  0.1149 -0.1102 -0.1088
   77MOL   Cl88 9360   5.841   1.346   4.620 -0.1497 -0.0854 -0.0738
   77MOL    C89 9361   5.763   1.456   4.378 -0.0673 -0.8240  0.7405
   77MOL    H90 9362   5.716   1.546   4.340  0.8028 -0.3397  0.7936
   77MOL    H91 9363   5.863   1.499   4.388 -0.0955 -0.5662 -0.1149
   77MOL    C92 9364   5.783   1.357   4.259  0.4016  0.5779 -0.2323
   77MOL   Cl93 9365   5.853   1.453   4.120  0.0046  0.3148 -0.1856
   77MOL   Cl94 9366   5.622   1.289   4.206  0.6241  0.6320 -0.1171
   77MOL    C95 9367   5.888   1.244   4.292  0.3064 -0.2962 -0.6071
   77MOL    H96 9368   5.977   1.295   4.327  0.2793  0.7311 -2.0109
   77MOL    H97 9369   5.861   1.185   4.381 -1.1574  0.9140 -0.2306
   77MOL    C98 9370   5.945   1.138   4.189 -0.5357 -0.1141 -0.9766
   77MOL   Cl99 9371   6.058   1.030   4.267  0.5168 -0.2281 -0.1388
   77MOL  Cl100 9372   6.042   1.223   4.063  0.0234 -0.4695  0.1461
   77MOL   C101 9373   5.842   1.044   4.113  0.9187  0.2646 -0.3892
   77MOL   H102 9374   5.773   1.112   4.064 -2.7888 -3.9007 -1.3503
   77MOL   H103 9375   5.900   1.004   4.030  0.3418  1.4646 -1.3816
   77MOL   C104 9376   5.773   0.925   4.182  0.5566 -0.0326 -0.2606
   77MOL  Cl105 9377   5.707   0.973   4.346  0.0489  0.1845  0.3786
   77MOL  Cl106 9378   5.885   0.791   4.216  0.1439  0.8821  0.1114
   77MOL   C107 9379   5.659   0.874   4.076 -0.3152  0.2182  0.1895
   77MOL   H108 9380   5.580   0.949   4.075 -1.2056 -0.6992 -2.0601
   77MOL   H109 9381   5.696   0.886   3.974 -0.0484  0.3387  0.3029
   77MOL   C110 9382   5.594   0.735   4.080 -1.0616 -0.4270  0.9392
   77MOL  Cl111 9383   5.532   0.682   4.250 -0.0717  0.0178  0.1651
   77MOL  Cl112 9384   5.708   0.609   4.020  0.3265  0.1477 -0.4392
   77MOL   C113 9385   5.471   0.740   3.990  0.6407  0.2546 -0.3142
   77MOL   H114 9386   5.402   0.811   4.036 -1.1127  0.5348 -3.2799
   77MOL   H115 9387   5.499   0.784   3.895  0.2511  0.4948 -0.3194
   77MOL   C116 9388   5.385   0.611   3.959  1.1757  0.0984 -0.0204
   77MOL  Cl117 9389   5.457   0.519   3.828  0.1154 -0.0887 -0.0047
   77MOL  Cl118 9390   5.233   0.671   3.900 -0.0449 -0.0576 -0.2295
   77MOL   C119 9391   5.352   0.506   4.070  0.2145 -0.4691 -0.0116
   77MOL   H120 9392   5.293   0.429   4.019 -0.9284  1.4482 -1.6659
   77MOL   H121 9393   5.443   0.460   4.109  0.7962 -0.3131 -1.1555
   77MOL   H122 9394   5.298   0.541   4.158  2.1878  0.6834  0.7745
   78MOL     C1 9395   1.094   6.028   1.427  0.5329 -0.1257 -0.1293
   78MOL    Cl2 9396   1.013   6.151   1.520  0.4156  0.4070  0.0112
   78MOL    Cl3 9397   1.115   5.896   1.541  0.0778 -0.0930 -0.3064
   78MOL     C4 9398   1.026   5.983   1.293  0.4568 -0.0063  0.0886
   78MOL     H5 9399   1.094   5.920   1.236 -1.8863 -1.4265 -1.2428
   78MOL     H6 9400   0.937   5.923   1.315  0.4692  0.2122  0.7437
   78MOL     H7 9401   1.185   6.076   1.390  0.8317 -1.1178 -0.7205
   78MOL     C8 9402   0.981   6.096   1.192  0.1321  0.3459  0.0689
   78MOL    Cl9 9403   1.129   6.186   1.150 -0.0608 -0.2505 -0.3506
   78MOL   Cl10 9404   0.871   6.219   1.259 -0.0498 -0.2977 -0.0561
   78MOL    C11 9405   0.906   6.034   1.067 -0.3680 -0.0999  0.7701
   78MOL    H12 9406   0.812   5.998   1.107 -1.4614  0.0092 -1.5763
   78MOL    H13 9407   0.888   6.125   1.010  1.2973 -0.3396 -0.1740
   78MOL    C14 9408   0.972   5.926   0.983  0.2390 -0.1074 -0.0511
   78MOL   Cl15 9409   0.969   5.774   1.078  0.0137  0.2803 -0.0250
   78MOL   Cl16 9410   1.151   5.955   0.952 -0.0204 -0.4193 -0.0878
   78MOL    C17 9411   0.915   5.916   0.839  0.0493  0.7832  0.1462
   78MOL    H18 9412   0.933   6.007   0.782  2.7436 -0.2338 -0.7192
   78MOL    H19 9413   0.972   5.845   0.780  0.4346  0.6171  0.7123
   78MOL    C20 9414   0.758   5.891   0.817  0.4798  0.6159  0.1015
   78MOL   Cl21 9415   0.730   5.906   0.634  0.1337 -0.3447  0.1495
   78MOL   Cl22 9416   0.668   6.023   0.887  0.2475  0.2188  0.0342
   78MOL    C23 9417   0.716   5.754   0.871  0.4688 -0.4361 -0.0024
   78MOL    H24 9418   0.794   5.678   0.875 -0.2260 -1.2715 -1.9940
   78MOL    H25 9419   0.716   5.773   0.979 -2.7627 -1.8566  0.3043
   78MOL    C26 9420   0.592   5.666   0.831  0.6379 -0.2355 -0.1116
   78MOL   Cl27 9421   0.447   5.768   0.859  0.1294 -0.0014 -0.0208
   78MOL   Cl28 9422   0.591   5.531   0.942 -0.2092  0.3370 -0.3283
   78MOL    C29 9423   0.581   5.623   0.679 -0.3060 -0.5722 -0.4157
   78MOL    H30 9424   0.484   5.574   0.668 -1.3241  0.8818  1.6514
   78MOL    H31 9425   0.566   5.708   0.612 -1.0662  1.1704  1.8769
   78MOL    C32 9426   0.686   5.527   0.617 -0.0187 -0.1029  0.0938
   78MOL   Cl33 9427   0.849   5.597   0.617  0.2729  0.2495 -0.1702
   78MOL   Cl34 9428   0.637   5.537   0.448 -0.7130 -0.2698  0.1222
   78MOL    C35 9429   0.690   5.379   0.664  0.3486 -0.4183 -0.3192
   78MOL    H36 9430   0.727   5.375   0.767  1.5156 -2.2101 -0.7712
   78MOL    H37 9431   0.586   5.348   0.674 -0.0049 -0.4039 -3.3814
   78MOL    C38 9432   0.762   5.264   0.594  0.2042  0.4287  0.5754
   78MOL   Cl39 9433   0.672   5.220   0.444  0.0954 -0.0708 -0.1769
   78MOL   Cl40 9434   0.765   5.122   0.708  0.3970 -0.5575 -0.0084
   78MOL    C41 9435   0.907   5.304   0.558 -0.2408 -0.8191 -0.4710
   78MOL    H42 9436   0.908   5.383   0.483  1.7644  0.7518  1.1492
   78MOL    H43 9437   0.955   5.349   0.645 -1.4189 -0.1367 -0.1698
   78MOL    C44 9438   1.016   5.200   0.505  0.0891  0.3532  0.1448
   78MOL   Cl45 9439   1.056   5.075   0.637  0.2709 -0.0011  0.0992
   78MOL   Cl46 9440   1.165   5.292   0.490  0.0062 -0.0065  0.7444
   78MOL    C47 9441   0.976   5.144   0.359  0.6986 -0.4987 -0.1051
   78MOL    H48 9442   0.871   5.116   0.365 -0.1508  2.7266  1.0143
   78MOL    H49 9443   0.971   5.229   0.290 -1.1065  0.1608  0.7971
   78MOL    C50 9444   1.056   5.028   0.290 -0.4362  0.1328  0.3712
   78MOL   Cl51 9445   1.050   4.883   0.384 -0.1367  0.1855 -0.0411
   78MOL   Cl52 9446   1.232   5.059   0.287  0.1102 -0.1199 -0.0486
   78MOL    C53 9447   1.023   5.009   0.137 -0.5465 -0.2143 -0.1392
   78MOL    H54 9448   1.078   5.077   0.072 -0.3029  0.7054  1.0184
   78MOL    H55 9449   1.068   4.912   0.114 -1.1784 -1.0774  2.1116
   78MOL    C56 9450   0.876   4.999   0.080  0.5205  0.6694  0.7004
   78MOL   Cl57 9451   0.899   4.947   9.099 -0.0281 -0.1365 -0.1732
   78MOL   Cl58 9452   0.794   5.159   0.077  0.0403 -0.0733  0.3656
   78MOL    C59 9453   0.795   4.892   0.164  0.4986  0.2780 -0.1142
   78MOL    H60 9454   0.849   4.799   0.146 -2.6459 -1.4520 -1.0169
   78MOL    H61 9455   0.798   4.899   0.273  0.1428  1.1229 -0.1574
   78MOL    C62 9456   0.641   4.862   0.145 -0.0138 -0.1504 -0.2982
   78MOL   Cl63 9457   0.615   4.838   9.151  0.0521  0.5145  0.0130
   78MOL   Cl64 9458   0.543   5.005   0.202 -0.3468 -0.1872  0.3473
   78MOL    C65 9459   0.590   4.737   0.219  0.2001 -0.5748  0.0998
   78MOL    H66 9460   0.482   4.747   0.217  0.3702  1.1829 -0.9930
   78MOL    H67 9461   0.606   4.653   0.151  0.2285  1.2167 -2.1543
   78MOL    C68 9462   0.636   4.691   0.364  0.9050  0.5626  0.1603
   78MOL   Cl69 9463   0.654   4.826   0.480 -0.2288 -0.2528  0.0367
   78MOL   Cl70 9464   0.793   4.617   0.341 -0.2617 -0.4296  0.1126
   78MOL    C71 9465   0.555   4.576   0.423  0.8688 -0.6752  0.7025
   78MOL    H72 9466   0.569   4.491   0.357 -0.5409 -0.2584 -0.1645
   78MOL    H73 9467   0.599   4.551   0.519  0.9979  0.9240  1.0747
   78MOL    C74 9468   0.406   4.583   0.451 -0.3123 -0.3512  0.7871
   78MOL   Cl75 9469   0.301   4.617   0.312 -0.3902 -0.1579  0.1054
   78MOL   Cl76 9470   0.357   4.711   0.550  0.3123  0.0294 -0.0391
   78MOL    C77 9471   0.352   4.457   0.520  0.0789  0.5878  0.7935
   78MOL    H78 9472   0.396   4.464   0.620  0.5425  1.9639  0.4992
   78MOL    H79 9473   0.246   4.468   0.540 -0.4272 -1.0624 -0.7866
   78MOL    C80 9474   0.372   4.313   0.458  0.0807 -1.1751 -0.9281
   78MOL   Cl81 9475   0.541   4.254   0.488 -0.2634 -0.4115 -0.4394
   78MOL   Cl82 9476   0.341   4.309   0.281 -0.3019  0.1061 -0.1890
   78MOL    C83 9477   0.277   4.202   0.527 -0.3867  0.2889  0.5632
   78MOL    H84 9478   0.179   4.246   0.542 -1.7331 -2.5523  0.4032
   78MOL    H85 9479   0.254   4.128   0.449  1.7714  1.5537 -1.3379
   78MOL    C86 9480   0.307   4.117   0.665 -0.6946  0.3176 -0.0454
   78MOL   Cl87 9481   0.147   4.069   0.726  0.1048 -0.2184  0.0701
   78MOL   Cl88 9482   0.368   4.229   0.791  0.2887 -0.1243 -0.1322
   78MOL    C89 9483   0.398   3.985   0.663  0.2317  0.4127 -0.1943
   78MOL    H90 9484   0.503   4.006   0.682  0.3273 -0.8519  0.7080
   78MOL    H91 9485   0.372   3.941   0.760 -0.1471  1.6434  0.2713
   78MOL    C92 9486   0.388   3.882   0.542 -0.7974  0.3254 -0.0370
   78MOL   Cl93 9487   0.460   3.966   0.396  0.0412  0.3484 -0.0877
   78MOL   Cl94 9488   0.212   3.850   0.507  0.2303 -0.1012 -0.0786
   78MOL    C95 9489   0.480   3.756   0.567 -0.1151 -0.2483 -0.4213
   78MOL    H96 9490   0.583   3.791   0.576 -0.1048 -0.1766 -0.8067
   78MOL    H97 9491   0.453   3.719   0.665 -2.5013  0.6628 -0.6944
   78MOL    C98 9492   0.466   3.636   0.471 -0.6480 -0.0891  0.3312
   78MOL   Cl99 9493   0.313   3.550   0.519  0.0578  0.0520  0.1164
   78MOL  Cl100 9494   0.598   3.525   0.517  0.1437  0.3099 -0.0833
   78MOL   C101 9495   0.477   3.671   0.316  0.5019 -0.3548  0.5156
   78MOL   H102 9496   0.397   3.743   0.298 -0.2626 -1.5461 -0.9568
   78MOL   H103 9497   0.571   3.723   0.302  0.3448  0.5979  2.7209
   78MOL   C104 9498   0.481   3.561   0.201  0.2899 -0.4187 -1.0918
   78MOL  Cl105 9499   0.626   3.461   0.210 -0.2114 -0.0862 -0.1645
   78MOL  Cl106 9500   0.499   3.655   0.046  0.3623  0.2957  0.0303
   78MOL   C107 9501   0.361   3.461   0.207  0.2255  0.4826 -0.0790
   78MOL   H108 9502   0.380   3.384   0.282 -0.2450  1.0718  0.6563
   78MOL   H109 9503   0.281   3.522   0.249  0.8079  1.4345 -0.3275
   78MOL   C110 9504   0.300   3.391   0.090  0.5383 -0.3698  0.2283
   78MOL  Cl111 9505   0.229   3.514   9.170  0.4183  0.3463 -0.1023
   78MOL  Cl112 9506   0.173   3.287   0.151  0.1267 -0.2350  0.1819
   78MOL   C113 9507   0.412   3.308   0.011 -0.5812 -0.4406 -0.1740
   78MOL   H114 9508   0.501   3.368   9.173 -1.3117  1.0294  0.9453
   78MOL   H115 9509   0.446   3.245   0.093  0.1108  1.3218  0.9416
   78MOL   C116 9510   0.387   3.229   9.064 -0.0714 -0.2265 -0.5121
   78MOL  Cl117 9511   0.343   3.321   8.919 -0.0270  0.0390 -0.3863
   78MOL  Cl118 9512   0.271   3.100   9.087 -0.1420 -0.0862  0.4655
   78MOL   C119 9513   0.522   3.169   9.032 -0.2771 -0.2736  0.2079
   78MOL   H120 9514   0.523   3.093   8.954 -3.3263 -0.1645  0.0156
   78MOL   H121 9515   0.602   3.232   8.992 -1.4147  0.2730 -1.2359
   78MOL   H122 9516   0.552   3.108   9.118  1.4086  1.2384  0.7267
   79MOL     C1 9517   5.904   7.927   2.957 -0.1889 -0.4195  0.1676
   79MOL    Cl2 9518   5.787   8.055   2.956 -0.0587  0.2152 -0.1771
   79MOL    Cl3 9519   6.029   7.967   2.843  0.5883 -0.2989 -0.3094
   79MOL     C4 9520   5.944   7.885   3.102  0.0264  0.3917  1.4051
   79MOL     H5 9521   5.999   7.968   3.147 -0.5583  1.5237  0.0827
   79MOL     H6 9522   5.856   7.866   3.163 -1.7354 -1.2664 -1.5003
   79MOL     H7 9523   5.847   7.844   2.915  0.9459 -1.2744  0.3068
   79MOL     C8 9524   6.032   7.752   3.115  0.7153 -0.0161 -0.0740
   79MOL    Cl9 9525   6.188   7.752   3.032 -0.1485 -0.0303  0.0305
   79MOL   Cl10 9526   5.936   7.622   3.034  0.3653  0.1213 -0.1630
   79MOL    C11 9527   6.072   7.699   3.256 -0.3305 -0.6175 -0.1765
   79MOL    H12 9528   5.977   7.661   3.291 -0.3276 -1.4185 -1.0119
   79MOL    H13 9529   6.142   7.617   3.239  0.0203 -0.1290 -1.1589
   79MOL    C14 9530   6.121   7.794   3.369 -0.1251 -0.2172 -0.6448
   79MOL   Cl15 9531   5.989   7.894   3.403  0.1172 -0.2816 -0.0526
   79MOL   Cl16 9532   6.257   7.897   3.316  0.1659 -0.2841  0.0673
   79MOL    C17 9533   6.166   7.725   3.498  0.5749  0.2329  0.5034
   79MOL    H18 9534   6.265   7.689   3.472  0.2967 -0.6148  0.5932
   79MOL    H19 9535   6.172   7.802   3.575  0.2641  0.8943 -0.1266
   79MOL    C20 9536   6.085   7.603   3.560 -0.0540 -0.0365 -0.0883
   79MOL   Cl21 9537   6.084   7.454   3.466  0.0913  0.0021 -0.4093
   79MOL   Cl22 9538   5.916   7.654   3.577  0.2554 -0.0712 -0.2306
   79MOL    C23 9539   6.145   7.559   3.707  0.5805 -0.4259 -0.2337
   79MOL    H24 9540   6.134   7.654   3.760 -1.3655  0.5465 -2.2634
   79MOL    H25 9541   6.078   7.479   3.740 -0.2513 -0.6585 -2.3821
   79MOL    C26 9542   6.296   7.527   3.721 -0.1220 -0.0567 -0.1214
   79MOL   Cl27 9543   6.313   7.476   3.896 -0.1231 -0.1753  0.0547
   79MOL   Cl28 9544   6.392   7.680   3.704  0.4459 -0.4642 -0.3445
   79MOL    C29 9545   6.352   7.427   3.624 -1.2371  0.3274 -0.4425
   79MOL    H30 9546   6.270   7.357   3.607  0.3093 -1.2398 -1.5212
   79MOL    H31 9547   6.381   7.483   3.535  0.9133  0.3733  0.2726
   79MOL    C32 9548   6.472   7.334   3.657 -0.4773 -0.2309 -0.5290
   79MOL   Cl33 9549   6.404   7.204   3.755 -0.1913  0.1268 -0.1706
   79MOL   Cl34 9550   6.604   7.418   3.754 -0.2984  0.0200  0.0300
   79MOL    C35 9551   6.542   7.263   3.540  0.1237 -0.1732  0.3693
   79MOL    H36 9552   6.627   7.213   3.585  0.2246  1.4301  2.0182
   79MOL    H37 9553   6.483   7.177   3.509  0.9586 -1.2882  1.8092
   79MOL    C38 9554   6.571   7.326   3.405 -0.7090 -0.4231 -0.4833
   79MOL   Cl39 9555   6.638   7.486   3.434 -0.0776  0.2958  0.2973
   79MOL   Cl40 9556   6.422   7.352   3.306  0.3300  0.3265  0.7880
   79MOL    C41 9557   6.684   7.264   3.315 -0.0325  0.6812 -0.3151
   79MOL    H42 9558   6.689   7.322   3.222 -1.7991 -2.7281 -2.6665
   79MOL    H43 9559   6.772   7.285   3.376 -0.9031 -1.0866  1.6145
   79MOL    C44 9560   6.690   7.110   3.275  0.5180 -0.4856 -0.1781
   79MOL   Cl45 9561   6.528   7.051   3.241  0.5089 -0.2254 -0.2131
   79MOL   Cl46 9562   6.745   7.016   3.414  0.2736 -0.2298 -0.5736
   79MOL    C47 9563   6.782   7.068   3.160 -0.4659  0.6264  0.2922
   79MOL    H48 9564   6.885   7.057   3.196 -0.0891 -0.6981 -1.1177
   79MOL    H49 9565   6.757   6.969   3.122  0.1229  1.3535 -2.1242
   79MOL    C50 9566   6.790   7.155   3.024 -0.0198 -0.4338  0.0435
   79MOL   Cl51 9567   6.886   7.053   2.906  0.2560 -0.2509  0.0655
   79MOL   Cl52 9568   6.894   7.294   3.054  0.0622 -0.2294  0.0695
   79MOL    C53 9569   6.649   7.189   2.977 -0.3305 -0.6851  0.5559
   79MOL    H54 9570   6.602   7.091   2.978 -1.6405 -0.0727  1.7524
   79MOL    H55 9571   6.596   7.241   3.057 -0.0496 -0.8739  0.8687
   79MOL    C56 9572   6.627   7.265   2.846  0.1975 -0.7459 -0.9221
   79MOL   Cl57 9573   6.714   7.190   2.707 -0.7016 -0.2901  0.0696
   79MOL   Cl58 9574   6.689   7.434   2.860  0.2262 -0.0284 -0.0837
   79MOL    C59 9575   6.478   7.277   2.791 -0.3002 -0.1900  0.2062
   79MOL    H60 9576   6.495   7.331   2.698  0.2365  0.1928  0.5283
   79MOL    H61 9577   6.440   7.177   2.769 -1.2753  0.1861  0.1608
   79MOL    C62 9578   6.359   7.335   2.870  0.5437 -0.1861 -0.2563
   79MOL   Cl63 9579   6.407   7.454   2.995  0.1612 -0.1823 -0.2060
   79MOL   Cl64 9580   6.285   7.201   2.952  0.2667 -0.3267  0.2767
   79MOL    C65 9581   6.247   7.392   2.776 -0.2147  0.2762 -0.5883
   79MOL    H66 9582   6.170   7.435   2.841  1.3096  1.0990  0.7026
   79MOL    H67 9583   6.291   7.480   2.729 -1.8465  1.4178 -0.0399
   79MOL    C68 9584   6.156   7.320   2.668 -0.6971  0.7242 -0.2746
   79MOL   Cl69 9585   6.058   7.190   2.739 -0.6243  0.0945  0.4812
   79MOL   Cl70 9586   6.255   7.243   2.549 -0.6377  0.6399  0.1251
   79MOL    C71 9587   6.046   7.416   2.602 -0.6437 -0.0516  0.1917
   79MOL    H72 9588   6.002   7.357   2.522 -1.4092  0.6270  0.1056
   79MOL    H73 9589   5.970   7.426   2.679 -1.4828  0.5194 -0.6930
   79MOL    C74 9590   6.087   7.555   2.545 -0.6700 -0.3328 -0.1509
   79MOL   Cl75 9591   6.245   7.548   2.457  0.4077  0.1940  0.1659
   79MOL   Cl76 9592   6.105   7.664   2.683  0.0508  0.0749  0.3559
   79MOL    C77 9593   5.986   7.613   2.436 -0.2656 -0.3966 -0.3642
   79MOL    H78 9594   6.015   7.718   2.422  1.2459 -0.4005  2.2973
   79MOL    H79 9595   6.011   7.551   2.350  3.1907  0.6263 -0.1854
   79MOL    C80 9596   5.833   7.630   2.466  0.6845 -0.0729  0.0792
   79MOL   Cl81 9597   5.813   7.741   2.601 -0.3208  0.1481  0.0827
   79MOL   Cl82 9598   5.754   7.480   2.517  0.6435  0.0317 -0.3090
   79MOL    C83 9599   5.760   7.694   2.352  0.4975 -0.0315 -0.0421
   79MOL    H84 9600   5.655   7.699   2.379 -0.1129 -0.0630 -2.3563
   79MOL    H85 9601   5.795   7.797   2.348 -2.5683  1.0756  0.8311
   79MOL    C86 9602   5.758   7.633   2.211  0.3180 -0.3239 -0.6902
   79MOL   Cl87 9603   5.915   7.669   2.128  0.1220  0.0111  0.2110
   79MOL   Cl88 9604   5.632   7.716   2.118  0.0202 -0.2911 -0.2220
   79MOL    C89 9605   5.729   7.479   2.216 -0.0995  0.0063 -0.0766
   79MOL    H90 9606   5.823   7.454   2.265  0.6650 -1.6638 -2.3304
   79MOL    H91 9607   5.642   7.452   2.276 -0.2370 -1.5186 -0.9314
   79MOL    C92 9608   5.718   7.386   2.093 -0.3202  0.0970  0.6165
   79MOL   Cl93 9609   5.695   7.217   2.163 -0.0414 -0.1948 -0.1725
   79MOL   Cl94 9610   5.868   7.366   1.999 -0.0578  0.2399  0.0701
   79MOL    C95 9611   5.603   7.422   1.992  0.4389  0.2803  0.2305
   79MOL    H96 9612   5.522   7.462   2.054 -0.4227  0.1254 -0.7831
   79MOL    H97 9613   5.642   7.499   1.924 -0.3980  0.1451 -0.4124
   79MOL    C98 9614   5.537   7.321   1.884  0.2592 -0.1709 -0.1720
   79MOL   Cl99 9615   5.424   7.418   1.773 -0.1643 -0.3122  0.1065
   79MOL  Cl100 9616   5.435   7.221   1.989  0.2192 -0.4112  0.0007
   79MOL   C101 9617   5.634   7.231   1.810  0.2312  0.6789 -0.3094
   79MOL   H102 9618   5.707   7.297   1.764  1.7923 -0.1161  0.9870
   79MOL   H103 9619   5.689   7.181   1.890 -1.0041 -0.3794 -0.1010
   79MOL   C104 9620   5.598   7.125   1.704  0.6716  0.4778 -0.2968
   79MOL  Cl105 9621   5.754   7.031   1.685  0.6316 -0.2921  0.2372
   79MOL  Cl106 9622   5.548   7.201   1.550 -0.0299 -0.2286 -0.0587
   79MOL   C107 9623   5.487   7.027   1.745  0.1579 -0.0359  0.4673
   79MOL   H108 9624   5.524   6.971   1.831 -1.7291 -2.5819 -0.3033
   79MOL   H109 9625   5.398   7.080   1.780 -0.0179  0.5741 -0.9069
   79MOL   C110 9626   5.428   6.907   1.660 -0.2868 -0.7536  0.4197
   79MOL  Cl111 9627   5.351   6.959   1.511  0.0092  0.1782 -0.1861
   79MOL  Cl112 9628   5.305   6.841   1.767  0.2716 -0.1838  0.1026
   79MOL   C113 9629   5.541   6.807   1.634 -0.2440  0.0888 -0.5444
   79MOL   H114 9630   5.606   6.855   1.560  2.5769 -1.6153  0.7286
   79MOL   H115 9631   5.596   6.798   1.728  0.4454 -1.1184 -1.0527
   79MOL   C116 9632   5.530   6.660   1.589  0.1772  0.4705 -0.2553
   79MOL  Cl117 9633   5.429   6.548   1.697 -0.2163 -0.3028 -0.0514
   79MOL  Cl118 9634   5.690   6.587   1.582  0.2302 -0.3851 -0.2183
   79MOL   C119 9635   5.475   6.633   1.451  0.0345 -0.0008 -0.1213
   79MOL   H120 9636   5.471   6.531   1.414 -0.9902  1.1579 -3.4237
   79MOL   H121 9637   5.371   6.663   1.441  0.5530  1.5621 -1.0069
   79MOL   H122 9638   5.537   6.690   1.381 -1.6677  1.5016 -0.4421
   80MOL     C1 9639   6.206   8.247   8.944  0.3034  0.2693  0.6261
   80MOL    Cl2 9640   6.357   8.252   9.042  0.1695  0.2162  0.1707
   80MOL    Cl3 9641   6.075   8.289   9.055  0.8466 -0.1019 -0.2373
   80MOL     C4 9642   6.234   8.335   8.819 -0.7103 -0.1933  0.9402
   80MOL     H5 9643   6.267   8.434   8.849 -0.5992  0.6489 -1.8647
   80MOL     H6 9644   6.327   8.296   8.779 -0.1262  1.0074  1.1064
   80MOL     H7 9645   6.184   8.144   8.916  0.1900  0.3630  0.3745
   80MOL     C8 9646   6.131   8.343   8.708 -0.0541 -0.5348 -0.9589
   80MOL    Cl9 9647   6.117   8.179   8.643 -0.0448 -0.4428 -0.3305
   80MOL   Cl10 9648   6.213   8.451   8.596  0.4874  0.0364 -0.0037
   80MOL    C11 9649   5.993   8.395   8.752 -0.3162 -0.4932  0.0346
   80MOL    H12 9650   5.953   8.322   8.822 -0.8907 -0.3198 -0.1171
   80MOL    H13 9651   6.014   8.488   8.805 -1.2999  0.5278 -1.3393
   80MOL    C14 9652   5.884   8.441   8.654  0.1473  0.1508  0.1168
   80MOL   Cl15 9653   5.864   8.324   8.521 -0.0878  0.0596 -0.4798
   80MOL   Cl16 9654   5.939   8.597   8.577  0.1019 -0.0635  0.1736
   80MOL    C17 9655   5.749   8.468   8.728 -0.0611 -0.7245 -1.0875
   80MOL    H18 9656   5.722   8.378   8.783 -0.6778  0.8130  1.1923
   80MOL    H19 9657   5.766   8.543   8.805 -3.5117 -1.1856  0.2345
   80MOL    C20 9658   5.616   8.488   8.658 -0.2049 -0.3208 -0.7489
   80MOL   Cl21 9659   5.517   8.571   8.781 -0.0754  0.2115 -0.0363
   80MOL   Cl22 9660   5.551   8.319   8.624  0.0196  0.0325  0.0401
   80MOL    C23 9661   5.621   8.563   8.519 -0.1951 -0.8625  0.0685
   80MOL    H24 9662   5.658   8.661   8.549 -2.1377  0.1146 -0.6864
   80MOL    H25 9663   5.698   8.517   8.456  0.8213  0.2585  0.4707
   80MOL    C26 9664   5.496   8.580   8.425  0.4646  0.1400  0.0057
   80MOL   Cl27 9665   5.492   8.429   8.329  0.0742 -0.0919  0.0849
   80MOL   Cl28 9666   5.552   8.703   8.312 -0.1904  0.1444  0.0520
   80MOL    C29 9667   5.357   8.613   8.500 -0.9102  0.2295  0.6214
   80MOL    H30 9668   5.278   8.565   8.442  1.3900 -1.8251 -0.9088
   80MOL    H31 9669   5.357   8.563   8.596 -1.1680 -1.6410 -0.3385
   80MOL    C32 9670   5.314   8.760   8.524 -0.1141 -0.6761 -0.1309
   80MOL   Cl33 9671   5.449   8.840   8.602  0.0271 -0.0900  0.0947
   80MOL   Cl34 9672   5.189   8.750   8.645 -0.0630 -0.3837 -0.2273
   80MOL    C35 9673   5.278   8.845   8.401  0.5626  0.2539 -0.4148
   80MOL    H36 9674   5.246   8.941   8.442 -0.4227 -0.3327  0.2142
   80MOL    H37 9675   5.368   8.867   8.344 -0.6998  0.9667 -2.1792
   80MOL    C38 9676   5.168   8.800   8.306 -0.3592  0.4688 -0.1151
   80MOL   Cl39 9677   5.215   8.655   8.212 -0.1269  0.1673 -0.1650
   80MOL   Cl40 9678   5.153   8.935   8.191 -0.2111  0.0023  0.1996
   80MOL    C41 9679   5.030   8.778   8.376  0.1984  0.3076  0.0157
   80MOL    H42 9680   5.035   8.689   8.439 -0.5761  1.1785  1.3286
   80MOL    H43 9681   5.008   8.855   8.450  2.3937  0.2856  0.7337
   80MOL    C44 9682   4.894   8.748   8.308  0.1164  0.1014  0.4156
   80MOL   Cl45 9683   4.787   8.741   8.452  0.3083 -0.0444 -0.4449
   80MOL   Cl46 9684   4.879   8.587   8.231  0.2554  0.4573 -0.2093
   80MOL    C47 9685   4.847   8.860   8.205 -0.3818  0.1365 -0.2435
   80MOL    H48 9686   4.885   8.957   8.239  1.0939 -0.2037 -0.9141
   80MOL    H49 9687   4.889   8.850   8.105  0.6343  1.4020  0.0446
   80MOL    C50 9688   4.690   8.882   8.183 -0.2447 -0.4305  0.3371
   80MOL   Cl51 9689   4.682   8.990   8.047  0.1932 -0.0962  0.4569
   80MOL   Cl52 9690   4.633   8.991   8.316  0.0539 -0.3595  0.1879
   80MOL    C53 9691   4.607   8.746   8.178  0.5049  0.0898 -0.5417
   80MOL    H54 9692   4.664   8.676   8.116  1.1481 -0.3528  0.5347
   80MOL    H55 9693   4.603   8.702   8.278 -1.4478  0.1292 -0.5725
   80MOL    C56 9694   4.460   8.753   8.128 -0.5058 -0.1631  0.1570
   80MOL   Cl57 9695   4.464   8.798   7.951 -0.1458 -0.0135  0.2158
   80MOL   Cl58 9696   4.350   8.875   8.198 -0.3039  0.3688 -0.0709
   80MOL    C59 9697   4.381   8.621   8.143  0.3276  0.2659 -0.5189
   80MOL    H60 9698   4.342   8.628   8.244 -1.4959  0.4176 -1.2071
   80MOL    H61 9699   4.300   8.642   8.073  0.8784  1.5654 -0.7865
   80MOL    C62 9700   4.440   8.485   8.095  0.8060  0.0224 -0.1708
   80MOL   Cl63 9701   4.298   8.380   8.098  0.3058  0.3776 -0.2829
   80MOL   Cl64 9702   4.549   8.418   8.228 -0.1062  0.1394 -0.2377
   80MOL    C65 9703   4.503   8.483   7.954  0.3411  0.4218  0.4004
   80MOL    H66 9704   4.436   8.524   7.879  0.8050 -2.0052 -1.3945
   80MOL    H67 9705   4.582   8.558   7.959  1.0752 -0.4159  1.8235
   80MOL    C68 9706   4.559   8.356   7.882 -0.3740  0.5104  0.3280
   80MOL   Cl69 9707   4.694   8.293   7.980  0.0012 -0.1566  0.1916
   80MOL   Cl70 9708   4.632   8.428   7.739  0.0196  0.6044  0.0912
   80MOL    C71 9709   4.453   8.245   7.852 -0.3852  0.5345  0.0025
   80MOL    H72 9710   4.459   8.199   7.951 -0.6834 -1.9987 -1.1324
   80MOL    H73 9711   4.355   8.293   7.846 -0.8120 -0.3947 -0.5585
   80MOL    C74 9712   4.455   8.145   7.735 -0.4528  0.0944  0.1501
   80MOL   Cl75 9713   4.614   8.069   7.731  0.0100  0.4323  0.0883
   80MOL   Cl76 9714   4.426   8.225   7.578  0.0852  0.2666 -0.1498
   80MOL    C77 9715   4.372   8.021   7.744 -0.1526  0.5297 -0.2918
   80MOL    H78 9716   4.376   7.954   7.658 -3.9224 -0.5829  0.2803
   80MOL    H79 9717   4.414   7.957   7.821 -5.0876  0.0143  2.1666
   80MOL    C80 9718   4.221   8.025   7.779 -0.3353 -0.4716  0.7948
   80MOL   Cl81 9719   4.202   8.089   7.949  0.2903 -0.2476  0.3820
   80MOL   Cl82 9720   4.164   7.851   7.773  0.1434  0.5716  0.1844
   80MOL    C83 9721   4.132   8.100   7.674 -0.1782 -0.1219 -0.0515
   80MOL    H84 9722   4.163   8.204   7.665 -1.0170  0.1560  0.1401
   80MOL    H85 9723   4.143   8.039   7.584 -2.6768 -1.6183  0.5973
   80MOL    C86 9724   3.981   8.112   7.689 -0.2198  0.5392  0.1508
   80MOL   Cl87 9725   3.952   8.216   7.825  0.1412 -0.1228 -0.0907
   80MOL   Cl88 9726   3.894   7.963   7.717 -0.3862  0.5950 -0.1394
   80MOL    C89 9727   3.904   8.196   7.576 -0.7098  0.6634 -0.1508
   80MOL    H90 9728   3.795   8.199   7.587 -0.7524  0.3264 -0.4878
   80MOL    H91 9729   3.942   8.298   7.585  1.4290 -0.0870 -0.6610
   80MOL    C92 9730   3.911   8.153   7.426 -0.0224  0.3643 -0.2133
   80MOL   Cl93 9731   4.067   8.164   7.353 -0.1393 -0.1067 -0.1633
   80MOL   Cl94 9732   3.808   8.287   7.369  0.2115 -0.3915 -0.0140
   80MOL    C95 9733   3.848   8.010   7.401  0.8611  0.1718  0.5918
   80MOL    H96 9734   3.919   7.950   7.458 -1.5285 -2.0063  1.3652
   80MOL    H97 9735   3.752   7.992   7.448  0.8450  0.2886  0.6044
   80MOL    C98 9736   3.845   7.942   7.259 -0.4238 -0.0365  0.4060
   80MOL   Cl99 9737   3.749   7.793   7.293 -0.0968 -0.1558 -0.1667
   80MOL  Cl100 9738   4.004   7.889   7.205 -0.4542  0.2127 -0.0397
   80MOL   C101 9739   3.773   8.027   7.149  0.1828 -0.1615 -0.1547
   80MOL   H102 9740   3.670   8.048   7.180  0.8693  3.2230  0.0647
   80MOL   H103 9741   3.815   8.127   7.134 -0.2122  0.1757  0.9069
   80MOL   C104 9742   3.770   7.976   7.004  0.7796 -0.3860 -0.1013
   80MOL  Cl105 9743   3.925   8.004   6.918 -0.4565  0.2416 -0.0800
   80MOL  Cl106 9744   3.650   8.068   6.917  0.1917  0.5486  0.3605
   80MOL   C107 9745   3.742   7.823   6.989 -0.2728  0.1044 -0.4562
   80MOL   H108 9746   3.826   7.765   7.029 -0.1339  1.7858  1.7810
   80MOL   H109 9747   3.655   7.793   7.047  0.0550  0.4758  0.2279
   80MOL   C110 9748   3.700   7.763   6.848  0.0240 -0.4418  0.0626
   80MOL  Cl111 9749   3.808   7.814   6.717  0.0903 -0.3491 -0.2482
   80MOL  Cl112 9750   3.538   7.812   6.807 -0.0409  0.1160  0.2663
   80MOL   C113 9751   3.693   7.605   6.840  0.1245 -0.5119  0.2715
   80MOL   H114 9752   3.646   7.585   6.744  0.0458 -0.3432  0.2741
   80MOL   H115 9753   3.798   7.574   6.844  1.1584  2.3736 -2.8332
   80MOL   C116 9754   3.617   7.525   6.950 -0.0819  0.0850  0.3633
   80MOL  Cl117 9755   3.448   7.573   6.975 -0.0622 -0.2906  0.3144
   80MOL  Cl118 9756   3.693   7.533   7.106  0.0719  0.0962 -0.2705
   80MOL   C119 9757   3.609   7.378   6.918 -0.0747 -0.1129  0.1536
   80MOL   H120 9758   3.538   7.328   6.984 -1.1543  0.5575 -0.4916
   80MOL   H121 9759   3.582   7.356   6.815 -1.1598 -4.0655  1.1791
   80MOL   H122 9760   3.706   7.329   6.917  0.6456  1.2912  0.6697
   81MOL     C1 9761   6.000   4.981   5.566  0.0316  0.0481 -0.2490
   81MOL    Cl2 9762   5.892   5.040   5.701 -0.3899 -0.0439 -0.3115
   81MOL    Cl3 9763   6.002   5.106   5.447  0.0569 -0.1179  0.4251
   81MOL     C4 9764   6.137   4.941   5.605  0.3241  0.1090  0.2688
   81MOL     H5 9765   6.200   4.933   5.516  1.5003  1.2431  0.9766
   81MOL     H6 9766   6.181   5.025   5.659 -0.5186  1.7768 -1.5954
   81MOL     H7 9767   5.952   4.897   5.516  1.0971 -1.4510  1.1746
   81MOL     C8 9768   6.156   4.815   5.689  0.5116 -0.4184 -0.4615
   81MOL    Cl9 9769   6.062   4.684   5.610  0.0797  0.2801 -0.2497
   81MOL   Cl10 9770   6.082   4.838   5.852  0.0304 -0.3085 -0.4962
   81MOL    C11 9771   6.299   4.775   5.694 -0.2452 -0.6780 -0.2052
   81MOL    H12 9772   6.326   4.754   5.590 -0.7484 -0.6920 -0.3355
   81MOL    H13 9773   6.347   4.869   5.717 -0.8004 -0.2780 -0.6395
   81MOL    C14 9774   6.356   4.664   5.794 -0.0079 -1.1194  0.0723
   81MOL   Cl15 9775   6.359   4.728   5.962  0.0526 -0.1035  0.1734
   81MOL   Cl16 9776   6.529   4.627   5.750 -0.4210 -0.0051  0.0047
   81MOL    C17 9777   6.260   4.540   5.785 -0.0376  0.0545  0.0397
   81MOL    H18 9778   6.163   4.567   5.827  0.4140 -2.2771  2.7788
   81MOL    H19 9779   6.244   4.522   5.679  1.9949  0.4438 -0.3574
   81MOL    C20 9780   6.286   4.402   5.856  0.5990  0.4150 -0.1473
   81MOL   Cl21 9781   6.433   4.324   5.781  0.4116 -0.2306  0.1348
   81MOL   Cl22 9782   6.144   4.292   5.815  0.3112 -0.5824  0.1881
   81MOL    C23 9783   6.297   4.418   6.009  0.3920  0.1222 -0.4366
   81MOL    H24 9784   6.391   4.472   6.019 -0.1170  0.9913 -0.2898
   81MOL    H25 9785   6.224   4.492   6.044 -0.3313 -0.6621 -0.2825
   81MOL    C26 9786   6.287   4.307   6.114 -0.5554  0.2034  0.1303
   81MOL   Cl27 9787   6.124   4.240   6.117  0.3755 -0.3464  0.0756
   81MOL   Cl28 9788   6.328   4.373   6.273  0.2086 -0.1050  0.1541
   81MOL    C29 9789   6.378   4.189   6.072  0.0578  0.4532  0.0861
   81MOL    H30 9790   6.321   4.137   5.995  0.6021 -1.3764  0.8739
   81MOL    H31 9791   6.467   4.242   6.038 -0.7498 -0.1956 -3.1151
   81MOL    C32 9792   6.433   4.086   6.178  1.0725  0.4144 -0.3282
   81MOL   Cl33 9793   6.573   4.151   6.256 -0.0868  0.2477 -0.2650
   81MOL   Cl34 9794   6.477   3.951   6.084  0.2787 -0.1845  0.0586
   81MOL    C35 9795   6.321   4.048   6.280  0.4718  0.1764  0.4213
   81MOL    H36 9796   6.300   4.137   6.339  1.2769  0.0991  0.8282
   81MOL    H37 9797   6.227   4.024   6.231  0.4132 -1.4496  1.3027
   81MOL    C38 9798   6.335   3.919   6.369 -0.2865  0.3039 -0.3692
   81MOL   Cl39 9799   6.308   3.769   6.268 -0.1718  0.2050 -0.1541
   81MOL   Cl40 9800   6.202   3.920   6.495  0.0350  0.0902  0.2056
   81MOL    C41 9801   6.474   3.899   6.449  0.1704 -0.0707 -0.9383
   81MOL    H42 9802   6.470   3.793   6.472 -0.6119  0.0480 -0.4796
   81MOL    H43 9803   6.555   3.898   6.376  0.1206 -0.7061 -0.9845
   81MOL    C44 9804   6.514   3.981   6.569  0.2915 -0.0157 -0.2561
   81MOL   Cl45 9805   6.442   3.907   6.705 -0.0570 -0.2366 -0.0626
   81MOL   Cl46 9806   6.460   4.155   6.552 -0.1082 -0.4023 -0.1864
   81MOL    C47 9807   6.673   3.972   6.574  0.4424 -0.1939 -0.2296
   81MOL    H48 9808   6.688   3.865   6.557  0.4144 -0.0277 -1.3144
   81MOL    H49 9809   6.704   4.027   6.485  0.4969  0.5235  0.2295
   81MOL    C50 9810   6.757   4.015   6.700  0.4234  0.7766 -0.5897
   81MOL   Cl51 9811   6.926   4.012   6.655  0.0816 -0.0167 -0.1803
   81MOL   Cl52 9812   6.735   3.886   6.825 -0.1785 -0.3436 -0.3125
   81MOL    C53 9813   6.709   4.163   6.749 -0.2436  0.5965 -0.0739
   81MOL    H54 9814   6.709   4.217   6.654  1.2941  2.8863  1.1805
   81MOL    H55 9815   6.605   4.163   6.781 -0.0267  1.0141  0.6456
   81MOL    C56 9816   6.802   4.245   6.856 -0.5558  0.0896  0.1095
   81MOL   Cl57 9817   6.948   4.293   6.771 -0.3487 -0.2307  0.2762
   81MOL   Cl58 9818   6.839   4.137   6.990 -0.3788  0.6318  0.5135
   81MOL    C59 9819   6.731   4.368   6.921 -0.6276  0.3699 -0.0525
   81MOL    H60 9820   6.643   4.322   6.967 -0.4079 -0.1611 -0.1632
   81MOL    H61 9821   6.796   4.396   7.004 -1.9981 -0.0691  1.1850
   81MOL    C62 9822   6.680   4.493   6.846  0.3497  0.5862 -0.5921
   81MOL   Cl63 9823   6.595   4.582   6.974  0.0888  0.1143 -0.2574
   81MOL   Cl64 9824   6.562   4.441   6.724  0.1128 -0.1267  0.3207
   81MOL    C65 9825   6.797   4.577   6.777  0.6761  0.4796 -0.0079
   81MOL    H66 9826   6.880   4.584   6.847 -0.6443  2.0388  1.4697
   81MOL    H67 9827   6.829   4.517   6.693 -0.2597 -2.1535  1.4647
   81MOL    C68 9828   6.775   4.723   6.724  0.3751 -0.8234 -0.4161
   81MOL   Cl69 9829   6.662   4.703   6.589  0.1541  0.0848 -0.5083
   81MOL   Cl70 9830   6.928   4.781   6.662  0.0763 -0.0065 -0.5199
   81MOL    C71 9831   6.699   4.830   6.813 -0.1013  0.6301 -0.3806
   81MOL    H72 9832   6.671   4.907   6.741  0.4966  1.7822  0.5854
   81MOL    H73 9833   6.600   4.803   6.848 -0.2355  1.8791  0.2308
   81MOL    C74 9834   6.768   4.895   6.931  0.0385  0.4270  0.0724
   81MOL   Cl75 9835   6.893   5.010   6.877  0.0551  0.1889 -0.3855
   81MOL   Cl76 9836   6.853   4.775   7.038 -0.4467 -0.6748 -0.1795
   81MOL    C77 9837   6.663   4.973   7.019 -0.1343 -0.0688  0.4436
   81MOL    H78 9838   6.596   5.019   6.946 -0.3645 -3.4333 -1.5768
   81MOL    H79 9839   6.609   4.898   7.078  0.5616  0.0421  1.2226
   81MOL    C80 9840   6.712   5.095   7.110  0.5454 -0.8531  0.2484
   81MOL   Cl81 9841   6.740   5.248   7.020  0.3943  0.1886 -0.3402
   81MOL   Cl82 9842   6.861   5.043   7.196  0.0725 -0.0628  0.1860
   81MOL    C83 9843   6.612   5.127   7.231 -0.5881 -0.1905  0.4829
   81MOL    H84 9844   6.632   5.052   7.308 -1.1046  0.3797  1.1741
   81MOL    H85 9845   6.640   5.224   7.270 -2.6337  1.7850 -2.7323
   81MOL    C86 9846   6.461   5.132   7.207  0.4483  0.2316  0.5807
   81MOL   Cl87 9847   6.387   4.965   7.180  0.0685 -0.2732 -0.0216
   81MOL   Cl88 9848   6.432   5.231   7.053 -0.2325  0.2894 -0.1728
   81MOL    C89 9849   6.375   5.202   7.322 -0.3000  0.0843 -0.0428
   81MOL    H90 9850   6.381   5.307   7.296  1.5318 -0.8826 -3.8514
   81MOL    H91 9851   6.269   5.181   7.310  0.1626 -3.0153  0.8287
   81MOL    C92 9852   6.416   5.189   7.473  0.3695  0.2034  0.1463
   81MOL   Cl93 9853   6.577   5.251   7.514  0.1000  0.3898 -0.0012
   81MOL   Cl94 9854   6.424   5.017   7.537  0.3513 -0.4401  0.3557
   81MOL    C95 9855   6.297   5.261   7.552  0.3115 -0.3072 -0.4459
   81MOL    H96 9856   6.256   5.345   7.497 -1.1867  0.1150  1.2809
   81MOL    H97 9857   6.212   5.194   7.561 -0.2292  0.5522  0.9966
   81MOL    C98 9858   6.303   5.318   7.705 -0.3999 -0.5440 -0.6458
   81MOL   Cl99 9859   6.138   5.355   7.754  0.0367  0.2438 -0.3889
   81MOL  Cl100 9860   6.398   5.468   7.711  0.4539  0.2449  0.1455
   81MOL   C101 9861   6.351   5.213   7.812  0.6345 -0.3022 -0.2995
   81MOL   H102 9862   6.263   5.148   7.819  0.4838 -0.1468 -0.7321
   81MOL   H103 9863   6.437   5.163   7.768  0.2182 -2.3866  1.1611
   81MOL   C104 9864   6.398   5.247   7.956 -1.0714 -0.0016 -0.5712
   81MOL  Cl105 9865   6.266   5.357   8.028  0.5534  0.3269  0.4500
   81MOL  Cl106 9866   6.551   5.337   7.946  0.0814 -0.1609 -0.1672
   81MOL   C107 9867   6.406   5.126   8.054 -0.3471  0.3988 -0.1071
   81MOL   H108 9868   6.471   5.166   8.131 -2.4770  1.6442  1.1140
   81MOL   H109 9869   6.305   5.117   8.096 -0.0214  0.1738  0.6351
   81MOL   C110 9870   6.471   4.994   8.017  0.5295 -0.4331  0.0966
   81MOL  Cl111 9871   6.627   5.029   7.929 -0.0964 -0.1553  0.0928
   81MOL  Cl112 9872   6.364   4.908   7.906  0.2391 -0.1933 -0.3400
   81MOL   C113 9873   6.490   4.891   8.139  0.5737  0.0431 -0.1601
   81MOL   H114 9874   6.392   4.847   8.163 -0.0892  1.5374 -0.0599
   81MOL   H115 9875   6.546   4.804   8.103  1.8430  0.6795  0.2615
   81MOL   C116 9876   6.562   4.931   8.273 -0.3005 -0.1462 -0.2514
   81MOL  Cl117 9877   6.451   5.033   8.370 -0.2738  0.4362  0.2029
   81MOL  Cl118 9878   6.728   4.995   8.238 -0.2669 -0.1511  0.2140
   81MOL   C119 9879   6.586   4.813   8.349 -0.4625  0.2823 -0.0182
   81MOL   H120 9880   6.489   4.768   8.371  0.2712 -1.2437  0.1602
   81MOL   H121 9881   6.644   4.733   8.303  0.2691  0.9179 -0.1841
   81MOL   H122 9882   6.624   4.833   8.449  0.0266  2.1658 -0.5724
   82MOL     C1 9883   8.274   8.248   5.134 -0.3849 -0.6568  0.2403
   82MOL    Cl2 9884   8.130   8.227   5.018 -0.4522 -0.3145  0.2800
   82MOL    Cl3 9885   8.332   8.417   5.131  0.6109 -0.0987 -0.1128
   82MOL     C4 9886   8.248   8.199   5.280 -0.7274 -0.1392 -0.5915
   82MOL     H5 9887   8.245   8.280   5.352 -0.2168 -0.0705 -0.6419
   82MOL     H6 9888   8.149   8.155   5.293 -0.4684 -1.1481 -1.8971
   82MOL     H7 9889   8.363   8.197   5.098 -1.8766 -2.4997 -0.9410
   82MOL     C8 9890   8.346   8.103   5.344  0.3450 -0.0480  0.1639
   82MOL    Cl9 9891   8.502   8.195   5.330  0.2066  0.1964  0.1516
   82MOL   Cl10 9892   8.374   7.948   5.255  0.0111 -0.0463  0.1121
   82MOL    C11 9893   8.317   8.079   5.500  0.0716 -0.1996 -0.4060
   82MOL    H12 9894   8.335   8.169   5.558 -2.2393  0.5020 -0.7574
   82MOL    H13 9895   8.208   8.078   5.504  0.0648 -0.4529 -0.6249
   82MOL    C14 9896   8.388   7.975   5.587 -0.2238  0.2893  0.6789
   82MOL   Cl15 9897   8.560   7.982   5.554 -0.1904 -0.0406 -0.1545
   82MOL   Cl16 9898   8.327   7.810   5.540  0.3797  0.6124 -0.3811
   82MOL    C17 9899   8.372   8.001   5.741 -0.7815 -0.5107  0.0244
   82MOL    H18 9900   8.416   7.912   5.786  2.0560  1.2197  0.7585
   82MOL    H19 9901   8.433   8.085   5.772 -1.0838 -0.4443  0.4351
   82MOL    C20 9902   8.232   8.002   5.813 -0.0288 -0.6634  0.2997
   82MOL   Cl21 9903   8.167   7.841   5.826 -0.0430  0.2249  0.1761
   82MOL   Cl22 9904   8.104   8.116   5.740  0.2175 -0.1668  0.5991
   82MOL    C23 9905   8.233   8.052   5.965  0.4336  0.1098  0.0731
   82MOL    H24 9906   8.127   8.057   5.989  0.4200 -0.9907  0.2770
   82MOL    H25 9907   8.268   7.968   6.024 -2.1456 -0.4988  0.7949
   82MOL    C26 9908   8.311   8.175   6.016 -0.0404  0.9459  0.5952
   82MOL   Cl27 9909   8.305   8.310   5.896 -0.0876 -0.2618  0.1411
   82MOL   Cl28 9910   8.477   8.125   6.049 -0.0714  0.2093  0.3508
   82MOL    C29 9911   8.231   8.219   6.149 -0.6737  0.4799 -0.0651
   82MOL    H30 9912   8.127   8.234   6.121 -0.3945 -1.1133 -2.1088
   82MOL    H31 9913   8.222   8.127   6.207  0.1263  0.0762 -0.5675
   82MOL    C32 9914   8.284   8.336   6.240 -0.0582  0.5520  0.5835
   82MOL   Cl33 9915   8.296   8.489   6.138  0.1855 -0.2784 -0.0630
   82MOL   Cl34 9916   8.445   8.308   6.309  0.1358  0.4272  0.1458
   82MOL    C35 9917   8.190   8.356   6.357  0.4377  0.6255 -0.8518
   82MOL    H36 9918   8.214   8.286   6.437  1.3452 -1.5214 -2.9416
   82MOL    H37 9919   8.211   8.457   6.392  2.3548 -0.3364  0.9268
   82MOL    C38 9920   8.030   8.350   6.339  0.1933 -0.1525 -0.5708
   82MOL   Cl39 9921   7.976   8.182   6.321  0.1580 -0.0526 -0.0090
   82MOL   Cl40 9922   7.974   8.454   6.211  0.0540  0.1284  0.2845
   82MOL    C41 9923   7.955   8.394   6.475 -0.1233 -0.3345  0.0633
   82MOL    H42 9924   7.848   8.405   6.455 -0.4169 -2.3953  0.3302
   82MOL    H43 9925   7.959   8.312   6.547 -0.4532  0.3844  0.8944
   82MOL    C44 9926   7.993   8.516   6.558  0.4566  0.9557 -0.1873
   82MOL   Cl45 9927   8.154   8.494   6.642  0.1046 -0.3311 -0.5038
   82MOL   Cl46 9928   7.869   8.536   6.687  0.1764 -0.4118  0.0165
   82MOL    C47 9929   7.997   8.645   6.474 -0.3190 -0.5557  0.2239
   82MOL    H48 9930   8.061   8.610   6.393 -0.8267  0.1001 -0.4673
   82MOL    H49 9931   7.901   8.652   6.422  0.3401 -0.8007 -1.0509
   82MOL    C50 9932   8.014   8.788   6.530 -0.2054  0.1749  0.5400
   82MOL   Cl51 9933   8.153   8.799   6.647 -0.2692 -0.1254 -0.0433
   82MOL   Cl52 9934   7.874   8.834   6.625  0.5721 -0.2246  0.0890
   82MOL    C53 9935   8.042   8.891   6.422 -0.2662  0.1633 -0.2000
   82MOL    H54 9936   7.981   8.865   6.335 -0.0835 -1.3928  0.1224
   82MOL    H55 9937   8.003   8.986   6.460  0.3901 -0.0790  1.1016
   82MOL    C56 9938   8.183   8.922   6.364 -0.3993 -0.0716 -0.0801
   82MOL   Cl57 9939   8.136   8.992   6.201 -0.0669 -0.2083  0.1194
   82MOL   Cl58 9940   8.270   8.764   6.343  0.2509  0.1495 -0.1143
   82MOL    C59 9941   8.270   9.019   6.454 -0.1028  0.7694 -0.1839
   82MOL    H60 9942   8.200   9.070   6.521  0.3214  1.6926 -0.4353
   82MOL    H61 9943   8.328   8.961   6.526  0.0571  1.4769  0.2616
   82MOL    C62 9944   8.375   9.109   6.393 -0.5424  0.0239 -0.0668
   82MOL   Cl63 9945   8.293   0.057   6.300  0.5113  0.1376  0.1752
   82MOL   Cl64 9946   8.476   9.012   6.277  0.0662  0.2461  0.2245
   82MOL    C65 9947   8.455   0.011   6.500  0.4179  0.6191 -0.0424
   82MOL    H66 9948   8.532   0.068   6.448  1.7852 -2.6688 -1.7187
   82MOL    H67 9949   8.385   0.082   6.545 -0.7470  0.0715 -0.9728
   82MOL    C68 9950   8.516   9.128   6.632  1.4110 -0.1879  0.0642
   82MOL   Cl69 9951   8.380   9.091   6.751  0.3714  0.0432  0.2296
   82MOL   Cl70 9952   8.620   0.070   6.706  0.1289  0.3260 -0.4010
   82MOL    C71 9953   8.605   9.000   6.603 -0.1261  0.1935  0.0125
   82MOL    H72 9954   8.561   8.941   6.523  0.4926  0.2581 -0.3744
   82MOL    H73 9955   8.704   9.032   6.570  0.8504 -1.1382  1.5342
   82MOL    C74 9956   8.630   8.901   6.728  0.0180 -0.3198 -0.5952
   82MOL   Cl75 9957   8.780   8.808   6.686 -0.1947 -0.1408 -0.1065
   82MOL   Cl76 9958   8.494   8.784   6.741  0.6602  0.2349  0.1191
   82MOL    C77 9959   8.661   8.971   6.863  0.7190 -0.4269 -0.3046
   82MOL    H78 9960   8.751   9.031   6.857 -0.5470  1.4428 -1.0858
   82MOL    H79 9961   8.593   9.055   6.879  0.2929 -1.1553  1.8125
   82MOL    C80 9962   8.654   8.890   6.992  0.0560 -0.4766  0.5305
   82MOL   Cl81 9963   8.767   8.970   7.109  0.0987 -0.3620  0.2255
   82MOL   Cl82 9964   8.718   8.720   6.971  0.4148 -0.0916 -0.0615
   82MOL    C83 9965   8.507   8.897   7.049 -0.2226 -0.0867 -0.2622
   82MOL    H84 9966   8.501   8.997   7.092  0.4617  0.5253 -1.5585
   82MOL    H85 9967   8.436   8.899   6.967 -0.1018  0.1537 -0.3597
   82MOL    C86 9968   8.453   8.784   7.150 -0.1564  0.1579  0.1876
   82MOL   Cl87 9969   8.578   8.745   7.271 -0.4739  0.2045 -0.5355
   82MOL   Cl88 9970   8.396   8.641   7.064  0.1392  0.1446  0.3862
   82MOL    C89 9971   8.346   8.839   7.243  0.0635  0.4492  0.6615
   82MOL    H90 9972   8.331   8.761   7.318 -0.9083 -1.1472 -1.1364
   82MOL    H91 9973   8.384   8.925   7.299  0.9271  0.7212 -0.3382
   82MOL    C92 9974   8.201   8.880   7.189  0.3888 -0.4617  0.0104
   82MOL   Cl93 9975   8.212   8.999   7.055  0.0091  0.0543  0.0942
   82MOL   Cl94 9976   8.134   8.945   7.340 -0.1008 -0.1287  0.0489
   82MOL    C95 9977   8.116   8.758   7.139  0.3747  0.4914 -0.4902
   82MOL    H96 9978   8.159   8.736   7.042  1.2049  1.2537 -0.3029
   82MOL    H97 9979   8.133   8.672   7.205 -2.2465  0.3732  0.0757
   82MOL    C98 9980   7.958   8.766   7.121  0.0078  0.3949  0.8481
   82MOL   Cl99 9981   7.884   8.740   7.286 -0.1224 -0.5314  0.0039
   82MOL  Cl100 9982   7.905   8.640   7.010 -0.6544  0.3201 -0.3364
   82MOL   C101 9983   7.905   8.897   7.062 -0.0716  0.4633 -0.2852
   82MOL   H102 9984   7.958   8.988   7.092  2.2516 -0.8649 -0.2845
   82MOL   H103 9985   7.927   8.895   6.955  2.0885 -0.9260  0.1585
   82MOL   C104 9986   7.756   8.940   7.065  0.1200  0.6616 -0.1474
   82MOL  Cl105 9987   7.739   9.067   6.950 -0.1308 -0.0847 -0.1789
   82MOL  Cl106 9988   7.726   9.014   7.224  0.2180 -0.2015  0.6121
   82MOL   C107 9989   7.661   8.829   7.021  0.0145 -0.4371  0.1449
   82MOL   H108 9990   7.702   8.779   6.932  0.0715 -1.1595  0.5723
   82MOL   H109 9991   7.658   8.764   7.108  0.8449  0.5772  0.9453
   82MOL   C110 9992   7.516   8.866   6.962  0.3373  0.6674  0.4309
   82MOL  Cl111 9993   7.515   8.940   6.798 -0.1007 -0.2742  0.5309
   82MOL  Cl112 9994   7.444   8.997   7.055  0.3967  0.2910  0.0536
   82MOL   C113 9995   7.418   8.745   6.971 -0.0474 -0.1242  0.5395
   82MOL   H114 9996   7.394   8.722   7.075 -0.4092  0.3700  0.5665
   82MOL   H115 9997   7.316   8.771   6.942 -0.2002 -1.8885 -0.5131
   82MOL   C116 9998   7.461   8.614   6.896 -0.6442  0.5943  0.4250
   82MOL  Cl117 9999   7.321   8.501   6.922  0.0829  0.2585 -0.1998
   82MOL  Cl11810000   7.607   8.544   6.961  0.3337 -0.2466  0.1128
   82MOL   C11910001   7.484   8.611   6.741 -0.0305  0.2432  0.6566
   82MOL   H12010002   7.561   8.683   6.710 -0.4139  1.6969  2.8945
   82MOL   H12110003   7.524   8.519   6.700  0.8385  0.7743  0.2772
   82MOL   H12210004   7.393   8.641   6.691  0.5969 -2.5018 -2.2426
   83MOL     C110005   2.614   6.845   6.624 -0.1749  0.1052  0.8554
   83MOL    Cl210006   2.525   6.709   6.697 -0.5899  0.0016 -0.1056
   83MOL    Cl310007   2.533   6.905   6.477  0.2450  0.2722 -0.2096
   83MOL     C410008   2.631   6.962   6.729 -0.5853 -0.0780  0.4659
   83MOL     H510009   2.665   7.044   6.666 -1.8233  0.0698 -0.0264
   83MOL     H610010   2.540   7.005   6.769  0.8987  1.1975  2.5945
   83MOL     H710011   2.702   6.800   6.578 -2.4972 -2.2759 -1.5017
   83MOL     C810012   2.757   6.948   6.822 -0.2063  0.6275  0.6275
   83MOL    Cl910013   2.906   6.948   6.720  0.0137 -0.1522  0.1222
   83MOL   Cl1010014   2.727   6.807   6.929 -0.3694 -0.8917 -0.1041
   83MOL    C1110015   2.767   7.066   6.931 -0.2578  0.0206  0.4421
   83MOL    H1210016   2.663   7.063   6.964 -0.9477 -3.0910 -1.6901
   83MOL    H1310017   2.835   7.020   7.003  2.2204 -1.2974 -2.6074
   83MOL    C1410018   2.805   7.217   6.903  0.0568 -0.3537  0.2691
   83MOL   Cl1510019   2.721   7.329   7.015 -0.1416 -0.0051  0.2744
   83MOL   Cl1610020   2.736   7.257   6.750  0.3164 -0.1624 -0.3060
   83MOL    C1710021   2.955   7.249   6.898 -0.2190  0.2947  0.1940
   83MOL    H1810022   3.001   7.170   6.838  1.2136 -0.8166  2.6674
   83MOL    H1910023   2.966   7.344   6.846 -2.5673  0.6279  0.2243
   83MOL    C2010024   3.041   7.262   7.022 -0.7086 -0.4419 -0.3092
   83MOL   Cl2110025   3.210   7.312   6.968 -0.0075 -0.3161  0.0843
   83MOL   Cl2210026   3.056   7.093   7.082  0.3146  0.1772  0.3661
   83MOL    C2310027   3.010   7.355   7.141  0.3054  0.9573 -0.2810
   83MOL    H2410028   2.966   7.448   7.104 -1.7771  0.5684  1.1145
   83MOL    H2510029   2.930   7.302   7.194  0.5692 -1.1929 -1.9539
   83MOL    C2610030   3.111   7.398   7.251 -0.4732 -0.1766  0.8655
   83MOL   Cl2710031   3.223   7.270   7.308 -0.0050 -0.2345 -0.1370
   83MOL   Cl2810032   3.023   7.428   7.395 -0.2316 -0.1401  0.0421
   83MOL    C2910033   3.200   7.525   7.226  0.1504 -0.2448  0.8052
   83MOL    H3010034   3.253   7.538   7.321  0.2576 -3.8589  1.3136
   83MOL    H3110035   3.275   7.491   7.155  1.7844  1.3036  1.7394
   83MOL    C3210036   3.146   7.661   7.165  0.0152 -0.4188  1.0743
   83MOL   Cl3310037   2.996   7.713   7.239  0.0565 -0.3971  0.3205
   83MOL   Cl3410038   3.123   7.638   6.990  0.0157 -0.0718 -0.0575
   83MOL    C3510039   3.246   7.782   7.165 -0.3944 -0.0064  0.1397
   83MOL    H3610040   3.326   7.767   7.093 -2.0119  0.5543 -1.8253
   83MOL    H3710041   3.183   7.864   7.131 -0.8775 -0.7167 -0.6971
   83MOL    C3810042   3.312   7.833   7.301  0.1237 -0.1173 -0.5009
   83MOL   Cl3910043   3.373   7.990   7.269  0.1299  0.0084 -0.1108
   83MOL   Cl4010044   3.441   7.719   7.342 -0.0774  0.2865 -0.0737
   83MOL    C4110045   3.211   7.842   7.422 -0.5225  0.4542 -0.2582
   83MOL    H4210046   3.122   7.890   7.380  0.3648  2.1095 -0.2812
   83MOL    H4310047   3.185   7.737   7.437  1.4414 -0.2634 -1.6600
   83MOL    C4410048   3.251   7.913   7.553 -0.6922 -0.6568  0.1161
   83MOL   Cl4510049   3.234   8.085   7.538  0.5566  0.1410  0.3255
   83MOL   Cl4610050   3.419   7.887   7.599  0.0188  0.4900  0.4161
   83MOL    C4710051   3.160   7.869   7.675  0.8218  0.3163  0.2774
   83MOL    H4810052   3.213   7.910   7.761  0.9742 -1.5176  1.0823
   83MOL    H4910053   3.064   7.920   7.669  0.1444 -0.7679  1.7429
   83MOL    C5010054   3.121   7.719   7.696 -0.8205 -0.0934  0.2452
   83MOL   Cl5110055   3.261   7.609   7.660  0.2960 -0.5517 -0.2149
   83MOL   Cl5210056   2.989   7.677   7.584  0.0997 -0.1861  0.2167
   83MOL    C5310057   3.064   7.684   7.827 -0.7878 -1.1905 -0.5521
   83MOL    H5410058   2.967   7.734   7.837  0.7369  1.9754 -0.9239
   83MOL    H5510059   3.050   7.576   7.832 -2.6508 -0.9896 -1.0853
   83MOL    C5610060   3.143   7.719   7.962 -0.7348 -0.2717 -0.1779
   83MOL   Cl5710061   3.047   7.642   8.087 -0.2458  0.0022 -0.1299
   83MOL   Cl5810062   3.137   7.890   7.995  0.3431  0.2163  0.6133
   83MOL    C5910063   3.289   7.675   7.965 -0.3195  0.3677  0.0209
   83MOL    H6010064   3.311   7.578   7.920  0.5484  0.2114  0.7556
   83MOL    H6110065   3.332   7.757   7.907  2.5056  0.1907  1.7806
   83MOL    C6210066   3.385   7.670   8.096  0.4969  0.1898  0.0080
   83MOL   Cl6310067   3.327   7.519   8.178 -0.4133  0.2937  0.3941
   83MOL   Cl6410068   3.351   7.808   8.204 -0.2142  0.1319  0.2679
   83MOL    C6510069   3.539   7.672   8.071 -0.4420  0.2184 -0.2694
   83MOL    H6610070   3.569   7.767   8.027 -1.4596  2.3669  3.4702
   83MOL    H6710071   3.583   7.658   8.170 -0.5344  0.0781 -0.2490
   83MOL    C6810072   3.605   7.573   7.972  0.6629 -0.0063 -0.0378
   83MOL   Cl6910073   3.557   7.616   7.809  0.0485 -0.2406 -0.4619
   83MOL   Cl7010074   3.567   7.400   8.001  0.0260  0.0962  0.0748
   83MOL    C7110075   3.767   7.578   7.966 -0.0807  0.1232 -0.0271
   83MOL    H7210076   3.794   7.476   7.941 -2.3085 -0.6793  0.6374
   83MOL    H7310077   3.789   7.648   7.886 -0.1061 -0.3005 -0.4026
   83MOL    C7410078   3.849   7.620   8.098  0.2012  0.3564  0.5781
   83MOL   Cl7510079   3.806   7.504   8.222 -0.1023 -0.3099  0.4299
   83MOL   Cl7610080   3.808   7.789   8.143 -0.4418  0.2615 -0.0725
   83MOL    C7710081   3.997   7.611   8.063 -0.3443  0.2303  0.2069
   83MOL    H7810082   4.017   7.511   8.026  1.7621  1.0782 -1.0329
   83MOL    H7910083   4.006   7.673   7.974  0.5971  0.2835  0.3321
   83MOL    C8010084   4.110   7.642   8.167  0.6224 -0.8103  0.7865
   83MOL   Cl8110085   4.260   7.659   8.060  0.4504 -0.4496 -0.1204
   83MOL   Cl8210086   4.135   7.496   8.269 -0.1757 -0.3657  0.0792
   83MOL    C8310087   4.102   7.775   8.246  0.5037  0.3799 -0.1773
   83MOL    H8410088   4.063   7.841   8.169 -0.0624 -1.7099 -1.7393
   83MOL    H8510089   4.013   7.769   8.310  0.4005 -0.2019 -0.3693
   83MOL    C8610090   4.216   7.839   8.329 -0.5084 -0.5575  0.2111
   83MOL   Cl8710091   4.276   7.716   8.450 -0.4761  0.0323 -0.2313
   83MOL   Cl8810092   4.142   7.965   8.435  0.1372  0.3633  0.4019
   83MOL    C8910093   4.334   7.904   8.251 -0.1442 -0.6322  0.0909
   83MOL    H9010094   4.383   7.825   8.194 -0.2245 -0.0993 -0.7228
   83MOL    H9110095   4.290   7.966   8.173 -0.7321  1.0010  1.6800
   83MOL    C9210096   4.439   8.008   8.312 -0.1307  0.1971 -0.3910
   83MOL   Cl9310097   4.357   8.159   8.348 -0.1285 -0.0313 -0.3398
   83MOL   Cl9410098   4.551   8.037   8.170 -0.2040  0.2975 -0.2089
   83MOL    C9510099   4.511   7.957   8.442  0.4049  0.2538 -0.8243
   83MOL    H9610100   4.439   7.962   8.524  0.2005  0.6781 -1.0262
   83MOL    H9710101   4.523   7.849   8.434 -0.0974 -0.0096  1.6469
   83MOL    C9810102   4.647   8.015   8.475 -0.3762  0.1811 -0.6759
   83MOL   Cl9910103   4.767   7.937   8.364 -0.0276  0.3621 -0.0231
   83MOL  Cl10010104   4.683   7.956   8.635  0.0436 -0.1752 -0.2892
   83MOL   C10110105   4.654   8.176   8.477  0.1489 -0.0770  0.5808
   83MOL   H10210106   4.659   8.211   8.373 -1.0426 -2.1665 -0.2051
   83MOL   H10310107   4.560   8.218   8.511  1.0037  3.6685 -1.3592
   83MOL   C10410108   4.769   8.251   8.549  0.3258  1.1080 -0.2300
   83MOL  Cl10510109   4.729   8.255   8.724  0.0257 -0.2396 -0.3179
   83MOL  Cl10610110   4.758   8.423   8.495 -0.3546 -0.0413  0.0529
   83MOL   C10710111   4.910   8.185   8.514  0.4805 -0.2830 -0.3211
   83MOL   H10810112   4.894   8.079   8.535  0.7831 -0.5822 -1.5279
   83MOL   H10910113   4.915   8.193   8.405  1.3844  1.7552 -0.1559
   83MOL   C11010114   5.047   8.232   8.582  0.2565 -0.0347  0.5113
   83MOL  Cl11110115   5.082   8.402   8.542  0.2191 -0.0022 -0.0172
   83MOL  Cl11210116   5.168   8.132   8.498 -0.1615  0.0979  0.1088
   83MOL   C11310117   5.065   8.211   8.737 -0.2933 -0.9117 -0.4464
   83MOL   H11410118   5.013   8.284   8.800 -0.0346 -1.2109  0.1230
   83MOL   H11510119   5.010   8.122   8.766 -0.5418 -1.4106 -2.4433
   83MOL   C11610120   5.200   8.227   8.817 -0.0892 -0.0663 -0.2767
   83MOL  Cl11710121   5.320   8.104   8.779 -0.1558  0.0040  0.2133
   83MOL  Cl11810122   5.146   8.210   8.993  0.2030 -0.0489 -0.1896
   83MOL   C11910123   5.272   8.358   8.811 -0.5731  0.4936 -0.0448
   83MOL   H12010124   5.342   8.372   8.894  1.0819 -0.7944 -1.1977
   83MOL   H12110125   5.316   8.366   8.712 -0.7961  0.0468 -0.1765
   83MOL   H12210126   5.204   8.442   8.822  1.1418  2.3000 -2.6456
   84MOL     C110127   2.598   5.106   6.296  0.4269  0.2789 -0.5527
   84MOL    Cl210128   2.529   4.994   6.410 -0.4970  0.1675 -0.1543
   84MOL    Cl310129   2.468   5.186   6.217  0.0125  0.0050 -0.1145
   84MOL     C410130   2.699   5.209   6.344 -0.2849  0.2099  0.0694
   84MOL     H510131   2.639   5.299   6.353  0.6190  0.8857 -0.5608
   84MOL     H610132   2.743   5.185   6.440  2.6072 -1.1622 -1.5365
   84MOL     H710133   2.646   5.031   6.233 -0.0277  1.2389 -2.0903
   84MOL     C810134   2.811   5.241   6.246 -0.3409 -0.7747 -0.1514
   84MOL    Cl910135   2.764   5.265   6.078  0.0015 -0.0845 -0.1971
   84MOL   Cl1010136   2.914   5.093   6.241  0.0905  0.3141  0.4057
   84MOL    C1110137   2.903   5.359   6.300  0.1630 -0.5579  0.2553
   84MOL    H1210138   2.941   5.327   6.397 -1.4389 -1.2217  0.6889
   84MOL    H1310139   2.987   5.361   6.231 -0.2194  1.0114 -0.1900
   84MOL    C1410140   2.832   5.499   6.327 -0.4898  0.5897  0.8606
   84MOL   Cl1510141   2.740   5.479   6.479  0.3825  0.1652  0.1497
   84MOL   Cl1610142   2.715   5.550   6.203 -0.1454  0.1987  0.0433
   84MOL    C1710143   2.924   5.621   6.332 -0.6836 -0.9124 -0.1594
   84MOL    H1810144   2.957   5.641   6.230  1.5499  0.7375  0.8592
   84MOL    H1910145   2.852   5.695   6.368  1.4388  0.7999  0.6296
   84MOL    C2010146   3.058   5.633   6.408 -0.2725  0.1128 -0.1302
   84MOL   Cl2110147   3.159   5.475   6.400  0.0438  0.3205 -0.2227
   84MOL   Cl2210148   3.037   5.666   6.586  0.3772 -0.7949 -0.0126
   84MOL    C2310149   3.155   5.739   6.349 -0.5243  0.7057  0.2259
   84MOL    H2410150   3.245   5.712   6.404 -1.4657 -0.9802  0.9753
   84MOL    H2510151   3.175   5.700   6.249  0.2565  1.9596 -0.1202
   84MOL    C2610152   3.129   5.891   6.338  0.1307  0.6628 -0.2761
   84MOL   Cl2710153   3.109   5.969   6.497  0.0735 -0.1795 -0.3167
   84MOL   Cl2810154   2.981   5.914   6.243 -0.1713  0.2779 -0.7367
   84MOL    C2910155   3.248   5.951   6.254 -0.4979  0.1748 -0.5448
   84MOL    H3010156   3.345   5.908   6.280 -0.8641  0.8475  2.0775
   84MOL    H3110157   3.230   5.920   6.151 -0.2042  0.4842 -0.6917
   84MOL    C3210158   3.280   6.106   6.253  0.4564  0.3412  0.0244
   84MOL   Cl3310159   3.119   6.192   6.233  0.1161  0.0271 -0.0968
   84MOL   Cl3410160   3.361   6.142   6.104 -0.3049 -0.3237 -0.1663
   84MOL    C3510161   3.355   6.154   6.379  0.0596 -0.2085  0.0338
   84MOL    H3610162   3.371   6.262   6.377 -1.8602  0.0926 -0.3616
   84MOL    H3710163   3.289   6.145   6.466  0.4553  0.1298  0.3741
   84MOL    C3810164   3.486   6.078   6.428 -0.2422 -0.0219 -0.8298
   84MOL   Cl3910165   3.444   5.928   6.521 -0.4911  0.4433  0.1223
   84MOL   Cl4010166   3.560   6.190   6.543  0.4613 -0.4306 -0.4574
   84MOL    C4110167   3.586   6.050   6.317 -0.2422  0.6842  0.2878
   84MOL    H4210168   3.550   5.966   6.257 -1.5357  1.3081  0.1722
   84MOL    H4310169   3.600   6.134   6.248  3.7479 -1.0550 -1.1407
   84MOL    C4410170   3.739   6.017   6.347  0.5595  0.2768 -0.2234
   84MOL   Cl4510171   3.825   6.173   6.366  0.0111  0.8068 -0.2056
   84MOL   Cl4610172   3.814   5.953   6.191  0.5741 -0.0411 -0.4527
   84MOL    C4710173   3.772   5.913   6.459 -0.4937  0.3880  0.0873
   84MOL    H4810174   3.699   5.923   6.539 -0.7855  0.7299 -0.2244
   84MOL    H4910175   3.757   5.815   6.414  0.9807 -0.4618  1.3809
   84MOL    C5010176   3.921   5.913   6.531  0.2003  0.1727  0.2501
   84MOL   Cl5110177   3.937   6.041   6.650  0.1240 -0.1427  0.1930
   84MOL   Cl5210178   4.053   5.934   6.422  0.0505 -0.6622  0.0587
   84MOL    C5310179   3.934   5.779   6.606  0.3508 -0.1737 -0.3154
   84MOL    H5410180   3.940   5.713   6.520 -0.6479  0.1403 -0.6288
   84MOL    H5510181   4.031   5.788   6.655 -1.6649  0.7027  3.7264
   84MOL    C5610182   3.831   5.714   6.711  0.4990 -0.3162 -0.0711
   84MOL   Cl5710183   3.674   5.674   6.634  0.2547 -0.1823  0.4097
   84MOL   Cl5810184   3.791   5.830   6.844 -0.2906  0.2788  0.1247
   84MOL    C5910185   3.886   5.593   6.794  0.8071 -0.2926 -0.0877
   84MOL    H6010186   3.969   5.631   6.852  1.1462 -1.0474 -0.0827
   84MOL    H6110187   3.805   5.575   6.865  0.4606  1.7142  0.0707
   84MOL    C6210188   3.939   5.464   6.720 -0.0989  0.8650 -0.2642
   84MOL   Cl6310189   3.993   5.356   6.844  0.0538 -0.2433  0.0840
   84MOL   Cl6410190   4.093   5.503   6.635  0.4023 -0.0504  0.0645
   84MOL    C6510191   3.832   5.400   6.624 -0.5439  0.5880 -0.7070
   84MOL    H6610192   3.737   5.405   6.676 -0.8955  2.5248 -1.4951
   84MOL    H6710193   3.818   5.461   6.535 -2.2224  1.8278  0.3785
   84MOL    C6810194   3.845   5.255   6.571 -0.1574 -0.0720 -0.4010
   84MOL   Cl6910195   3.707   5.238   6.451  0.0679  0.2518  0.0720
   84MOL   Cl7010196   3.805   5.142   6.707 -0.1231 -0.0792 -0.1668
   84MOL    C7110197   3.988   5.225   6.509  0.0533  0.4259  0.2237
   84MOL    H7210198   4.014   5.294   6.429  0.4125 -2.4756 -2.2344
   84MOL    H7310199   4.061   5.241   6.588 -0.5972  0.0860  0.9076
   84MOL    C7410200   4.024   5.083   6.463 -0.4620  0.1628 -0.6136
   84MOL   Cl7510201   3.892   4.997   6.381 -0.0965  0.3085  0.2825
   84MOL   Cl7610202   4.081   4.990   6.606 -0.2130  0.0046 -0.2000
   84MOL    C7710203   4.140   5.090   6.362 -0.3992  0.1912 -0.6377
   84MOL    H7810204   4.096   5.137   6.275  0.3353  0.3052 -0.9559
   84MOL    H7910205   4.208   5.166   6.400 -3.3825  2.8263 -0.3769
   84MOL    C8010206   4.219   4.972   6.303  0.1006 -0.1681  0.1093
   84MOL   Cl8110207   4.307   4.894   6.431 -0.0843 -0.3323 -0.5547
   84MOL   Cl8210208   4.341   5.041   6.196 -0.4268  0.0044 -0.4235
   84MOL    C8310209   4.130   4.855   6.244  0.0868  0.3720 -0.0111
   84MOL    H8410210   4.064   4.816   6.321 -0.9779 -0.6547 -1.4107
   84MOL    H8510211   4.055   4.911   6.188  2.1263  2.1288 -1.0889
   84MOL    C8610212   4.176   4.739   6.154 -0.5036 -0.6880 -0.0343
   84MOL   Cl8710213   4.272   4.807   6.022  0.1604  0.3958  0.4147
   84MOL   Cl8810214   4.034   4.660   6.083  0.0402  0.0616 -0.5693
   84MOL    C8910215   4.266   4.638   6.233 -0.1147  0.6295  0.2400
   84MOL    H9010216   4.363   4.676   6.265  0.1094 -0.4585  0.8823
   84MOL    H9110217   4.210   4.611   6.323  0.2707 -0.0191  0.2845
   84MOL    C9210218   4.314   4.506   6.170 -0.2091 -0.6476 -0.2250
   84MOL   Cl9310219   4.184   4.388   6.180 -0.0776  0.0633 -0.3180
   84MOL   Cl9410220   4.435   4.433   6.280 -0.0550 -0.7132  0.2173
   84MOL    C9510221   4.381   4.524   6.033  0.3647  0.4532  0.3481
   84MOL    H9610222   4.301   4.554   5.966  0.0617 -2.4865 -0.6642
   84MOL    H9710223   4.450   4.607   6.046  0.4417  0.2413  1.3227
   84MOL    C9810224   4.454   4.416   5.940  0.4322 -0.0087  0.2685
   84MOL   Cl9910225   4.599   4.364   6.033  0.3174  0.6636 -0.0359
   84MOL  Cl10010226   4.510   4.497   5.787 -0.1127 -0.6974  0.1498
   84MOL   C10110227   4.370   4.286   5.895  1.2283 -0.8688  0.5140
   84MOL   H10210228   4.316   4.252   5.983  0.6422 -1.0854  0.0737
   84MOL   H10310229   4.301   4.319   5.817  2.4193  2.6542  0.8868
   84MOL   C10410230   4.442   4.158   5.841 -0.0538 -0.3697 -0.2577
   84MOL  Cl10510231   4.316   4.064   5.765  0.1352 -0.2985 -0.0646
   84MOL  Cl10610232   4.509   4.083   5.987 -0.0448 -0.0460 -0.5542
   84MOL   C10710233   4.548   4.195   5.735 -0.1178  0.4318  0.5849
   84MOL   H10810234   4.500   4.260   5.662  2.6011 -1.7179 -3.3057
   84MOL   H10910235   4.619   4.261   5.785 -1.3822  3.5252 -1.5450
   84MOL   C11010236   4.627   4.106   5.643  0.5516  0.1930  0.4290
   84MOL  Cl11110237   4.519   4.024   5.522 -0.1773 -0.0509  0.1188
   84MOL  Cl11210238   4.693   3.975   5.740  0.1015 -0.2195  0.1401
   84MOL   C11310239   4.736   4.185   5.560  0.2793  0.5627 -0.5492
   84MOL   H11410240   4.783   4.104   5.505  1.3003  1.8164 -1.5410
   84MOL   H11510241   4.688   4.254   5.491 -2.5364  1.2607  1.9531
   84MOL   C11610242   4.853   4.267   5.614  0.1167 -0.1093  0.0990
   84MOL  Cl11710243   4.805   4.436   5.639  0.4864 -0.1641 -0.6405
   84MOL  Cl11810244   4.978   4.272   5.480 -0.1752  0.1067  0.1855
   84MOL   C11910245   4.915   4.216   5.748  0.1991  0.2061 -0.8798
   84MOL   H12010246   4.937   4.110   5.747 -1.0448 -0.0944  1.3990
   84MOL   H12110247   5.008   4.268   5.773 -0.4353  0.1054  1.7815
   84MOL   H12210248   4.856   4.252   5.832 -1.6060 -2.1021 -1.1426
   85MOL     C110249   7.603   4.933   4.683  0.0627 -0.1151  0.5802
   85MOL    Cl210250   7.507   4.853   4.814  0.3629 -0.0140 -0.3589
   85MOL    Cl310251   7.558   4.859   4.530 -0.0724 -0.6732 -0.0928
   85MOL     C410252   7.575   5.084   4.676 -0.1290 -0.4780  0.1495
   85MOL     H510253   7.614   5.127   4.583 -1.1144 -0.9087 -0.4699
   85MOL     H610254   7.466   5.095   4.669 -0.0917 -0.2225 -0.0905
   85MOL     H710255   7.706   4.903   4.702  0.7429  1.8852  0.1304
   85MOL     C810256   7.624   5.170   4.797 -0.1954 -0.4648  0.0616
   85MOL    Cl910257   7.791   5.116   4.835  0.1174 -0.4222  0.0267
   85MOL   Cl1010258   7.529   5.136   4.947 -0.2769 -0.1629  0.0860
   85MOL    C1110259   7.634   5.324   4.763  0.2886 -0.4717  0.2340
   85MOL    H1210260   7.689   5.368   4.846  0.1102  2.5671 -1.1983
   85MOL    H1310261   7.700   5.323   4.676  2.9876 -1.2858  2.2285
   85MOL    C1410262   7.516   5.406   4.725 -0.7216  0.2972 -0.0804
   85MOL   Cl1510263   7.396   5.408   4.856 -0.2704 -0.1607 -0.0904
   85MOL   Cl1610264   7.441   5.351   4.574  0.0637 -0.1879 -0.0921
   85MOL    C1710265   7.553   5.558   4.715 -0.8022 -0.5728 -0.1388
   85MOL    H1810266   7.464   5.620   4.702 -1.0482 -1.0792 -0.9081
   85MOL    H1910267   7.605   5.577   4.809 -0.4480 -0.2790 -0.3922
   85MOL    C2010268   7.666   5.611   4.619  0.0795  0.6644 -0.0911
   85MOL   Cl2110269   7.825   5.556   4.668 -0.1696  0.1363 -0.1974
   85MOL   Cl2210270   7.668   5.785   4.654  0.1824 -0.6269  0.0859
   85MOL    C2310271   7.639   5.582   4.471  0.1288 -0.0754 -0.5519
   85MOL    H2410272   7.671   5.479   4.454 -0.8249 -0.5954  0.7692
   85MOL    H2510273   7.531   5.583   4.457 -0.3222  0.6753  2.5175
   85MOL    C2610274   7.707   5.664   4.351 -0.0176  0.5667  0.7086
   85MOL   Cl2710275   7.600   5.795   4.308  0.2195 -0.0016 -0.1998
   85MOL   Cl2810276   7.718   5.543   4.215  0.0863  0.8392 -0.1079
   85MOL    C2910277   7.854   5.710   4.366  0.3190  0.0167 -0.2483
   85MOL    H3010278   7.864   5.766   4.459 -0.6437  2.0608 -1.3415
   85MOL    H3110279   7.921   5.627   4.384  1.6847  1.1411 -0.0421
   85MOL    C3210280   7.919   5.809   4.259 -0.3151 -0.4618  0.1131
   85MOL   Cl3310281   8.094   5.796   4.289  0.0490 -0.3965 -0.0036
   85MOL   Cl3410282   7.877   5.978   4.314  0.3042  0.2676 -0.3720
   85MOL    C3510283   7.886   5.782   4.102  0.0892  0.6609  0.8721
   85MOL    H3610284   7.926   5.681   4.093 -0.2699  0.5995 -0.0324
   85MOL    H3710285   7.779   5.773   4.089 -0.0488  0.4904  2.0437
   85MOL    C3810286   7.942   5.871   3.992  0.5013 -0.1455  0.6825
   85MOL   Cl3910287   8.120   5.889   4.005 -0.4550  0.2984 -0.2965
   85MOL   Cl4010288   7.878   6.034   4.001 -0.0476  0.1397 -0.0361
   85MOL    C4110289   7.909   5.828   3.840 -0.9998 -0.5338  0.0848
   85MOL    H4210290   7.807   5.858   3.818  0.1063  2.2091 -1.6339
   85MOL    H4310291   7.970   5.899   3.785  1.6282 -1.0015  2.2765
   85MOL    C4410292   7.924   5.688   3.782  0.2104 -0.2925  0.1385
   85MOL   Cl4510293   7.907   5.711   3.608 -0.3143 -0.0180 -0.0020
   85MOL   Cl4610294   7.782   5.580   3.834 -0.0986  0.1097  0.0913
   85MOL    C4710295   8.062   5.629   3.807  0.6188 -0.3634 -0.8948
   85MOL    H4810296   8.140   5.685   3.756  1.1484  1.3571  1.7304
   85MOL    H4910297   8.071   5.648   3.914  3.6987 -0.0101 -1.1855
   85MOL    C5010298   8.086   5.478   3.777  0.4892  0.1071  0.2925
   85MOL   Cl5110299   7.987   5.365   3.874 -0.1057 -0.1643  0.4190
   85MOL   Cl5210300   8.249   5.460   3.840 -0.0231  0.1818  0.1429
   85MOL    C5310301   8.088   5.423   3.626  1.1042  0.1300  0.5806
   85MOL    H5410302   8.006   5.469   3.571  1.6767 -0.7081 -1.0082
   85MOL    H5510303   8.181   5.457   3.580  1.1529  1.2358  1.4836
   85MOL    C5610304   8.082   5.267   3.583 -0.1032 -0.4244  0.8738
   85MOL   Cl5710305   8.121   5.260   3.410  0.2085  0.4327 -0.0385
   85MOL   Cl5810306   7.913   5.228   3.614 -0.5415  0.7518 -0.0069
   85MOL    C5910307   8.190   5.188   3.658 -0.3008  0.6274 -0.3436
   85MOL    H6010308   8.273   5.259   3.657  0.0523  0.2189 -0.7358
   85MOL    H6110309   8.176   5.188   3.766  1.8394  2.0143 -0.0247
   85MOL    C6210310   8.255   5.046   3.617 -0.6220 -0.3427  0.4613
   85MOL   Cl6310311   8.378   5.015   3.744 -0.2213  0.1493  0.0568
   85MOL   Cl6410312   8.355   5.066   3.464 -0.0540  0.3389 -0.1780
   85MOL    C6510313   8.153   4.930   3.607 -0.0195 -0.9352  0.4823
   85MOL    H6610314   8.142   4.915   3.715 -2.9052 -1.2945  0.1933
   85MOL    H6710315   8.061   4.977   3.572  0.5981 -0.6310 -0.7434
   85MOL    C6810316   8.186   4.806   3.530 -0.3760 -0.1161 -0.9235
   85MOL   Cl6910317   8.144   4.820   3.359  0.2387  0.0023  0.3477
   85MOL   Cl7010318   8.077   4.682   3.598  0.1311  0.0500 -0.2561
   85MOL    C7110319   8.331   4.757   3.561 -0.2753 -0.1351  0.4622
   85MOL    H7210320   8.406   4.829   3.530  0.7450 -1.1604  0.5451
   85MOL    H7310321   8.341   4.762   3.670  0.9458 -2.7432  0.4889
   85MOL    C7410322   8.382   4.614   3.517 -0.0298  0.2979 -0.1193
   85MOL   Cl7510323   8.296   4.480   3.603 -0.2686 -0.1990 -0.2065
   85MOL   Cl7610324   8.552   4.603   3.545  0.1220 -0.5981  0.1822
   85MOL    C7710325   8.350   4.593   3.364 -0.4466 -0.2018 -0.3416
   85MOL    H7810326   8.244   4.570   3.351 -0.6878  0.6759  0.0792
   85MOL    H7910327   8.375   4.682   3.307  0.0700 -0.0116  0.1711
   85MOL    C8010328   8.424   4.484   3.291 -0.6898  0.2176  0.6911
   85MOL   Cl8110329   8.583   4.537   3.225 -0.1698  0.0538  0.5015
   85MOL   Cl8210330   8.328   4.470   3.138  0.0607  0.0734 -0.1790
   85MOL    C8310331   8.438   4.344   3.361 -0.5088 -1.2292  0.0391
   85MOL    H8410332   8.515   4.355   3.438  0.6653  2.7388 -1.6073
   85MOL    H8510333   8.334   4.331   3.392 -0.5638 -1.3654 -0.1974
   85MOL    C8610334   8.470   4.215   3.284 -0.6734 -0.2426 -0.4452
   85MOL   Cl8710335   8.624   4.240   3.187  0.1874  0.0985 -0.7430
   85MOL   Cl8810336   8.336   4.171   3.165  0.1370 -0.0143  0.1846
   85MOL    C8910337   8.502   4.086   3.370 -0.0549 -0.0344 -0.5663
   85MOL    H9010338   8.497   4.006   3.297  0.6737 -2.6497  2.1786
   85MOL    H9110339   8.608   4.096   3.395 -0.1540  1.9510 -0.8688
   85MOL    C9210340   8.427   4.056   3.503 -0.2346 -0.4599 -0.5962
   85MOL   Cl9310341   8.261   4.102   3.503  0.1206  0.2029  0.1910
   85MOL   Cl9410342   8.496   4.157   3.631 -0.2365 -0.7278  0.3311
   85MOL    C9510343   8.443   3.903   3.544  0.8407 -0.3646  0.3452
   85MOL    H9610344   8.537   3.904   3.601  1.4787 -1.3635 -0.6820
   85MOL    H9710345   8.365   3.882   3.617  2.1684 -1.1756  1.5758
   85MOL    C9810346   8.414   3.782   3.445  0.3206 -0.3519  0.2214
   85MOL   Cl9910347   8.572   3.750   3.359  0.2919 -0.1389  0.4346
   85MOL  Cl10010348   8.293   3.819   3.325 -0.0150 -0.1614 -0.4703
   85MOL   C10110349   8.369   3.651   3.512  0.2849 -0.3312 -0.0986
   85MOL   H10210350   8.263   3.654   3.537 -0.2958 -0.2517 -2.5008
   85MOL   H10310351   8.378   3.568   3.442 -1.5650 -0.8993  0.3082
   85MOL   C10410352   8.436   3.603   3.644 -0.5023  0.2808  0.0351
   85MOL  Cl10510353   8.383   3.702   3.786  0.1649 -0.0153 -0.0019
   85MOL  Cl10610354   8.612   3.624   3.647 -0.0567  0.0211  0.3616
   85MOL   C10710355   8.401   3.451   3.675  0.2322 -0.3400  0.2507
   85MOL   H10810356   8.442   3.380   3.603 -1.0360 -1.2292  0.3808
   85MOL   H10910357   8.450   3.438   3.771  0.7181  2.1172  0.3748
   85MOL   C11010358   8.257   3.397   3.672 -0.7042  0.3661 -0.0212
   85MOL  Cl11110359   8.169   3.411   3.519 -0.3472  0.3321 -0.2216
   85MOL  Cl11210360   8.170   3.477   3.798 -0.4095  0.0347 -0.0717
   85MOL   C11310361   8.257   3.244   3.710  0.4913 -0.3122  0.9376
   85MOL   H11410362   8.153   3.215   3.727  0.1279 -0.0448 -0.7622
   85MOL   H11510363   8.287   3.193   3.618 -2.0275  0.5920 -0.4327
   85MOL   C11610364   8.338   3.190   3.834 -0.1062  0.1978  0.1452
   85MOL  Cl11710365   8.518   3.195   3.804 -0.2130  0.4452  0.2136
   85MOL  Cl11810366   8.290   3.019   3.851 -0.1445  0.0595 -0.0927
   85MOL   C11910367   8.307   3.262   3.962  0.6474 -0.0666  0.1700
   85MOL   H12010368   8.359   3.212   4.044 -0.2400  0.6871  1.2148
   85MOL   H12110369   8.344   3.364   3.959  0.8010 -0.1344 -0.2024
   85MOL   H12210370   8.202   3.270   3.992  0.7402  0.7250  0.2905
   86MOL     C110371   8.804   3.938   0.959 -0.2285 -0.3115 -0.0717
   86MOL    Cl210372   8.765   3.993   1.128  0.0027  0.1579  0.0367
   86MOL    Cl310373   8.970   3.883   0.924 -0.2069  0.2586 -0.1417
   86MOL     C410374   8.711   3.824   0.925 -0.0919 -0.0640 -0.3367
   86MOL     H510375   8.761   3.750   0.863 -2.5658  0.2410 -2.7668
   86MOL     H610376   8.690   3.763   1.013  0.7754 -0.0502 -0.1124
   86MOL     H710377   8.784   4.022   0.892 -1.3726 -1.3923 -1.1168
   86MOL     C810378   8.578   3.857   0.851  0.0388 -0.1048  0.2630
   86MOL    Cl910379   8.628   3.933   0.695 -0.3138  0.2732  0.1198
   86MOL   Cl1010380   8.484   3.968   0.945  0.6123 -0.2448 -0.2181
   86MOL    C1110381   8.487   3.743   0.806 -0.4549  1.3329 -0.2478
   86MOL    H1210382   8.392   3.792   0.785 -0.9012  0.2835 -0.7276
   86MOL    H1310383   8.527   3.705   0.712  1.0551 -0.8305  1.1828
   86MOL    C1410384   8.452   3.610   0.889 -0.5644 -0.6663  0.0884
   86MOL   Cl1510385   8.378   3.653   1.050  0.1361  0.3740  0.0288
   86MOL   Cl1610386   8.605   3.515   0.928  0.3081  0.1734 -0.2128
   86MOL    C1710387   8.345   3.515   0.820  0.2709 -0.3742 -0.8309
   86MOL    H1810388   8.322   3.434   0.889  2.9652 -0.6883 -0.2782
   86MOL    H1910389   8.245   3.558   0.834  0.3152 -1.3423  3.1321
   86MOL    C2010390   8.346   3.456   0.683 -0.2435  0.3870 -0.3342
   86MOL   Cl2110391   8.513   3.438   0.624 -0.2246 -0.3424 -0.1356
   86MOL   Cl2210392   8.284   3.580   0.572  0.0828 -0.2351  0.3703
   86MOL    C2310393   8.273   3.312   0.680  0.3373  0.3419 -1.1414
   86MOL    H2410394   8.306   3.259   0.590 -1.7150  0.4485 -1.9834
   86MOL    H2510395   8.302   3.240   0.756 -0.2140 -0.1170 -1.3589
   86MOL    C2610396   8.113   3.306   0.664  0.0179 -0.9835 -0.9402
   86MOL   Cl2710397   8.034   3.415   0.788 -0.1260  0.4550  0.3497
   86MOL   Cl2810398   8.061   3.136   0.705 -0.3114  0.2151 -0.0550
   86MOL    C2910399   8.073   3.345   0.515 -0.5088  0.3522 -0.0331
   86MOL    H3010400   8.070   3.454   0.509 -1.4283  0.2990 -0.8752
   86MOL    H3110401   8.159   3.323   0.452 -0.3160 -2.3786  1.1327
   86MOL    C3210402   7.942   3.303   0.451  0.4762  0.2876  0.9177
   86MOL   Cl3310403   7.976   3.128   0.397 -0.0724  0.1423  0.4142
   86MOL   Cl3410404   7.938   3.403   0.297 -0.1112  0.0558 -0.1397
   86MOL    C3510405   7.818   3.324   0.539 -0.2652  0.0287  0.4243
   86MOL    H3610406   7.824   3.267   0.632  1.5910 -0.6912 -0.1262
   86MOL    H3710407   7.823   3.429   0.570  0.4076 -0.3653  1.6633
   86MOL    C3810408   7.680   3.277   0.488 -0.1187  0.5574 -0.3503
   86MOL   Cl3910409   7.677   3.100   0.446  0.0492  0.0250  0.0161
   86MOL   Cl4010410   7.637   3.357   0.342  0.2339 -0.2183 -0.0685
   86MOL    C4110411   7.562   3.303   0.580 -0.0778 -0.3063 -0.3664
   86MOL    H4210412   7.545   3.410   0.580  1.2947 -0.0773  0.2186
   86MOL    H4310413   7.475   3.251   0.539 -0.8866  1.2811 -0.7121
   86MOL    C4410414   7.570   3.275   0.735 -0.1586 -0.8208  0.8568
   86MOL   Cl4510415   7.676   3.393   0.823 -0.0669  0.4103  0.2334
   86MOL   Cl4610416   7.639   3.115   0.754 -0.0514  0.5426 -0.0597
   86MOL    C4710417   7.427   3.271   0.800 -0.0776 -0.0380  0.1550
   86MOL    H4810418   7.377   3.182   0.760  0.0247  0.0457 -0.1606
   86MOL    H4910419   7.442   3.252   0.906  1.9401  0.5541  0.0001
   86MOL    C5010420   7.322   3.393   0.799 -0.4026 -0.2209 -0.3114
   86MOL   Cl5110421   7.292   3.482   0.636 -0.1822 -0.0128 -0.3004
   86MOL   Cl5210422   7.366   3.531   0.906 -0.2498  0.0137  0.0267
   86MOL    C5310423   7.179   3.348   0.843  0.2942  0.4421  0.5030
   86MOL    H5410424   7.192   3.307   0.943  2.8093 -0.1996 -0.0679
   86MOL    H5510425   7.114   3.435   0.849 -1.9287 -1.0947 -0.3925
   86MOL    C5610426   7.106   3.233   0.758  0.2022 -0.9192  0.0820
   86MOL   Cl5710427   7.142   3.079   0.838  0.0075 -0.3191 -0.2035
   86MOL   Cl5810428   7.180   3.214   0.588  0.3049  0.0969 -0.3204
   86MOL    C5910429   6.946   3.251   0.742 -0.4679  0.0748 -0.3412
   86MOL    H6010430   6.919   3.162   0.685 -2.0345  0.8825 -0.9054
   86MOL    H6110431   6.888   3.242   0.834 -1.1086 -1.0436 -0.8321
   86MOL    C6210432   6.872   3.374   0.671 -0.4712  0.5705  0.1510
   86MOL   Cl6310433   6.953   3.409   0.511  0.2235 -0.3169  0.2358
   86MOL   Cl6410434   6.875   3.521   0.768  0.2163 -0.0485  0.0415
   86MOL    C6510435   6.719   3.356   0.645  0.2684 -0.9271 -0.8260
   86MOL    H6610436   6.670   3.366   0.742 -1.4300 -0.8798 -1.6743
   86MOL    H6710437   6.700   3.447   0.589 -1.1861 -1.6698 -1.5615
   86MOL    C6810438   6.664   3.223   0.585  0.4263  0.4029 -0.4312
   86MOL   Cl6910439   6.661   3.100   0.709 -0.3777  0.3596 -0.0699
   86MOL   Cl7010440   6.763   3.155   0.455  0.0933 -0.2925 -0.1720
   86MOL    C7110441   6.513   3.235   0.546 -1.0558 -0.6123 -0.5525
   86MOL    H7210442   6.476   3.136   0.521 -1.2559  0.3672 -4.3527
   86MOL    H7310443   6.454   3.247   0.637  0.9073 -3.8759  1.2540
   86MOL    C7410444   6.452   3.335   0.445 -0.4723 -0.3841  0.2044
   86MOL   Cl7510445   6.433   3.495   0.520  0.0429  0.2607 -0.4402
   86MOL   Cl7610446   6.278   3.285   0.434  0.0095 -0.0652 -0.1460
   86MOL    C7710447   6.517   3.344   0.307  0.1913 -0.2725 -0.2560
   86MOL    H7810448   6.624   3.346   0.327 -0.0358 -3.4291  1.5590
   86MOL    H7910449   6.498   3.242   0.274 -0.0139 -0.0748 -0.7667
   86MOL    C8010450   6.472   3.439   0.194 -0.2290 -0.4936 -0.1395
   86MOL   Cl8110451   6.513   3.606   0.235  0.0269 -0.1231  0.0273
   86MOL   Cl8210452   6.300   3.420   0.164  0.2330  0.1536 -0.6409
   86MOL    C8310453   6.537   3.405   0.058  0.6005  0.4962 -0.0001
   86MOL    H8410454   6.479   3.471   9.174  1.6054  0.4689 -0.9365
   86MOL    H8510455   6.637   3.448   0.066  1.6783 -1.6426 -1.3952
   86MOL    C8610456   6.546   3.260   0.001  0.4407  0.4037  0.3375
   86MOL   Cl8710457   6.686   3.198   0.079 -0.3537 -0.0110  0.4961
   86MOL   Cl8810458   6.594   3.281   9.011  0.1518  0.1752  0.5041
   86MOL    C8910459   6.418   3.170   0.020  0.1602  0.3678 -0.1658
   86MOL    H9010460   6.380   3.189   0.120 -0.9784  4.2883 -1.2483
   86MOL    H9110461   6.340   3.197   9.130  0.6671 -0.9467 -1.2572
   86MOL    C9210462   6.428   3.014   0.017 -0.6853 -0.5050 -0.6873
   86MOL   Cl9310463   6.513   2.947   0.160 -0.0166 -0.2067  0.0096
   86MOL   Cl9410464   6.522   2.973   9.060 -0.3424 -0.0731 -0.3445
   86MOL    C9510465   6.295   2.939   0.004  0.5791  0.2951  0.3671
   86MOL    H9610466   6.254   2.952   9.084  1.4478  3.5274  0.3671
   86MOL    H9710467   6.313   2.833   0.019 -0.3639  0.3703  2.2114
   86MOL    C9810468   6.174   2.975   0.095 -0.0381 -0.3592  0.5312
   86MOL   Cl9910469   6.108   3.143   0.074  0.0295 -0.2038  0.6147
   86MOL  Cl10010470   6.217   2.958   0.270 -0.2643  0.1928 -0.1784
   86MOL   C10110471   6.046   2.883   0.070  1.1481  0.3761  0.1062
   86MOL   H10210472   5.966   2.904   0.141  0.9482 -0.3549  0.1018
   86MOL   H10310473   6.002   2.911   9.155  1.8353  1.3658  0.0620
   86MOL   C10410474   6.050   2.725   0.053 -0.8349  0.1082 -0.0675
   86MOL  Cl10510475   6.115   2.709   9.064  0.2735  0.4858  0.4314
   86MOL  Cl10610476   5.883   2.681   0.069 -0.0010  0.1535  0.3836
   86MOL   C10710477   6.134   2.640   0.149 -0.0964 -0.2693  0.0426
   86MOL   H10810478   6.236   2.676   0.138  0.1174 -0.4857  1.2601
   86MOL   H10910479   6.108   2.679   0.247 -2.5189 -0.7485 -0.3743
   86MOL   C11010480   6.133   2.488   0.155  0.4452 -0.7528 -0.8617
   86MOL  Cl11110481   5.981   2.425   0.234 -0.1031 -0.2641  0.1061
   86MOL  Cl11210482   6.264   2.454   0.269 -0.3062 -0.1092 -0.0752
   86MOL   C11310483   6.152   2.423   0.018  0.2600  0.2860 -0.1622
   86MOL   H11410484   6.074   2.458   9.131  0.6526 -3.5493 -2.7829
   86MOL   H11510485   6.245   2.455   9.151 -0.2681 -2.8701 -3.5893
   86MOL   C11610486   6.132   2.268   9.179  0.2496 -0.4117 -0.4724
   86MOL  Cl11710487   6.212   2.231   9.022 -0.1352 -0.2266  0.4680
   86MOL  Cl11810488   5.960   2.221   0.002  0.3934 -0.0683 -0.4206
   86MOL   C11910489   6.189   2.176   0.113 -0.0861 -0.8332  0.1388
   86MOL   H12010490   6.145   2.197   0.211  1.1111 -3.0435  1.1754
   86MOL   H12110491   6.179   2.070   0.090 -1.8495 -0.3502 -1.4987
   86MOL   H12210492   6.295   2.199   0.124 -0.0261  0.3807 -2.6634
   87MOL     C110493   0.204   8.416   1.741 -0.0955 -0.8768 -0.3892
   87MOL    Cl210494   0.245   8.269   1.833 -0.2777  0.0405  0.1587
   87MOL    Cl310495   0.342   8.460   1.639  0.4390  0.0296  0.2136
   87MOL     C410496   0.079   8.390   1.654  0.3286  0.1272 -0.3686
   87MOL     H510497   0.089   8.437   1.556  0.8414  0.0942 -0.3322
   87MOL     H610498   0.080   8.282   1.634  2.0484  0.0257  0.2113
   87MOL     H710499   0.187   8.498   1.811  1.0080 -0.1703 -0.9291
   87MOL     C810500   9.117   8.419   1.701  0.4521 -0.1769 -0.1482
   87MOL    Cl910501   9.101   8.587   1.722  0.4530 -0.1145  0.2078
   87MOL   Cl1010502   9.093   8.341   1.865 -0.0555  0.1529  0.1208
   87MOL    C1110503   9.021   8.355   1.598  0.5013 -0.2655  0.9417
   87MOL    H1210504   9.060   8.351   1.497 -1.2667 -3.2232  0.3005
   87MOL    H1310505   9.014   8.253   1.636 -1.7634 -0.3259  0.4388
   87MOL    C1410506   8.877   8.408   1.593  0.4878  0.1639 -0.1180
   87MOL   Cl1510507   8.793   8.288   1.488  0.4620  0.0302 -0.0287
   87MOL   Cl1610508   8.892   8.561   1.492  0.1172  0.0406  0.3885
   87MOL    C1710509   8.791   8.436   1.723  0.5472 -0.1181 -0.6047
   87MOL    H1810510   8.782   8.341   1.775 -2.4159  0.0485 -0.7433
   87MOL    H1910511   8.850   8.499   1.791 -2.4776  2.6934 -0.4534
   87MOL    C2010512   8.652   8.511   1.717 -0.2522  0.6672 -0.1436
   87MOL   Cl2110513   8.681   8.690   1.731 -0.0464  0.2299 -0.1353
   87MOL   Cl2210514   8.569   8.463   1.863 -0.1737  0.2464 -0.3741
   87MOL    C2310515   8.559   8.473   1.593  0.5403 -0.1431  0.0621
   87MOL    H2410516   8.604   8.507   1.500  5.1119 -1.0310  1.8311
   87MOL    H2510517   8.555   8.364   1.584  0.5939 -0.2141  0.8926
   87MOL    C2610518   8.415   8.524   1.588 -0.2842  0.4451  0.7829
   87MOL   Cl2710519   8.303   8.428   1.688 -0.2279  0.0695 -0.0050
   87MOL   Cl2810520   8.356   8.503   1.418  0.3779  0.0960  0.2630
   87MOL    C2910521   8.392   8.676   1.624  1.0526  0.4322  0.2026
   87MOL    H3010522   8.398   8.673   1.732 -3.8467  1.8706  0.6171
   87MOL    H3110523   8.476   8.728   1.579  1.3141 -1.6798 -1.8679
   87MOL    C3210524   8.265   8.757   1.587  0.3838 -1.6246 -0.3532
   87MOL   Cl3310525   8.277   8.818   1.422  0.2419 -0.3269 -0.1302
   87MOL   Cl3410526   8.276   8.905   1.693 -0.2040 -0.1849  0.0640
   87MOL    C3510527   8.132   8.692   1.618 -0.0711 -0.1088  0.0125
   87MOL    H3610528   8.140   8.591   1.578 -0.6943 -0.3362  0.4493
   87MOL    H3710529   8.136   8.682   1.726  3.2171  0.4511 -0.0153
   87MOL    C3810530   7.995   8.752   1.569  0.1810  0.5899 -0.1367
   87MOL   Cl3910531   7.968   8.730   1.400  0.3039 -0.3190 -0.0281
   87MOL   Cl4010532   7.976   8.929   1.609 -0.3263  0.2073  0.1835
   87MOL    C4110533   7.877   8.673   1.632 -0.5750  0.3191  0.8259
   87MOL    H4210534   7.870   8.708   1.735  1.4290  0.8016  0.8072
   87MOL    H4310535   7.791   8.707   1.573  1.7779  0.7735 -2.5233
   87MOL    C4410536   7.868   8.521   1.644  0.1579  0.3999  0.0379
   87MOL   Cl4510537   7.692   8.501   1.667  0.0110  0.0254  0.0338
   87MOL   Cl4610538   7.961   8.484   1.785 -0.1347  0.0126 -0.2200
   87MOL    C4710539   7.916   8.441   1.513  0.1092  0.4889  0.0619
   87MOL    H4810540   7.852   8.483   1.435 -2.3686 -3.1689 -0.0025
   87MOL    H4910541   8.010   8.481   1.475 -0.4351  1.0595 -0.6939
   87MOL    C5010542   7.908   8.284   1.515 -0.0742  0.1022  0.1700
   87MOL   Cl5110543   7.749   8.218   1.568  0.1792  0.1688 -0.2051
   87MOL   Cl5210544   8.025   8.226   1.632  0.1278 -0.4771 -0.6429
   87MOL    C5310545   7.945   8.217   1.377 -0.1155 -0.1796 -1.4417
   87MOL    H5410546   8.040   8.262   1.348 -1.5007  2.9194 -1.3550
   87MOL    H5510547   7.976   8.114   1.394  2.1974  0.6586 -0.3475
   87MOL    C5610548   7.849   8.228   1.249 -0.4583  1.4363  0.1925
   87MOL   Cl5710549   7.780   8.393   1.215 -0.2138 -0.0584 -0.2667
   87MOL   Cl5810550   7.718   8.100   1.249  0.2875  0.0851 -0.3498
   87MOL    C5910551   7.931   8.189   1.123  0.6252 -0.1010  0.3771
   87MOL    H6010552   7.963   8.087   1.145 -1.5465 -0.5155  1.7144
   87MOL    H6110553   7.860   8.196   1.040 -1.4934 -1.4581  2.0322
   87MOL    C6210554   8.064   8.256   1.072  0.0301  1.1045 -0.2346
   87MOL   Cl6310555   8.206   8.179   1.154  0.0155  0.2428 -0.3517
   87MOL   Cl6410556   8.069   8.436   1.123  0.1129 -0.1685 -0.3925
   87MOL    C6510557   8.072   8.242   0.918 -0.2241  0.2570 -0.3882
   87MOL    H6610558   8.029   8.145   0.894 -0.8011  0.6099 -0.8160
   87MOL    H6710559   7.999   8.312   0.875  0.6514 -0.4661 -3.1183
   87MOL    C6810560   8.207   8.257   0.843  0.0445  0.2692  0.4024
   87MOL   Cl6910561   8.290   8.404   0.885  0.1552 -0.0762 -0.0712
   87MOL   Cl7010562   8.170   8.279   0.674  0.4756 -0.5667  0.1029
   87MOL    C7110563   8.317   8.150   0.855  0.0977  0.4955 -0.2364
   87MOL    H7210564   8.402   8.179   0.793  1.2103  0.5858  1.2992
   87MOL    H7310565   8.346   8.146   0.960 -2.7343 -4.1044  0.5230
   87MOL    C7410566   8.299   7.995   0.819 -0.1226 -0.0072 -0.2781
   87MOL   Cl7510567   8.228   7.974   0.663 -0.2225  0.2218  0.0726
   87MOL   Cl7610568   8.198   7.913   0.941  0.6494  0.4989  0.2352
   87MOL    C7710569   8.442   7.924   0.808 -0.0600 -0.6631 -0.0086
   87MOL    H7810570   8.401   7.827   0.778 -2.0424  0.3404 -0.6285
   87MOL    H7910571   8.502   7.952   0.722  1.4641 -2.8786  0.2913
   87MOL    C8010572   8.532   7.902   0.925  0.0246  0.4175 -0.7974
   87MOL   Cl8110573   8.455   7.818   1.064 -0.0571 -0.1336  0.1400
   87MOL   Cl8210574   8.587   8.057   0.982  0.0384  0.3031 -0.1322
   87MOL    C8310575   8.654   7.811   0.882 -0.0301 -0.3077 -0.5846
   87MOL    H8410576   8.609   7.712   0.883 -0.3858 -0.1296  1.4004
   87MOL    H8510577   8.685   7.846   0.783  0.9922 -1.4502 -0.6827
   87MOL    C8610578   8.786   7.806   0.963  0.5041  0.0600  0.7794
   87MOL   Cl8710579   8.884   7.950   0.945 -0.3780 -0.0363 -0.1072
   87MOL   Cl8810580   8.877   7.674   0.881 -0.3038 -0.1895 -0.1664
   87MOL    C8910581   8.763   7.766   1.109 -0.4741 -0.6888 -0.8830
   87MOL    H9010582   8.705   7.842   1.162  0.6932 -2.5844  3.3435
   87MOL    H9110583   8.715   7.668   1.107  0.4197 -1.1297 -0.7726
   87MOL    C9210584   8.882   7.747   1.206  1.0190 -0.0796 -0.0556
   87MOL   Cl9310585   8.947   7.910   1.249 -0.2218  0.6910 -0.1896
   87MOL   Cl9410586   9.024   7.658   1.140 -0.2836  0.3222 -0.0262
   87MOL    C9510587   8.840   7.683   1.337  0.1232 -0.8544  1.0054
   87MOL    H9610588   8.935   7.678   1.390  1.2311 -2.3161 -1.0748
   87MOL    H9710589   8.785   7.763   1.388 -1.0853 -2.9114  2.9978
   87MOL    C9810590   8.766   7.550   1.358  0.1619 -0.1414 -0.9035
   87MOL   Cl9910591   8.599   7.583   1.302 -0.4882  0.0737  0.2915
   87MOL  Cl10010592   8.765   7.528   1.538  0.1536  0.0681 -0.3088
   87MOL   C10110593   8.833   7.430   1.278 -0.0992  0.2243  0.4744
   87MOL   H10210594   8.791   7.449   1.180 -0.1357 -0.8373  0.2818
   87MOL   H10310595   8.941   7.438   1.280 -0.1213  1.5413 -2.2322
   87MOL   C10410596   8.806   7.277   1.315  0.7049  0.1290  0.1311
   87MOL  Cl10510597   8.617   7.262   1.319 -0.4933 -0.3817 -0.1609
   87MOL  Cl10610598   8.883   7.229   1.471  0.4261  0.2045  0.0289
   87MOL   C10710599   8.860   7.172   1.215  0.3094  0.0450  0.3274
   87MOL   H10810600   8.969   7.164   1.220  0.3046  0.2184  0.7135
   87MOL   H10910601   8.820   7.077   1.250 -0.5257  0.3486  0.2021
   87MOL   C11010602   8.840   7.184   1.065  0.2157 -0.2462  0.0720
   87MOL  Cl11110603   8.944   7.308   0.999  0.6881  0.0366  0.0886
   87MOL  Cl11210604   8.672   7.218   1.016 -0.1627 -0.2080  0.1723
   87MOL   C11310605   8.891   7.043   1.011 -0.0946 -0.1545 -1.2162
   87MOL   H11410606   8.994   7.041   1.046 -0.6280  1.9729  0.6308
   87MOL   H11510607   8.840   6.959   1.060 -0.5065  1.0076  0.4149
   87MOL   C11610608   8.887   7.004   0.857  0.1727  0.3859 -0.5929
   87MOL  Cl11710609   8.966   7.116   0.743  0.1211 -0.3547 -0.1697
   87MOL  Cl11810610   8.717   6.989   0.812 -0.2439 -0.1353 -0.0220
   87MOL   C11910611   8.943   6.860   0.844  0.5360  0.1033  0.4394
   87MOL   H12010612   8.883   6.788   0.900  0.3291 -1.9981 -2.3824
   87MOL   H12110613   8.949   6.818   0.743  1.3509 -0.1060  0.5692
   87MOL   H12210614   9.043   6.857   0.889  0.6942 -1.0235  0.0432
   88MOL     C110615   5.501   7.266   0.179 -0.1404  0.3408 -0.0882
   88MOL    Cl210616   5.559   7.438   0.165 -0.3194 -0.3105 -0.0198
   88MOL    Cl310617   5.344   7.269   0.267 -0.2524 -0.2250 -0.0076
   88MOL     C410618   5.499   7.204   0.034 -0.0651  0.4356 -0.1359
   88MOL     H510619   5.423   7.256   9.157 -0.2492 -1.3750 -1.5673
   88MOL     H610620   5.594   7.221   9.163 -0.1112 -1.1014 -0.7345
   88MOL     H710621   5.570   7.207   0.239 -0.7998  1.0061  1.3332
   88MOL     C810622   5.472   7.052   0.021 -0.1395 -0.5045  0.7510
   88MOL    Cl910623   5.622   6.973   0.076 -0.2279  0.1156 -0.0462
   88MOL   Cl1010624   5.459   7.022   9.030  0.2032  0.3194 -0.4072
   88MOL    C1110625   5.340   6.999   0.093  0.4646 -0.4140  0.8592
   88MOL    H1210626   5.354   7.006   0.201 -1.1783 -0.4735  1.1019
   88MOL    H1310627   5.259   7.068   0.068  1.5500  0.0026 -1.6032
   88MOL    C1410628   5.274   6.858   0.050 -1.3515 -0.7266  1.1420
   88MOL   Cl1510629   5.176   6.885   9.085 -0.1450 -0.5601  0.2781
   88MOL   Cl1610630   5.153   6.830   0.167 -0.0135  0.0543 -0.0401
   88MOL    C1710631   5.376   6.741   0.036 -0.0526  0.3579 -0.2099
   88MOL    H1810632   5.473   6.773   9.178 -0.6385  0.6695 -1.4507
   88MOL    H1910633   5.393   6.709   0.139 -0.2709  0.3316 -0.1809
   88MOL    C2010634   5.335   6.614   9.135 -0.3380  0.2550  0.4537
   88MOL   Cl2110635   5.334   6.657   8.960 -0.4052  0.1360  0.0851
   88MOL   Cl2210636   5.165   6.556   9.162 -0.2364  0.1495  0.3080
   88MOL    C2310637   5.434   6.489   9.133 -0.1994  0.3786 -0.1638
   88MOL    H2410638   5.400   6.411   9.064  0.9098  1.7884 -2.3777
   88MOL    H2510639   5.537   6.505   9.101  0.2476 -0.7238  0.6750
   88MOL    C2610640   5.473   6.438   0.089  0.3507  0.4602 -0.0381
   88MOL   Cl2710641   5.597   6.549   0.155  0.3370  0.1559 -0.2604
   88MOL   Cl2810642   5.558   6.292   0.046 -0.0050  0.0141 -0.0188
   88MOL    C2910643   5.360   6.403   0.186 -0.4360  0.1023 -0.6309
   88MOL    H3010644   5.304   6.496   0.201 -0.6367 -0.3673  1.6369
   88MOL    H3110645   5.299   6.334   0.128 -1.3069 -0.0260  0.4252
   88MOL    C3210646   5.372   6.348   0.336 -0.4016  0.3847  0.8766
   88MOL   Cl3310647   5.463   6.474   0.425 -0.0780  0.0008 -0.3324
   88MOL   Cl3410648   5.446   6.195   0.342 -0.3425  0.0150 -0.1853
   88MOL    C3510649   5.234   6.338   0.412  0.0085  0.1179 -0.0751
   88MOL    H3610650   5.257   6.283   0.503 -0.3393 -0.4947 -0.3557
   88MOL    H3710651   5.205   6.442   0.429 -0.1521  0.2281 -1.0031
   88MOL    C3810652   5.111   6.263   0.354  0.7160  0.6816 -0.2302
   88MOL   Cl3910653   5.148   6.113   0.265  0.5892  0.2953 -0.2276
   88MOL   Cl4010654   5.031   6.369   0.230  0.0573  0.3286 -0.1894
   88MOL    C4110655   5.003   6.224   0.457 -0.9095  0.2972 -0.6003
   88MOL    H4210656   4.915   6.198   0.398 -0.3133 -1.1755 -0.8604
   88MOL    H4310657   5.047   6.139   0.509 -2.3520  0.4912  0.9725
   88MOL    C4410658   4.963   6.324   0.571  0.0979  0.2869 -0.1622
   88MOL   Cl4510659   4.912   6.482   0.504  0.2590  0.0470 -0.1889
   88MOL   Cl4610660   5.096   6.363   0.682 -0.2916  0.1537 -0.1776
   88MOL    C4710661   4.850   6.271   0.653 -0.1355  0.0375 -0.0894
   88MOL    H4810662   4.831   6.345   0.731 -1.2490 -0.0777 -0.2374
   88MOL    H4910663   4.767   6.276   0.583 -0.3164  1.9941  0.2436
   88MOL    C5010664   4.838   6.131   0.717 -0.1904  0.5430  0.3297
   88MOL   Cl5110665   4.796   6.009   0.589  0.1685  0.2503  0.0110
   88MOL   Cl5210666   4.694   6.152   0.813 -0.1663  0.3086  0.0513
   88MOL    C5310667   4.960   6.083   0.803 -0.3354 -0.5041  0.1645
   88MOL    H5410668   5.055   6.091   0.749 -0.7509 -0.3119 -0.5490
   88MOL    H5510669   4.954   6.159   0.881 -1.1871  1.1359 -1.4335
   88MOL    C5610670   4.961   5.945   0.858 -0.1826 -0.1198 -0.4448
   88MOL   Cl5710671   5.008   5.823   0.730  0.1208 -0.5224 -0.1232
   88MOL   Cl5810672   4.810   5.890   0.934  0.2484 -0.2977 -0.3152
   88MOL    C5910673   5.070   5.929   0.969 -0.9743 -0.6764 -0.0877
   88MOL    H6010674   5.056   5.831   1.014  2.1610 -0.7367  0.8837
   88MOL    H6110675   5.163   5.923   0.911 -1.2233 -1.0209 -0.4576
   88MOL    C6210676   5.094   6.021   1.087  0.2087 -0.9223 -0.0587
   88MOL   Cl6310677   4.948   6.076   1.157 -0.0431 -0.0749 -0.0279
   88MOL   Cl6410678   5.173   6.165   1.018 -0.3331 -0.1238 -0.1709
   88MOL    C6510679   5.188   5.950   1.191  0.0504 -0.7111  0.3972
   88MOL    H6610680   5.140   5.861   1.230  0.4884  0.3012  3.3811
   88MOL    H6710681   5.272   5.911   1.133 -0.6246  0.5907 -1.5041
   88MOL    C6810682   5.269   6.022   1.301  0.2991 -0.2796 -0.2868
   88MOL   Cl6910683   5.161   6.146   1.381  0.3851 -0.0961 -0.1498
   88MOL   Cl7010684   5.405   6.115   1.234  0.7688  0.1594  0.1523
   88MOL    C7110685   5.327   5.920   1.408  0.2203 -0.1672 -0.6740
   88MOL    H7210686   5.256   5.838   1.419 -0.8866  1.0138  1.1087
   88MOL    H7310687   5.409   5.869   1.357  1.0981 -0.8318  1.3668
   88MOL    C7410688   5.364   5.963   1.555  0.7337  0.1210  0.9010
   88MOL   Cl7510689   5.445   5.821   1.638  0.0572 -0.1320 -0.7125
   88MOL   Cl7610690   5.217   6.009   1.653  0.1752  0.4133  0.0032
   88MOL    C7710691   5.474   6.081   1.545  0.5207 -0.2546  0.2520
   88MOL    H7810692   5.543   6.048   1.467  0.6786  1.2973 -0.2741
   88MOL    H7910693   5.405   6.159   1.514 -1.1677 -1.8628 -0.1188
   88MOL    C8010694   5.553   6.139   1.669 -0.4686  0.7212  0.2158
   88MOL   Cl8110695   5.644   6.274   1.603 -0.0574 -0.3593 -0.2194
   88MOL   Cl8210696   5.670   6.020   1.742 -0.3562 -0.1925  0.0380
   88MOL    C8310697   5.461   6.181   1.786  0.2734 -0.3011  0.1217
   88MOL    H8410698   5.397   6.259   1.745 -0.4329  0.0231  1.7709
   88MOL    H8510699   5.396   6.097   1.810  0.9540 -0.5054  1.3280
   88MOL    C8610700   5.514   6.236   1.921 -0.5926 -0.2348 -0.2227
   88MOL   Cl8710701   5.650   6.362   1.910 -0.1112 -0.0156 -0.6373
   88MOL   Cl8810702   5.566   6.099   2.008 -0.1048  0.1163  0.1423
   88MOL    C8910703   5.399   6.301   2.002  0.0056  0.4476  0.0514
   88MOL    H9010704   5.449   6.362   2.077 -2.0531  1.3176  0.7319
   88MOL    H9110705   5.343   6.373   1.943  0.3908  0.2360 -0.5799
   88MOL    C9210706   5.291   6.218   2.087  0.0450 -0.0407  0.1721
   88MOL   Cl9310707   5.209   6.095   1.994 -0.1177 -0.2394 -0.0136
   88MOL   Cl9410708   5.154   6.333   2.115 -0.0409  0.3257  0.2509
   88MOL    C9510709   5.340   6.155   2.224  0.0469 -0.3451  0.6655
   88MOL    H9610710   5.255   6.100   2.265 -1.3438  1.0794 -0.2698
   88MOL    H9710711   5.403   6.069   2.201  1.4753  0.8909 -0.1203
   88MOL    C9810712   5.422   6.233   2.326  0.2049  0.4480  0.7187
   88MOL   Cl9910713   5.350   6.390   2.361 -0.2481 -0.1226  0.0307
   88MOL  Cl10010714   5.596   6.247   2.284 -0.0497  0.0384 -0.1338
   88MOL   C10110715   5.422   6.152   2.460  0.3762 -1.0995 -0.1502
   88MOL   H10210716   5.427   6.215   2.549  0.0965 -0.1681 -0.7850
   88MOL   H10310717   5.320   6.123   2.482  0.3440 -0.2407  0.8746
   88MOL   C10410718   5.520   6.035   2.489  0.0710 -0.8153  0.5488
   88MOL  Cl10510719   5.553   5.946   2.339  0.4872  0.0634 -0.3423
   88MOL  Cl10610720   5.436   5.923   2.607  0.2184  0.3057 -0.2856
   88MOL   C10710721   5.659   6.086   2.550  0.1159 -0.0113 -0.3244
   88MOL   H10810722   5.715   5.994   2.567  0.3381 -0.3292 -2.6352
   88MOL   H10910723   5.721   6.131   2.472  1.5250 -0.5702  0.4595
   88MOL   C11010724   5.667   6.169   2.683 -0.0594  0.0745 -0.1764
   88MOL  Cl11110725   5.551   6.105   2.801  0.0946  0.3077 -0.0474
   88MOL  Cl11210726   5.629   6.342   2.651 -0.2435 -0.0962 -0.1127
   88MOL   C11310727   5.795   6.165   2.751 -0.0669  0.4335  0.0402
   88MOL   H11410728   5.775   6.228   2.838 -0.1690 -0.6256  0.7942
   88MOL   H11510729   5.801   6.065   2.793  3.3927 -0.3890 -2.2461
   88MOL   C11610730   5.930   6.185   2.679  0.7387 -0.8666 -0.0958
   88MOL  Cl11710731   5.952   6.354   2.644  0.1431 -0.4609  0.1147
   88MOL  Cl11810732   5.957   6.085   2.533  0.0212 -0.3048 -0.2227
   88MOL   C11910733   6.050   6.155   2.775  0.5538 -0.0939  0.1488
   88MOL   H12010734   6.024   6.060   2.820 -1.0811  0.8235  1.2122
   88MOL   H12110735   6.144   6.159   2.720  1.1096  1.9076  1.1851
   88MOL   H12210736   6.060   6.226   2.857  2.4845  1.0505 -1.0411
   89MOL     C110737   1.874   2.363   1.404 -0.4086 -0.3783  0.0139
   89MOL    Cl210738   1.791   2.381   1.254  0.4852 -0.3479  0.3430
   89MOL    Cl310739   1.915   2.192   1.418 -0.2682  0.4116 -0.2352
   89MOL     C410740   2.006   2.446   1.403  0.3316 -0.2454  0.8684
   89MOL     H510741   2.066   2.404   1.323 -0.8063 -0.1716 -0.0407
   89MOL     H610742   1.991   2.547   1.365 -2.4923 -1.1884 -0.6646
   89MOL     H710743   1.805   2.392   1.484 -0.1126 -1.5797  0.7030
   89MOL     C810744   2.093   2.457   1.531 -0.3322  0.2791 -0.4625
   89MOL    Cl910745   2.186   2.307   1.557 -0.4045  0.5606  0.1523
   89MOL   Cl1010746   1.979   2.472   1.668 -0.0988  0.1466 -0.4245
   89MOL    C1110747   2.178   2.592   1.542 -0.1743  0.0031 -0.0532
   89MOL    H1210748   2.116   2.681   1.549  0.1388  0.1527  0.8214
   89MOL    H1310749   2.230   2.581   1.637 -0.3508  1.8784  0.2842
   89MOL    C1410750   2.288   2.620   1.438 -0.0745 -0.5292 -0.4648
   89MOL   Cl1510751   2.213   2.624   1.274 -0.1476 -0.3777  0.0017
   89MOL   Cl1610752   2.417   2.491   1.437  0.2173  0.0156  0.4586
   89MOL    C1710753   2.366   2.753   1.457  0.4413  0.6645 -0.1167
   89MOL    H1810754   2.448   2.741   1.528 -1.9890 -0.4327  2.6338
   89MOL    H1910755   2.411   2.766   1.359  0.4279 -1.8945 -0.5066
   89MOL    C2010756   2.299   2.886   1.495  0.4180 -0.5330  0.0429
   89MOL   Cl2110757   2.247   2.878   1.659  0.1217  0.2710 -0.5537
   89MOL   Cl2210758   2.154   2.905   1.397 -0.2849  0.5115 -0.3476
   89MOL    C2310759   2.399   3.010   1.479  1.2118 -0.1074 -0.1048
   89MOL    H2410760   2.499   2.984   1.513  1.9090 -1.1250 -2.8473
   89MOL    H2510761   2.422   3.007   1.373 -0.6244 -0.0416 -0.5243
   89MOL    C2610762   2.361   3.152   1.536 -0.2197  0.3992  0.5268
   89MOL   Cl2710763   2.195   3.191   1.488 -0.1068 -0.0832 -0.1252
   89MOL   Cl2810764   2.452   3.264   1.431  0.3017 -0.4209  0.2647
   89MOL    C2910765   2.375   3.197   1.684 -0.4004  0.6738 -0.8129
   89MOL    H3010766   2.335   3.298   1.697 -3.0094 -0.3175 -0.8654
   89MOL    H3110767   2.305   3.138   1.744  2.9741 -0.3848  2.2651
   89MOL    C3210768   2.508   3.174   1.770 -0.0534  0.3001 -0.2116
   89MOL   Cl3310769   2.636   3.275   1.704 -0.2961 -0.0154  0.3724
   89MOL   Cl3410770   2.560   3.007   1.759 -0.1100  0.0897 -0.1157
   89MOL    C3510771   2.473   3.212   1.921 -0.6623 -1.0035 -0.1007
   89MOL    H3610772   2.422   3.308   1.932  0.9754 -0.0861 -0.3821
   89MOL    H3710773   2.400   3.143   1.962  0.6345 -1.2470  1.8335
   89MOL    C3810774   2.584   3.227   2.033  0.0141 -0.0767 -0.3630
   89MOL   Cl3910775   2.501   3.219   2.193 -0.0694  0.3804 -0.1781
   89MOL   Cl4010776   2.667   3.383   2.020  0.4827  0.3033 -0.0785
   89MOL    C4110777   2.694   3.116   2.027 -0.2875  0.2109 -0.3201
   89MOL    H4210778   2.649   3.018   2.013  0.3336  0.1622 -2.1337
   89MOL    H4310779   2.746   3.136   1.933 -2.8186 -2.2073 -2.3113
   89MOL    C4410780   2.799   3.086   2.144 -0.3163  0.1804  0.0554
   89MOL   Cl4510781   2.943   3.020   2.067 -0.0445  0.3290  0.0782
   89MOL   Cl4610782   2.720   2.963   2.244  0.0013 -0.0999  0.2154
   89MOL    C4710783   2.837   3.211   2.239  0.7142  0.5752  0.6620
   89MOL    H4810784   2.908   3.276   2.187  0.1746  0.5673 -0.0982
   89MOL    H4910785   2.746   3.270   2.256 -0.2728 -1.2950  2.0490
   89MOL    C5010786   2.893   3.193   2.383 -0.3193 -0.0101 -0.2131
   89MOL   Cl5110787   2.976   3.032   2.397  0.6091  0.2846 -0.2497
   89MOL   Cl5210788   2.750   3.188   2.493 -0.2232  0.2582 -0.3255
   89MOL    C5310789   2.996   3.307   2.438 -0.0120  0.4587 -0.6161
   89MOL    H5410790   3.014   3.287   2.544 -0.9174  1.2187 -0.3132
   89MOL    H5510791   3.092   3.303   2.386  0.6680 -0.6230  0.6471
   89MOL    C5610792   2.967   3.458   2.431 -0.0529  0.1663 -0.1930
   89MOL   Cl5710793   2.819   3.504   2.498 -0.1905  0.3849  0.0473
   89MOL   Cl5810794   2.943   3.511   2.265  0.2646  0.0544 -0.0075
   89MOL    C5910795   3.067   3.540   2.507  0.4856  0.1966  0.7655
   89MOL    H6010796   3.038   3.645   2.497  1.4454  0.3247 -0.7870
   89MOL    H6110797   3.051   3.516   2.612 -1.5798 -0.0364  0.4154
   89MOL    C6210798   3.225   3.536   2.475  0.9389 -0.5251 -0.0077
   89MOL   Cl6310799   3.256   3.562   2.299 -0.0875  0.0522 -0.0548
   89MOL   Cl6410800   3.304   3.379   2.509  0.3439  0.2034  0.0764
   89MOL    C6510801   3.322   3.631   2.548 -0.2095  0.0338  0.1204
   89MOL    H6610802   3.424   3.599   2.530 -0.2790 -0.3825  0.4695
   89MOL    H6710803   3.327   3.723   2.490  1.2709 -0.0021  0.1926
   89MOL    C6810804   3.301   3.677   2.693  0.6084 -0.7609 -0.1523
   89MOL   Cl6910805   3.259   3.546   2.808 -0.2353  0.1450  0.3591
   89MOL   Cl7010806   3.151   3.781   2.692 -0.1411 -0.0211  0.2101
   89MOL    C7110807   3.418   3.760   2.757 -0.5548  0.2967  0.4696
   89MOL    H7210808   3.405   3.860   2.715 -0.4312 -0.3945 -1.2474
   89MOL    H7310809   3.398   3.770   2.864  1.3099  1.3960  0.7424
   89MOL    C7410810   3.567   3.711   2.772 -0.8252  1.1555 -0.3076
   89MOL   Cl7510811   3.643   3.829   2.876 -0.0330  0.1962  0.0996
   89MOL   Cl7610812   3.643   3.734   2.615  0.0722  0.4152 -0.0149
   89MOL    C7710813   3.579   3.563   2.827 -0.7058  0.2421  0.1089
   89MOL    H7810814   3.519   3.565   2.918 -0.8990 -0.3602 -0.0050
   89MOL    H7910815   3.525   3.502   2.754 -1.0469  0.5791  0.0763
   89MOL    C8010816   3.714   3.500   2.870  0.3336 -0.0358  1.0566
   89MOL   Cl8110817   3.787   3.469   2.705 -0.1575  0.2137  0.0484
   89MOL   Cl8210818   3.679   3.340   2.942  0.3638  0.0130  0.0437
   89MOL    C8310819   3.811   3.589   2.963  0.0765 -0.2525  0.2062
   89MOL    H8410820   3.862   3.668   2.908 -0.8769  0.0148 -0.3025
   89MOL    H8510821   3.745   3.649   3.026 -0.9385  0.4644 -1.4871
   89MOL    C8610822   3.928   3.518   3.045  0.1824 -0.1667  0.2774
   89MOL   Cl8710823   3.861   3.429   3.185 -0.5768  0.1380 -0.2274
   89MOL   Cl8810824   4.019   3.652   3.122 -0.2880  0.1302  0.3710
   89MOL    C8910825   4.021   3.437   2.949 -0.3935  0.3444 -0.2218
   89MOL    H9010826   3.962   3.351   2.920  1.3649 -0.8779 -0.2598
   89MOL    H9110827   4.046   3.504   2.866  1.7204  0.0979  0.1845
   89MOL    C9210828   4.165   3.391   2.994 -0.0217 -0.4319  0.7778
   89MOL   Cl9310829   4.172   3.340   3.170 -0.2466 -0.7717 -0.3938
   89MOL   Cl9410830   4.271   3.543   2.972 -0.0975  0.3850 -0.0986
   89MOL    C9510831   4.220   3.265   2.917 -0.4275 -0.5327  0.2086
   89MOL    H9610832   4.313   3.254   2.972 -0.7666  4.1142  1.9045
   89MOL    H9710833   4.158   3.177   2.934  0.6381 -1.1706  0.8724
   89MOL    C9810834   4.258   3.259   2.773 -0.8845 -0.4096  0.7724
   89MOL   Cl9910835   4.357   3.390   2.705 -0.1722 -0.1838  0.0261
   89MOL  Cl10010836   4.107   3.277   2.674  0.1521 -0.3867 -0.0504
   89MOL   C10110837   4.329   3.126   2.735  0.0115  0.2833 -0.5366
   89MOL   H10210838   4.335   3.127   2.626  0.4251 -1.2446 -0.5436
   89MOL   H10310839   4.429   3.139   2.776 -1.5357  3.7795  2.3877
   89MOL   C10410840   4.278   2.979   2.779 -0.5289 -0.3902  0.7163
   89MOL  Cl10510841   4.105   2.967   2.755  0.1506  0.1555 -0.0663
   89MOL  Cl10610842   4.309   2.955   2.952  0.0008 -0.1589  0.1212
   89MOL   C10710843   4.349   2.853   2.712  0.0853  0.2305 -0.1279
   89MOL   H10810844   4.326   2.769   2.778  1.1887  0.1675  0.1762
   89MOL   H10910845   4.298   2.838   2.617 -1.6681  2.7186  0.3835
   89MOL   C11010846   4.503   2.849   2.681  0.1639  0.0497 -0.1571
   89MOL  Cl11110847   4.602   2.893   2.821 -0.2135  0.0359  0.1151
   89MOL  Cl11210848   4.524   2.971   2.552 -0.1930 -0.1712 -0.5996
   89MOL   C11310849   4.548   2.711   2.630  0.7056  0.0304  0.2936
   89MOL   H11410850   4.503   2.688   2.534  2.4970  1.4472 -0.9095
   89MOL   H11510851   4.648   2.735   2.594  0.5871 -1.4135 -1.0443
   89MOL   C11610852   4.536   2.578   2.719  0.2678 -0.3296  0.3675
   89MOL  Cl11710853   4.633   2.458   2.626 -0.2913 -0.0429  0.5615
   89MOL  Cl11810854   4.371   2.516   2.721 -0.2068 -0.1361 -0.2284
   89MOL   C11910855   4.589   2.591   2.864  0.3174  0.3006 -0.2859
   89MOL   H12010856   4.681   2.647   2.851  0.5477  0.1219  0.5079
   89MOL   H12110857   4.513   2.639   2.926  0.6400 -0.6292  0.8505
   89MOL   H12210858   4.631   2.503   2.913 -0.0434 -0.1203 -0.7385
   90MOL     C110859   8.953   4.606   4.852 -0.4539 -0.1630 -0.9107
   90MOL    Cl210860   8.872   4.763   4.879 -0.1709 -0.1001  0.1641
   90MOL    Cl310861   9.108   4.662   4.773 -0.4968 -0.3097 -0.1814
   90MOL     C410862   8.983   4.519   4.975 -1.3714  0.2006  0.3540
   90MOL     H510863   9.050   4.436   4.952 -0.4834 -0.1683  3.9081
   90MOL     H610864   9.026   4.592   5.044  0.2834  0.3151 -0.7649
   90MOL     H710865   8.896   4.549   4.779 -0.5265 -0.0490 -0.9433
   90MOL     C810866   8.853   4.448   5.040 -0.2661 -0.7776  0.6265
   90MOL    Cl910867   8.751   4.358   4.926  0.1209  0.2155  0.2495
   90MOL   Cl1010868   8.736   4.580   5.078 -0.2663 -0.0089 -0.0290
   90MOL    C1110869   8.881   4.376   5.173  0.3953  0.1436  0.8797
   90MOL    H1210870   8.928   4.458   5.228  2.8651 -0.3717 -0.3810
   90MOL    H1310871   8.782   4.353   5.212  1.1240  0.4961  3.0034
   90MOL    C1410872   8.961   4.242   5.187 -0.0251 -0.2188  0.7102
   90MOL   Cl1510873   9.129   4.276   5.137  0.3435  0.2847  0.0802
   90MOL   Cl1610874   8.897   4.112   5.081  0.1265  0.0774  0.1068
   90MOL    C1710875   8.947   4.173   5.329  0.0415 -0.1645 -0.3642
   90MOL    H1810876   8.842   4.145   5.331 -0.1633  0.3781 -2.0671
   90MOL    H1910877   9.001   4.078   5.331  2.4359  1.1091 -1.4905
   90MOL    C2010878   8.965   4.252   5.463 -0.5432  0.4817 -0.2755
   90MOL   Cl2110879   8.852   4.387   5.482 -0.5339  0.2861  0.4398
   90MOL   Cl2210880   9.121   4.340   5.458  0.1629 -0.5999  0.0338
   90MOL    C2310881   8.966   4.164   5.592  0.6311 -0.1424  0.3378
   90MOL    H2410882   9.060   4.109   5.602  0.5528 -0.3396 -0.0072
   90MOL    H2510883   8.971   4.238   5.671  2.0725 -0.1629  0.2886
   90MOL    C2610884   8.851   4.065   5.632  0.1574  0.1150  0.5341
   90MOL   Cl2710885   8.809   3.951   5.504 -0.1963  0.0279  0.2511
   90MOL   Cl2810886   8.722   4.173   5.670 -0.0310  0.1451 -0.1543
   90MOL    C2910887   8.898   3.981   5.760  0.0313 -0.3222  0.2885
   90MOL    H3010888   8.954   3.895   5.724 -1.3145 -0.4031 -1.7341
   90MOL    H3110889   8.962   4.042   5.823 -1.3687  0.7652  0.6836
   90MOL    C3210890   8.796   3.928   5.867  0.2604  0.3154  0.1076
   90MOL   Cl3310891   8.753   4.063   5.966  0.1337 -0.5083 -0.1188
   90MOL   Cl3410892   8.893   3.820   5.973  0.0742 -0.2188  0.4804
   90MOL    C3510893   8.668   3.858   5.793  0.3226  0.3239 -0.5273
   90MOL    H3610894   8.614   3.943   5.752  0.7212  0.1700 -1.3629
   90MOL    H3710895   8.706   3.800   5.709  2.5161  0.2836  0.4517
   90MOL    C3810896   8.575   3.756   5.864 -0.6289 -0.5708  0.6909
   90MOL   Cl3910897   8.521   3.838   6.010 -0.1080  0.0848 -0.2437
   90MOL   Cl4010898   8.665   3.604   5.883  0.3334 -0.0271 -0.1624
   90MOL    C4110899   8.455   3.734   5.780  0.0412  0.4263 -0.1871
   90MOL    H4210900   8.422   3.816   5.716  2.8133  1.4963 -0.3104
   90MOL    H4310901   8.498   3.670   5.702  1.1523 -1.0692  1.6190
   90MOL    C4410902   8.335   3.648   5.824 -0.1620 -0.2427  0.7287
   90MOL   Cl4510903   8.260   3.602   5.659 -0.1532  0.5254 -0.3885
   90MOL   Cl4610904   8.225   3.765   5.900  0.0431  0.3802  0.3248
   90MOL    C4710905   8.365   3.519   5.917 -0.3900 -0.5075 -0.8049
   90MOL    H4810906   8.419   3.455   5.846 -2.3488  0.1653 -2.9470
   90MOL    H4910907   8.423   3.549   6.005 -0.1975  2.5748 -1.9353
   90MOL    C5010908   8.248   3.432   5.971  0.0148  0.4095 -0.0435
   90MOL   Cl5110909   8.145   3.358   5.844 -0.0996 -0.0868 -0.2788
   90MOL   Cl5210910   8.131   3.523   6.066  0.2649  0.2692 -0.2905
   90MOL    C5310911   8.302   3.312   6.053 -0.1915  0.2523 -0.3136
   90MOL    H5410912   8.344   3.351   6.146  1.8187 -0.0999 -1.0418
   90MOL    H5510913   8.220   3.254   6.095 -0.5528 -0.3894 -1.9073
   90MOL    C5610914   8.406   3.210   5.997  0.2429 -0.0517  0.0987
   90MOL   Cl5710915   8.567   3.284   6.010  0.0038  0.0461  0.1252
   90MOL   Cl5810916   8.383   3.178   5.819  0.1526 -0.2388  0.2432
   90MOL    C5910917   8.408   3.071   6.065  0.0218  0.1497  0.4303
   90MOL    H6010918   8.324   3.015   6.026 -1.2317  1.9567  0.4606
   90MOL    H6110919   8.490   3.011   6.026  1.0739  0.4837  2.0834
   90MOL    C6210920   8.407   3.060   6.224 -0.0582 -0.2320 -0.0890
   90MOL   Cl6310921   8.241   3.079   6.284 -0.1958  0.0528 -0.1692
   90MOL   Cl6410922   8.519   3.170   6.301  0.0650  0.1846 -0.4583
   90MOL    C6510923   8.459   2.917   6.259 -0.3400  0.1404  0.2355
   90MOL    H6610924   8.409   2.852   6.188  2.0053  0.4674 -1.7855
   90MOL    H6710925   8.565   2.908   6.233  0.0774 -3.2900  2.7431
   90MOL    C6810926   8.446   2.850   6.402  0.0382 -0.7081 -0.5094
   90MOL   Cl6910927   8.528   2.692   6.366  0.0935 -0.1646  0.0508
   90MOL   Cl7010928   8.277   2.814   6.455  0.1728  0.1854 -0.0411
   90MOL    C7110929   8.520   2.920   6.517  0.7605 -0.3157 -0.0453
   90MOL    H7210930   8.498   3.026   6.520  2.4140 -0.0028  2.2827
   90MOL    H7310931   8.471   2.895   6.611 -0.4913 -2.4914 -1.2313
   90MOL    C7410932   8.672   2.910   6.544 -0.0022 -0.4663 -0.3784
   90MOL   Cl7510933   8.705   3.049   6.657  0.0086  0.0184 -0.1938
   90MOL   Cl7610934   8.769   2.939   6.396 -0.2353 -0.1428 -0.1656
   90MOL    C7710935   8.716   2.772   6.601 -0.1330  0.0860  0.7175
   90MOL    H7810936   8.623   2.720   6.624 -0.1565 -0.2448 -0.1087
   90MOL    H7910937   8.742   2.707   6.518  1.8260  0.2448  1.1833
   90MOL    C8010938   8.827   2.761   6.714 -0.6003 -0.6795  0.1760
   90MOL   Cl8110939   8.833   2.586   6.752 -0.3301  0.0227 -0.3132
   90MOL   Cl8210940   8.761   2.830   6.860 -0.1874  0.0377  0.0249
   90MOL    C8310941   8.967   2.807   6.676 -0.2944 -0.1585  0.5100
   90MOL    H8410942   8.958   2.790   6.569  3.1075  0.8087  0.0137
   90MOL    H8510943   8.956   2.913   6.697  2.8195  0.2619  0.2662
   90MOL    C8610944   9.094   2.734   6.729 -0.3128 -0.0839  0.0970
   90MOL   Cl8710945   9.134   2.575   6.644 -0.2072 -0.4200  0.1316
   90MOL   Cl8810946   9.091   2.694   6.905  0.1765  0.2311  0.3250
   90MOL    C8910947   0.040   2.816   6.711  0.7338  0.3083 -0.0649
   90MOL    H9010948   0.025   2.902   6.776 -0.3573 -1.2215  1.7309
   90MOL    H9110949   0.118   2.763   6.765 -0.0289 -1.2609 -0.4882
   90MOL    C9210950   0.095   2.869   6.574 -0.1858  0.2783 -0.7408
   90MOL   Cl9310951   0.223   2.978   6.617 -0.2465 -0.1302  0.0690
   90MOL   Cl9410952   9.147   2.959   6.485 -0.0468  0.0713 -0.0739
   90MOL    C9510953   0.155   2.769   6.476  0.5125  0.4506  0.2204
   90MOL    H9610954   0.076   2.697   6.456 -1.1882  1.9068  1.5463
   90MOL    H9710955   0.148   2.823   6.382 -0.7274 -0.9732 -0.5258
   90MOL    C9810956   0.285   2.696   6.487 -0.6160  0.2912 -0.6036
   90MOL   Cl9910957   0.287   2.610   6.642  0.1364 -0.0935 -0.2214
   90MOL  Cl10010958   0.420   2.807   6.488  0.2230  0.1239 -0.1870
   90MOL   C10110959   0.308   2.590   6.385  1.0505  0.6523 -0.2077
   90MOL   H10210960   0.403   2.543   6.409 -0.4017 -1.5605  1.3363
   90MOL   H10310961   0.243   2.509   6.418  1.8479  1.0599  2.5276
   90MOL   C10410962   0.308   2.614   6.236  0.1827 -0.1726 -0.2595
   90MOL  Cl10510963   0.386   2.762   6.182 -0.1456 -0.1830 -0.0924
   90MOL  Cl10610964   0.134   2.635   6.204 -0.1306  0.5011 -0.0893
   90MOL   C10710965   0.345   2.487   6.155  0.2959 -0.3167 -0.4339
   90MOL   H10810966   0.262   2.416   6.150  0.1203 -0.0573 -1.3240
   90MOL   H10910967   0.345   2.521   6.051  3.3901 -0.6068 -0.5695
   90MOL   C11010968   0.482   2.406   6.191 -0.2303  0.6696  0.2862
   90MOL  Cl11110969   0.442   2.303   6.329 -0.1873  0.3488 -0.0508
   90MOL  Cl11210970   0.612   2.517   6.237  0.1991 -0.2594 -0.3288
   90MOL   C11310971   0.528   2.303   6.077  0.3812 -0.4201  0.3513
   90MOL   H11410972   0.448   2.231   6.064  1.3048 -1.1210 -1.6070
   90MOL   H11510973   0.529   2.344   5.976  1.3019 -0.4627  0.3404
   90MOL   C11610974   0.652   2.215   6.099  0.0714  0.0612  0.2387
   90MOL  Cl11710975   0.797   2.304   6.072  0.0876  0.0030 -0.1380
   90MOL  Cl11810976   0.651   2.081   5.982  0.0098  0.0753  0.1353
   90MOL   C11910977   0.664   2.139   6.238 -0.1467  0.6324 -0.0144
   90MOL   H12010978   0.571   2.085   6.254  0.5024 -0.4510  0.1859
   90MOL   H12110979   0.741   2.064   6.221 -1.0856 -0.1941 -0.6921
   90MOL   H12210980   0.694   2.198   6.324  1.5864  0.2462 -0.3398
   91MOL     C110981   1.738   3.099   7.951  0.2450  0.3553  0.5758
   91MOL    Cl210982   1.660   3.206   7.837  0.0132 -0.5951  0.2548
   91MOL    Cl310983   1.730   3.164   8.110  0.2329  0.1794 -0.4403
   91MOL     C410984   1.655   2.964   7.952  0.6926  0.0348  0.7366
   91MOL     H510985   1.672   2.898   8.037 -1.3308 -1.0565  0.3112
   91MOL     H610986   1.548   2.984   7.960  0.7750  1.3330 -1.0849
   91MOL     H710987   1.842   3.085   7.919  0.1891  1.0859  0.0695
   91MOL     C810988   1.664   2.871   7.824  0.9877  0.1729  0.1082
   91MOL    Cl910989   1.830   2.848   7.775  0.1184  0.3670 -0.0979
   91MOL   Cl1010990   1.581   2.948   7.683 -0.4068  0.2157  0.3188
   91MOL    C1110991   1.604   2.722   7.836  0.4412  0.6623  0.3179
   91MOL    H1210992   1.611   2.682   7.735  0.1154  2.0549 -0.2606
   91MOL    H1310993   1.683   2.675   7.894  0.2766  0.3563  0.2954
   91MOL    C1410994   1.466   2.688   7.905 -0.2837 -0.7517  0.3338
   91MOL   Cl1510995   1.338   2.796   7.855  0.2995 -0.1864 -0.1783
   91MOL   Cl1610996   1.484   2.687   8.079  0.2568  0.2345 -0.1343
   91MOL    C1710997   1.419   2.544   7.853  0.2929  0.5133 -0.5485
   91MOL    H1810998   1.322   2.516   7.893  0.4626 -0.5811 -0.8871
   91MOL    H1910999   1.406   2.560   7.746  0.4657  0.8914 -0.5134
   91MOL    C2011000   1.499   2.412   7.868  0.2333  0.0135  0.2415
   91MOL   Cl2111001   1.650   2.425   7.784  0.4654 -0.2280 -0.1409
   91MOL   Cl2211002   1.401   2.281   7.801 -0.2246  0.2190 -0.4693
   91MOL    C2311003   1.538   2.376   8.016  0.2043  0.2646  0.2037
   91MOL    H2411004   1.605   2.453   8.056 -0.0325 -0.6061  2.3488
   91MOL    H2511005   1.443   2.385   8.068 -0.9374 -2.9690 -1.1928
   91MOL    C2611006   1.598   2.243   8.068  0.6612  0.3502 -0.6216
   91MOL   Cl2711007   1.469   2.120   8.072 -0.1634  0.2311  0.0206
   91MOL   Cl2811008   1.639   2.272   8.244  0.9889  0.1150  0.0816
   91MOL    C2911009   1.723   2.191   7.993 -0.6112  0.3882  0.2828
   91MOL    H3011010   1.678   2.152   7.902  2.4042  2.3646 -2.1740
   91MOL    H3111011   1.780   2.278   7.960 -0.3594 -0.2137 -0.9146
   91MOL    C3211012   1.821   2.088   8.052  0.2329  0.1442 -0.1198
   91MOL   Cl3311013   1.926   2.161   8.179  0.1245 -0.2662  0.0310
   91MOL   Cl3411014   1.935   2.053   7.917 -0.1303  0.3237 -0.0530
   91MOL    C3511015   1.740   1.961   8.105  0.3232 -0.4365  0.1188
   91MOL    H3611016   1.669   2.001   8.177  1.0137  0.7016  0.1835
   91MOL    H3711017   1.674   1.936   8.022 -1.1123 -0.1761  1.1625
   91MOL    C3811018   1.802   1.842   8.177 -0.2199 -0.3536 -0.4815
   91MOL   Cl3911019   1.885   1.902   8.331 -0.0354  0.1062 -0.5358
   91MOL   Cl4011020   1.933   1.763   8.090 -0.0034  0.0899 -0.0142
   91MOL    C4111021   1.691   1.731   8.201 -0.4075 -0.4147  0.4438
   91MOL    H4211022   1.595   1.781   8.210  0.2666  0.7709  1.2554
   91MOL    H4311023   1.669   1.676   8.110 -1.4388  0.1657  0.3346
   91MOL    C4411024   1.707   1.627   8.317  0.0609  0.7796 -0.5311
   91MOL   Cl4511025   1.596   1.496   8.279 -0.4034 -0.1242 -0.4384
   91MOL   Cl4611026   1.639   1.713   8.455 -0.2114 -0.0375  0.2111
   91MOL    C4711027   1.855   1.570   8.336 -0.2734 -0.5324 -0.0034
   91MOL    H4811028   1.864   1.508   8.247  1.9792 -0.1209 -0.0746
   91MOL    H4911029   1.933   1.646   8.328  1.8156 -2.6656 -0.5067
   91MOL    C5011030   1.900   1.496   8.465  0.5271 -0.0185 -0.1307
   91MOL   Cl5111031   1.782   1.371   8.508  0.1838  0.2087  0.1924
   91MOL   Cl5211032   1.916   1.607   8.611 -0.1127 -0.1935  0.5015
   91MOL    C5311033   2.048   1.435   8.455 -0.1412 -0.7422  0.0604
   91MOL    H5411034   2.114   1.518   8.479  1.0491 -1.2694 -1.2874
   91MOL    H5511035   2.057   1.371   8.542  0.3110  1.2264  1.4877
   91MOL    C5611036   2.084   1.355   8.329 -0.1485 -0.3989  0.4370
   91MOL   Cl5711037   2.108   1.462   8.181  0.2845  0.3517 -0.2664
   91MOL   Cl5811038   1.957   1.234   8.297  0.3103  0.1210  0.1949
   91MOL    C5911039   2.210   1.264   8.349 -1.0750 -0.2354  0.3115
   91MOL    H6011040   2.177   1.179   8.409 -0.0850  0.7523  2.3187
   91MOL    H6111041   2.245   1.225   8.253  0.3126 -0.8821  1.0614
   91MOL    C6211042   2.349   1.316   8.403 -0.0236 -0.4298  0.5257
   91MOL   Cl6311043   2.345   1.353   8.584 -0.1620  0.3273 -0.0980
   91MOL   Cl6411044   2.392   1.464   8.317 -0.1167  0.1533  0.7461
   91MOL    C6511045   2.464   1.205   8.381 -1.0815 -0.3229  0.1015
   91MOL    H6611046   2.501   1.209   8.279  0.3992 -3.7977  0.4284
   91MOL    H6711047   2.553   1.246   8.429  0.1978 -0.4864 -2.0640
   91MOL    C6811048   2.449   1.056   8.421 -0.2495 -0.0787 -0.2444
   91MOL   Cl6911049   2.329   0.975   8.310  0.1335 -0.0787 -0.4461
   91MOL   Cl7011050   2.398   1.035   8.591 -0.0308 -0.1111 -0.0738
   91MOL    C7111051   2.583   0.987   8.390  0.3097 -0.2100  0.2866
   91MOL    H7211052   2.613   1.024   8.292  1.3468 -3.7494 -0.8157
   91MOL    H7311053   2.661   1.031   8.452  0.4881  2.3711 -1.6964
   91MOL    C7411054   2.613   0.833   8.383  0.5251  0.4915  0.3858
   91MOL   Cl7511055   2.780   0.839   8.334  0.0283 -0.3725  0.4266
   91MOL   Cl7611056   2.527   0.741   8.254 -0.6251  0.1980  0.2644
   91MOL    C7711057   2.580   0.759   8.514 -0.1770 -0.0591 -0.0943
   91MOL    H7811058   2.656   0.779   8.590  0.0557 -1.2112 -0.0012
   91MOL    H7911059   2.480   0.788   8.547 -0.8623 -2.2719 -0.0872
   91MOL    C8011060   2.570   0.606   8.529 -0.8469  0.2956  0.2026
   91MOL   Cl8111061   2.588   0.568   8.703  0.1489  0.3426 -0.5010
   91MOL   Cl8211062   2.719   0.541   8.453 -0.1672 -0.1143  0.4246
   91MOL    C8311063   2.435   0.550   8.481  0.3939  0.3560  0.2733
   91MOL    H8411064   2.365   0.562   8.564 -1.5387 -2.0700 -0.9426
   91MOL    H8511065   2.387   0.619   8.412  0.5496 -1.3618 -1.6163
   91MOL    C8611066   2.419   0.400   8.425 -0.2688  0.3397 -0.6909
   91MOL   Cl8711067   2.495   0.296   8.557 -0.0635  0.2040 -0.3509
   91MOL   Cl8811068   2.510   0.384   8.271  0.1658 -0.1651  0.1174
   91MOL    C8911069   2.271   0.371   8.395 -0.3757 -0.7547 -0.3838
   91MOL    H9011070   2.211   0.416   8.475  0.9665 -0.4302  0.4586
   91MOL    H9111071   2.247   0.428   8.305 -2.6960  1.4010  1.5198
   91MOL    C9211072   2.214   0.222   8.373  0.1326  0.2819 -0.4564
   91MOL   Cl9311073   2.058   0.252   8.299 -0.1163 -0.0715 -0.0114
   91MOL   Cl9411074   2.179   0.153   8.539 -0.0803  0.0281  0.4653
   91MOL    C9511075   2.299   0.131   8.284  0.3318 -0.3696  0.5902
   91MOL    H9611076   2.323   0.172   8.187  0.3356 -1.1064  0.2771
   91MOL    H9711077   2.405   0.139   8.308  0.6431 -0.7518 -0.6376
   91MOL    C9811078   2.259   9.178   8.224 -0.3005 -0.5292  0.0435
   91MOL   Cl9911079   2.167   0.038   8.082 -0.0180  0.1679 -0.1550
   91MOL  Cl10011080   2.162   9.079   8.335 -0.2865  0.2994  0.2548
   91MOL   C10111081   2.369   9.091   8.173 -1.3701 -0.7402 -0.5304
   91MOL   H10211082   2.333   9.020   8.099 -0.3846 -0.6659 -1.0978
   91MOL   H10311083   2.425   9.152   8.102 -2.0100 -1.5597 -1.7329
   91MOL   C10411084   2.473   9.017   8.259 -0.4274  0.5307  0.8949
   91MOL  Cl10511085   2.390   8.870   8.316  0.2520 -0.1972 -0.2518
   91MOL  Cl10611086   2.557   9.119   8.388  0.3037  0.0727 -0.0572
   91MOL   C10711087   2.586   8.964   8.164  0.1192  0.1686 -0.6906
   91MOL   H10811088   2.552   8.884   8.099  0.7080  0.6753 -1.6338
   91MOL   H10911089   2.601   9.047   8.094 -1.0799 -0.2781 -1.4981
   91MOL   C11011090   2.724   8.915   8.211 -0.0219 -0.3639  0.8946
   91MOL  Cl11111091   2.832   9.050   8.260  0.3677 -0.4085 -0.3582
   91MOL  Cl11211092   2.782   8.835   8.065 -0.1906  0.1622  0.1992
   91MOL   C11311093   2.730   8.820   8.331 -0.5859 -0.1716 -0.1024
   91MOL   H11411094   2.678   8.856   8.420  0.5297  0.3901  0.3261
   91MOL   H11511095   2.650   8.753   8.297 -0.0194  0.1744 -2.2161
   91MOL   C11611096   2.850   8.742   8.393 -0.7194  0.0375 -0.1182
   91MOL  Cl11711097   2.888   8.618   8.274 -0.0418 -0.0657 -0.1371
   91MOL  Cl11811098   2.803   8.667   8.551 -0.0369 -0.0255  0.1971
   91MOL   C11911099   2.978   8.824   8.414 -0.5499 -0.6908 -0.6488
   91MOL   H12011100   3.056   8.761   8.458  0.3296  0.1588 -0.9599
   91MOL   H12111101   3.017   8.859   8.319 -1.2713 -1.2001 -1.1388
   91MOL   H12211102   2.969   8.914   8.475  1.3766  0.1278 -1.5553
   92MOL     C111103   1.116   4.620   9.023  0.3050 -0.4890  0.2494
   92MOL    Cl211104   1.211   4.694   9.164 -0.2680 -0.1877 -0.3761
   92MOL    Cl311105   0.962   4.556   9.074 -0.5798 -0.0230  0.5782
   92MOL     C411106   1.110   4.710   8.905  0.3742  0.2762 -0.0943
   92MOL     H511107   1.038   4.666   8.835 -1.6052  1.0820  1.3596
   92MOL     H611108   1.066   4.807   8.929 -1.6342 -0.3881 -0.9062
   92MOL     H711109   1.169   4.527   8.999 -1.0453 -1.7087  1.8824
   92MOL     C811110   1.248   4.735   8.827  0.2832 -0.1923  0.0446
   92MOL    Cl911111   1.338   4.581   8.794  0.0015  0.3397  0.0383
   92MOL   Cl1011112   1.341   4.852   8.918 -0.3000  0.0218  0.1705
   92MOL    C1111113   1.226   4.799   8.689 -0.2606 -0.1954  0.0904
   92MOL    H1211114   1.323   4.797   8.640 -1.1251  0.1756 -1.6656
   92MOL    H1311115   1.175   4.731   8.622 -0.5288  0.1217 -0.0261
   92MOL    C1411116   1.182   4.941   8.653  0.2855 -0.1094  0.6063
   92MOL   Cl1511117   1.287   5.074   8.698  0.1599 -0.0962  0.4951
   92MOL   Cl1611118   1.024   4.982   8.733  0.1805 -0.8547  0.1185
   92MOL    C1711119   1.139   4.958   8.504  0.2328 -0.7739 -0.7084
   92MOL    H1811120   1.060   4.889   8.476 -0.0303 -0.4492 -0.7730
   92MOL    H1911121   1.101   5.060   8.493  0.7307 -0.4501  0.4566
   92MOL    C2011122   1.240   4.943   8.386  0.0695  0.4621  0.8337
   92MOL   Cl2111123   1.321   4.781   8.376 -0.1843  0.1239  0.1683
   92MOL   Cl2211124   1.354   5.080   8.399 -0.0617 -0.1590  0.1235
   92MOL    C2311125   1.188   4.949   8.241  0.7673 -0.0700 -0.2339
   92MOL    H2411126   1.281   4.958   8.183  1.3140  0.3461  0.6971
   92MOL    H2511127   1.148   4.851   8.213 -0.2273  0.8033 -1.9596
   92MOL    C2611128   1.087   5.048   8.183  0.1517 -0.0046 -0.3961
   92MOL   Cl2711129   1.151   5.220   8.208  0.2880 -0.3059 -0.0303
   92MOL   Cl2811130   0.932   5.040   8.262  0.3827  0.0972 -0.2498
   92MOL    C2911131   1.054   5.040   8.037  0.7896  0.2246 -0.6239
   92MOL    H3011132   0.956   5.081   8.012 -0.1362 -1.0818  0.7449
   92MOL    H3111133   1.119   5.108   7.982  0.5427 -0.7324 -2.1360
   92MOL    C3211134   1.061   4.904   7.955  0.1791  0.5772 -0.5948
   92MOL   Cl3311135   0.938   4.795   8.035 -0.1087  0.1072 -0.1525
   92MOL   Cl3411136   1.220   4.816   7.958 -0.4554  0.6585 -0.2617
   92MOL    C3511137   1.014   4.916   7.810 -0.6559  0.2089  0.3874
   92MOL    H3611138   1.035   4.817   7.769  0.7884  1.0824 -1.0376
   92MOL    H3711139   0.906   4.932   7.816 -0.8988 -1.3186  0.3675
   92MOL    C3811140   1.066   5.025   7.708 -0.6515  1.3569  0.1738
   92MOL   Cl3911141   1.243   5.040   7.695  0.3180 -0.1523 -0.1748
   92MOL   Cl4011142   1.002   5.189   7.756 -0.0764  0.2152  0.0089
   92MOL    C4111143   1.005   4.987   7.571 -0.0731  0.1122  0.1015
   92MOL    H4211144   1.051   5.057   7.501  0.6412 -0.5018 -0.0405
   92MOL    H4311145   1.043   4.889   7.544 -0.0719  0.0620  0.2860
   92MOL    C4411146   0.858   4.974   7.531  0.1594 -0.0942 -0.6084
   92MOL   Cl4511147   0.762   5.111   7.587 -0.2832 -0.4287  0.0533
   92MOL   Cl4611148   0.787   4.825   7.603 -0.0736  0.2288 -0.2291
   92MOL    C4711149   0.815   4.959   7.378 -0.2987  0.1771 -1.0222
   92MOL    H4811150   0.717   4.911   7.378  1.0052 -2.5690 -0.0027
   92MOL    H4911151   0.798   5.053   7.326 -0.3442 -0.1787 -1.6487
   92MOL    C5011152   0.916   4.862   7.289 -0.9574 -0.2026 -0.6921
   92MOL   Cl5111153   0.951   4.710   7.379  0.2041 -0.2320  0.0088
   92MOL   Cl5211154   1.076   4.931   7.265  0.3168 -0.4582  0.1256
   92MOL    C5311155   0.855   4.814   7.154  0.3286 -0.5458 -0.4977
   92MOL    H5411156   0.919   4.732   7.120  2.2845 -0.1782  2.1784
   92MOL    H5511157   0.756   4.771   7.169  0.5575 -1.4153 -1.4000
   92MOL    C5611158   0.824   4.901   7.029 -0.1535  0.0041  0.1771
   92MOL   Cl5711159   0.974   4.981   6.972 -0.0983  0.6189  0.1676
   92MOL   Cl5811160   0.707   5.038   7.073 -0.1863  0.3504 -0.2604
   92MOL    C5911161   0.750   4.827   6.913 -0.1528  0.0999 -0.7245
   92MOL    H6011162   0.681   4.762   6.966  0.0063 -0.0912 -0.7530
   92MOL    H6111163   0.693   4.896   6.849 -1.9634  0.8180  1.6004
   92MOL    C6211164   0.830   4.729   6.821  0.9507 -0.3528 -0.1718
   92MOL   Cl6311165   0.697   4.652   6.715 -0.5936  0.1546  0.0317
   92MOL   Cl6411166   0.908   4.598   6.904 -0.2391  0.2455  0.3093
   92MOL    C6511167   0.928   4.795   6.719  0.9582 -0.2023 -0.2766
   92MOL    H6611168   0.873   4.803   6.625 -1.9496  2.9392  1.5972
   92MOL    H6711169   0.945   4.899   6.745 -1.2391 -0.0095  0.5188
   92MOL    C6811170   1.058   4.723   6.680  0.5558  0.6880  0.3469
   92MOL   Cl6911171   1.182   4.729   6.809  0.5048  0.3188  0.5258
   92MOL   Cl7011172   1.132   4.830   6.557  0.0895 -0.1005 -0.0651
   92MOL    C7111173   1.032   4.578   6.618 -0.3683 -1.2258  0.9349
   92MOL    H7211174   1.019   4.512   6.703  1.6177 -0.8077  1.5847
   92MOL    H7311175   0.938   4.577   6.563  0.8021 -3.2987 -1.1191
   92MOL    C7411176   1.133   4.504   6.523 -0.0999 -0.6268 -0.3478
   92MOL   Cl7511177   1.154   4.576   6.359  0.4691  0.1379  0.2167
   92MOL   Cl7611178   1.055   4.342   6.495  0.1265  0.0091  0.0754
   92MOL    C7711179   1.273   4.500   6.606 -0.4996 -0.2632 -0.0259
   92MOL    H7811180   1.304   4.605   6.608  0.1782 -0.4717  0.7022
   92MOL    H7911181   1.260   4.473   6.710  1.4600  0.5648  0.4621
   92MOL    C8011182   1.400   4.417   6.561 -0.4422  0.8905 -0.0390
   92MOL   Cl8111183   1.408   4.400   6.388  0.0429 -0.1970  0.1176
   92MOL   Cl8211184   1.381   4.249   6.621  0.5155  0.0387  0.2996
   92MOL    C8311185   1.536   4.473   6.625 -0.2873  0.0065  0.0893
   92MOL    H8411186   1.529   4.487   6.733  0.0189  2.0778 -0.1344
   92MOL    H8511187   1.606   4.392   6.604 -0.5863 -0.3971  0.6314
   92MOL    C8611188   1.611   4.594   6.565 -0.1355  0.0710  0.1553
   92MOL   Cl8711189   1.504   4.739   6.524 -0.1503  0.4657 -0.4312
   92MOL   Cl8811190   1.684   4.557   6.407 -0.3735 -0.1046 -0.2741
   92MOL    C8911191   1.727   4.646   6.643 -0.6678 -0.0723 -0.4842
   92MOL    H9011192   1.766   4.722   6.576 -1.6559  1.2111  0.3795
   92MOL    H9111193   1.687   4.698   6.730 -0.0883  0.9850 -0.8521
   92MOL    C9211194   1.839   4.552   6.708 -0.1011  0.0666  0.5600
   92MOL   Cl9311195   1.902   4.439   6.588 -0.3003 -0.3859  0.4780
   92MOL   Cl9411196   1.781   4.441   6.830  0.0722  0.1040  0.1894
   92MOL    C9511197   1.961   4.630   6.751 -0.5949 -0.3776  0.6039
   92MOL    H9611198   2.021   4.549   6.791 -0.8127 -0.7075  0.2609
   92MOL    H9711199   2.014   4.665   6.662  4.0844 -1.0445  2.9834
   92MOL    C9811200   1.961   4.749   6.856  0.1923  0.8903  0.7917
   92MOL   Cl9911201   1.859   4.695   6.991  0.1828 -0.2101  0.2247
   92MOL  Cl10011202   1.889   4.893   6.791  0.1378 -0.1549  0.0848
   92MOL   C10111203   2.105   4.786   6.914 -0.2097 -0.2023  0.8296
   92MOL   H10211204   2.105   4.877   6.975  2.7481  2.0724 -2.3196
   92MOL   H10311205   2.129   4.720   6.997 -0.0972 -1.1652  0.0310
   92MOL   C10411206   2.221   4.816   6.820 -0.3252 -0.2618 -0.4931
   92MOL  Cl10511207   2.171   4.883   6.670 -0.1391 -0.3709  0.2567
   92MOL  Cl10611208   2.303   4.654   6.789  0.2018  0.4121  0.2931
   92MOL   C10711209   2.333   4.915   6.867  0.0927 -0.6529 -0.2911
   92MOL   H10811210   2.397   4.851   6.929  0.3681 -0.8944 -0.8229
   92MOL   H10911211   2.391   4.935   6.777  0.5592  0.0400  0.1587
   92MOL   C11011212   2.320   5.050   6.935  0.7857 -0.0390 -0.3247
   92MOL  Cl11111213   2.287   5.015   7.101 -0.0849  0.2747  0.3993
   92MOL  Cl11211214   2.179   5.137   6.871  0.2626  0.1914  0.3072
   92MOL   C11311215   2.445   5.139   6.933  0.5900 -0.3415 -0.1965
   92MOL   H11411216   2.420   5.234   6.979  0.4331 -1.6122  2.4621
   92MOL   H11511217   2.514   5.099   7.008  1.5593  1.2359 -0.2452
   92MOL   C11611218   2.527   5.164   6.802 -0.6478 -0.0907 -0.1871
   92MOL  Cl11711219   2.430   5.220   6.662  0.1021 -0.2015  0.0625
   92MOL  Cl11811220   2.629   5.028   6.754 -0.5407  0.1562 -0.1205
   92MOL   C11911221   2.629   5.283   6.826 -0.1722  0.0717 -0.5565
   92MOL   H12011222   2.708   5.258   6.895  1.1810 -0.9252 -2.4116
   92MOL   H12111223   2.689   5.290   6.735  0.7021  1.0668  0.0877
   92MOL   H12211224   2.588   5.384   6.835 -0.0554  0.0634  0.0570
   93MOL     C111225   3.571   7.555   3.002  0.4699  1.0576 -0.0531
   93MOL    Cl211226   3.412   7.522   3.084  0.2518  0.0912  0.1013
   93MOL    Cl311227   3.539   7.582   2.832 -0.0668  0.1583 -0.0561
   93MOL     C411228   3.646   7.670   3.067  0.2230 -0.3554  0.1034
   93MOL     H511229   3.727   7.694   2.999  0.1714  2.0622  0.8419
   93MOL     H611230   3.582   7.759   3.075  0.8670  0.2373 -1.2205
   93MOL     H711231   3.633   7.466   2.994 -0.4216  0.5227 -1.1121
   93MOL     C811232   3.704   7.663   3.207  0.0806  1.0475 -0.0801
   93MOL    Cl911233   3.821   7.794   3.225  0.4021  0.4662 -0.0862
   93MOL   Cl1011234   3.802   7.511   3.225  0.0062 -0.1054  0.1372
   93MOL    C1111235   3.596   7.669   3.317 -0.6984 -0.5111 -0.9023
   93MOL    H1211236   3.509   7.724   3.282 -0.0491  1.8086  1.0315
   93MOL    H1311237   3.554   7.569   3.328 -2.1157  0.3321  1.6337
   93MOL    C1411238   3.634   7.703   3.470  0.3156 -0.2653  0.0809
   93MOL   Cl1511239   3.673   7.870   3.494 -0.2123 -0.0872  0.2586
   93MOL   Cl1611240   3.773   7.601   3.520 -0.0006 -0.2924  0.1228
   93MOL    C1711241   3.529   7.677   3.586  0.3510  0.5223 -0.0879
   93MOL    H1811242   3.525   7.570   3.608  1.8365  0.0761 -1.8741
   93MOL    H1911243   3.564   7.725   3.677  1.1036  0.2801 -0.2475
   93MOL    C2011244   3.382   7.726   3.560  0.1677 -0.0311  0.1336
   93MOL   Cl2111245   3.311   7.596   3.451 -0.1460 -0.0604  0.1004
   93MOL   Cl2211246   3.377   7.886   3.488  0.0523  0.4914  0.5054
   93MOL    C2311247   3.294   7.743   3.694  0.5353  0.7267 -0.1573
   93MOL    H2411248   3.332   7.838   3.730  1.5840 -0.1764  1.1515
   93MOL    H2511249   3.193   7.749   3.653  1.0516  2.5951 -1.2008
   93MOL    C2611250   3.296   7.633   3.813  0.1783  0.0240  0.1647
   93MOL   Cl2711251   3.455   7.633   3.893  0.0679 -0.3381 -0.0230
   93MOL   Cl2811252   3.283   7.465   3.754 -0.5989  0.0129  0.1432
   93MOL    C2911253   3.185   7.654   3.925  0.8197 -0.2077 -0.8861
   93MOL    H3011254   3.095   7.595   3.908  0.5236  0.0776 -0.3284
   93MOL    H3111255   3.235   7.596   4.003  2.4627 -0.0929 -1.8252
   93MOL    C3211256   3.152   7.799   3.982  0.1854  0.2854 -0.1789
   93MOL   Cl3311257   3.023   7.874   3.884 -0.4486  0.7438  0.0248
   93MOL   Cl3411258   3.292   7.906   3.987 -0.0341 -0.4317  0.2261
   93MOL    C3511259   3.103   7.792   4.134 -0.2488  0.5584  0.2929
   93MOL    H3611260   3.199   7.785   4.183  1.8830  0.3245 -3.7173
   93MOL    H3711261   3.071   7.892   4.163 -1.3575  0.4313 -0.4387
   93MOL    C3811262   3.001   7.693   4.200 -0.1942 -0.1861 -0.5717
   93MOL   Cl3911263   3.046   7.523   4.167 -0.1757 -0.2463 -0.5084
   93MOL   Cl4011264   2.852   7.726   4.125 -0.3412 -0.1961  0.5213
   93MOL    C4111265   2.968   7.719   4.352  0.0889 -0.2139  0.5445
   93MOL    H4211266   2.959   7.828   4.355  0.4966 -0.1558 -0.0164
   93MOL    H4311267   2.871   7.676   4.375 -0.0390 -0.3742 -0.2847
   93MOL    C4411268   3.066   7.686   4.473 -0.2194 -0.5352 -0.8976
   93MOL   Cl4511269   3.238   7.707   4.415 -0.0347 -0.1069 -0.1130
   93MOL   Cl4611270   3.061   7.523   4.531  0.3550  0.2256 -0.3060
   93MOL    C4711271   3.056   7.786   4.591  0.0184  0.0546  0.1455
   93MOL    H4811272   3.153   7.788   4.640  0.5953 -1.5521 -0.8933
   93MOL    H4911273   3.060   7.884   4.542 -0.9080 -1.6751 -3.5553
   93MOL    C5011274   2.937   7.786   4.691  0.0986 -0.3024  0.2416
   93MOL   Cl5111275   2.966   7.928   4.789 -0.0259  0.0553  0.0370
   93MOL   Cl5211276   2.947   7.648   4.801 -0.3031  0.2447  0.0879
   93MOL    C5311277   2.803   7.808   4.627 -0.4442 -0.5673  0.1945
   93MOL    H5411278   2.827   7.883   4.552  1.7573 -2.3147 -0.9149
   93MOL    H5511279   2.777   7.714   4.578 -1.7094 -0.0184 -0.2100
   93MOL    C5611280   2.679   7.864   4.704  0.4409  0.7221 -0.4550
   93MOL   Cl5711281   2.694   8.043   4.727  0.2264  0.3305  0.1228
   93MOL   Cl5811282   2.676   7.804   4.870  0.0440  0.2380 -0.3201
   93MOL    C5911283   2.539   7.827   4.646  0.2518  0.0151 -0.1305
   93MOL    H6011284   2.552   7.720   4.628 -1.1190 -0.4633  1.6704
   93MOL    H6111285   2.455   7.833   4.715 -0.1544 -2.1726 -0.4058
   93MOL    C6211286   2.485   7.898   4.512 -0.3453 -0.1270 -0.2030
   93MOL   Cl6311287   2.618   7.894   4.388 -0.0543  0.2494  0.2351
   93MOL   Cl6411288   2.438   8.074   4.534 -0.1679  0.0996  0.2957
   93MOL    C6511289   2.366   7.821   4.439 -0.4352 -0.0395  0.4516
   93MOL    H6611290   2.342   7.887   4.355 -1.6778  0.3057  1.0689
   93MOL    H6711291   2.403   7.726   4.401 -1.1945  0.2474 -1.0693
   93MOL    C6811292   2.228   7.789   4.518 -0.3274  0.7429  0.3608
   93MOL   Cl6911293   2.153   7.936   4.586 -0.0577  0.4957  0.0146
   93MOL   Cl7011294   2.261   7.668   4.638 -0.1308 -0.2375 -0.2100
   93MOL    C7111295   2.119   7.735   4.420 -0.6215  0.0622 -0.3625
   93MOL    H7211296   2.053   7.688   4.493 -1.8153 -1.5644 -2.4523
   93MOL    H7311297   2.055   7.809   4.373  0.1461 -0.1014 -1.6786
   93MOL    C7411298   2.152   7.638   4.306  0.9473  0.8671  0.8900
   93MOL   Cl7511299   2.259   7.505   4.366 -0.1611 -0.2887 -0.2109
   93MOL   Cl7611300   2.240   7.716   4.177 -0.1617  0.5096  0.3363
   93MOL    C7711301   2.013   7.585   4.249  0.6975  0.6570 -0.2476
   93MOL    H7811302   1.943   7.669   4.245  0.5502  0.4931 -1.0834
   93MOL    H7911303   2.040   7.552   4.149  0.4245  0.0416 -0.1217
   93MOL    C8011304   1.936   7.455   4.308 -0.9202  0.0375 -0.2098
   93MOL   Cl8111305   1.800   7.424   4.197 -0.0753  0.3763 -0.0911
   93MOL   Cl8211306   1.872   7.494   4.467  0.4784 -0.3278  0.0379
   93MOL    C8311307   2.016   7.317   4.328  0.2582  0.3269  0.3356
   93MOL    H8411308   2.066   7.288   4.236 -1.2325 -2.3817  0.3134
   93MOL    H8511309   2.085   7.332   4.410  0.1191 -1.4992  0.8107
   93MOL    C8611310   1.958   7.179   4.342  0.4630 -0.1133  0.5172
   93MOL   Cl8711311   2.087   7.066   4.386  0.1324  0.2618  0.1814
   93MOL   Cl8811312   1.889   7.118   4.189 -0.0150  0.1617 -0.3779
   93MOL    C8911313   1.854   7.175   4.461  0.1242  0.4792  0.0612
   93MOL    H9011314   1.885   7.234   4.547 -1.8959 -0.8353  1.7410
   93MOL    H9111315   1.768   7.231   4.422 -0.3312  0.8843  1.6196
   93MOL    C9211316   1.796   7.042   4.521  0.5065 -0.0623 -0.8439
   93MOL   Cl9311317   1.662   7.074   4.632 -0.1225  0.2043  0.3167
   93MOL   Cl9411318   1.911   6.964   4.626 -0.5238 -0.0881 -0.1509
   93MOL    C9511319   1.758   6.941   4.405 -0.2480 -0.4125 -0.4682
   93MOL    H9611320   1.697   6.994   4.333 -2.1678 -2.2104 -0.2178
   93MOL    H9711321   1.853   6.920   4.355 -0.2894 -1.1933 -0.2312
   93MOL    C9811322   1.680   6.806   4.432 -0.4748 -0.0926 -0.0571
   93MOL   Cl9911323   1.656   6.729   4.270 -0.1263 -0.3168  0.0481
   93MOL  Cl10011324   1.520   6.843   4.497  0.3275 -0.7005 -0.2334
   93MOL   C10111325   1.757   6.725   4.538  0.1700  0.3331 -0.1261
   93MOL   H10211326   1.863   6.732   4.514  0.1530  0.5299 -0.1394
   93MOL   H10311327   1.740   6.765   4.637 -1.1753 -1.8175  0.5518
   93MOL   C10411328   1.736   6.574   4.553 -0.3404  0.1853 -0.0903
   93MOL  Cl10511329   1.825   6.536   4.700 -0.0452  0.2387 -0.2682
   93MOL  Cl10611330   1.816   6.474   4.420  0.2600 -0.0162 -0.2480
   93MOL   C10711331   1.590   6.518   4.565  0.1752 -0.7005 -0.8639
   93MOL   H10811332   1.537   6.594   4.623  2.4151  0.8983 -0.8633
   93MOL   H10911333   1.547   6.530   4.466  1.2118  0.7396 -1.1617
   93MOL   C11011334   1.564   6.382   4.639  0.2413 -0.0251 -0.9296
   93MOL  Cl11111335   1.399   6.344   4.595  0.0977 -0.0127  0.0244
   93MOL  Cl11211336   1.570   6.402   4.815  0.2741 -0.0477  0.0116
   93MOL   C11311337   1.655   6.276   4.592  0.3523  0.8248  1.3554
   93MOL   H11411338   1.647   6.271   4.483  0.3946  2.0185  1.2952
   93MOL   H11511339   1.757   6.309   4.612  1.6756 -0.7294 -2.2646
   93MOL   C11611340   1.655   6.132   4.652 -0.3241  0.2360  0.0235
   93MOL  Cl11711341   1.780   6.055   4.555 -0.2062 -0.0168 -0.3562
   93MOL  Cl11811342   1.494   6.047   4.635 -0.4726 -0.1634  0.5406
   93MOL   C11911343   1.705   6.103   4.793  0.5453  0.2996 -0.0770
   93MOL   H12011344   1.809   6.134   4.800  0.5108  1.0162 -2.2198
   93MOL   H12111345   1.638   6.160   4.858 -0.0238  1.8683 -2.0000
   93MOL   H12211346   1.697   5.997   4.815 -0.1623  0.0457 -1.5064
   94MOL     C111347   3.563   0.811   2.803 -0.2295  0.1842 -0.3501
   94MOL    Cl211348   3.476   0.768   2.949 -0.2269 -0.1953 -0.4195
   94MOL    Cl311349   3.704   0.695   2.788 -0.2295  0.0815  0.0604
   94MOL     C411350   3.476   0.801   2.681  0.0901  0.5560 -0.0560
   94MOL     H511351   3.467   0.696   2.654 -1.6993  1.0167 -1.3860
   94MOL     H611352   3.376   0.835   2.711 -1.0652 -1.5671 -1.3665
   94MOL     H711353   3.600   0.911   2.825 -1.9800  0.8212 -0.2118
   94MOL     C811354   3.497   0.888   2.555  0.5518  0.2231 -0.1661
   94MOL    Cl911355   3.507   1.062   2.618 -0.4075  0.2152 -0.3740
   94MOL   Cl1011356   3.354   0.878   2.453  0.0080 -0.0656 -0.2954
   94MOL    C1111357   3.630   0.854   2.472 -0.2267 -0.2535 -0.1110
   94MOL    H1211358   3.703   0.839   2.551 -0.4814 -0.5105  0.0787
   94MOL    H1311359   3.608   0.760   2.421 -3.1686 -0.5512  1.5442
   94MOL    C1411360   3.692   0.953   2.367 -0.3066  0.5340  0.1589
   94MOL   Cl1511361   3.770   1.096   2.452 -0.2318  0.2472  0.0346
   94MOL   Cl1611362   3.561   1.020   2.271  0.3479 -0.0793 -0.2087
   94MOL    C1711363   3.792   0.882   2.277  0.2368 -0.1664  0.4674
   94MOL    H1811364   3.734   0.794   2.248  0.8058 -0.3316 -0.1874
   94MOL    H1911365   3.815   0.938   2.186  0.2959 -1.4621 -0.3264
   94MOL    C2011366   3.941   0.828   2.328 -0.5771 -0.1227 -0.2463
   94MOL   Cl2111367   3.936   0.742   2.482 -0.0560  0.2944 -0.5238
   94MOL   Cl2211368   4.046   0.966   2.356  0.0466 -0.3318 -0.0282
   94MOL    C2311369   4.017   0.740   2.223 -0.0945 -0.3625  0.1340
   94MOL    H2411370   4.067   0.802   2.148 -0.4810 -0.1566  0.0445
   94MOL    H2511371   4.102   0.708   2.283  1.4787  3.4380  0.0959
   94MOL    C2611372   3.940   0.620   2.157  0.2860  0.1504 -0.0690
   94MOL   Cl2711373   3.833   0.665   2.027 -0.2764 -0.0479 -0.2652
   94MOL   Cl2811374   3.832   0.537   2.278  0.1152 -0.0016  0.1282
   94MOL    C2911375   4.026   0.506   2.098 -0.4341 -0.1902 -0.3492
   94MOL    H3011376   4.060   0.452   2.186 -2.2325  0.9183  1.0440
   94MOL    H3111377   3.953   0.442   2.049 -0.0519 -1.4473  0.7024
   94MOL    C3211378   4.154   0.522   2.005 -0.6281  0.4496  0.2675
   94MOL   Cl3311379   4.280   0.607   2.107  0.2265  0.0275 -0.1023
   94MOL   Cl3411380   4.107   0.616   1.859 -0.0534 -0.1689 -0.2238
   94MOL    C3511381   4.213   0.379   1.973  0.2308 -0.3854  0.4426
   94MOL    H3611382   4.224   0.333   2.071 -0.5218 -1.1893  0.1597
   94MOL    H3711383   4.135   0.324   1.920 -0.2491  1.6240 -1.0174
   94MOL    C3811384   4.343   0.343   1.896 -0.9487  0.4086 -0.1758
   94MOL   Cl3911385   4.335   0.396   1.727  0.0259  0.3803 -0.1453
   94MOL   Cl4011386   4.331   0.163   1.909  0.0748  0.0797  0.3118
   94MOL    C4111387   4.479   0.393   1.955 -1.1269 -0.0431 -0.1697
   94MOL    H4211388   4.482   0.502   1.945 -1.1635 -0.0370 -0.1142
   94MOL    H4311389   4.490   0.386   2.063 -0.2409  0.8767 -0.1869
   94MOL    C4411390   4.624   0.357   1.897 -0.1711  0.2720 -0.4041
   94MOL   Cl4511391   4.729   0.407   2.032 -0.2321  0.1939  0.0763
   94MOL   Cl4611392   4.664   0.481   1.767 -0.0332  0.4868  0.2546
   94MOL    C4711393   4.634   0.204   1.858 -0.0196  0.0735  0.6160
   94MOL    H4811394   4.623   0.138   1.944 -1.5973 -1.9417 -1.0706
   94MOL    H4911395   4.554   0.173   1.790  1.9956 -0.6338 -1.4698
   94MOL    C5011396   4.763   0.154   1.788 -0.0398 -0.4605 -0.0664
   94MOL   Cl5111397   4.909   0.196   1.879  0.0066  0.0186  0.0995
   94MOL   Cl5211398   4.782   0.223   1.625 -0.4435 -0.3027  0.2492
   94MOL    C5311399   4.765   0.002   1.752 -0.4490 -0.2743 -0.3461
   94MOL    H5411400   4.703   9.172   1.662 -2.0977 -0.0512  0.7361
   94MOL    H5511401   4.868   9.155   1.732  0.4201  2.5152  0.2031
   94MOL    C5611402   4.706   9.073   1.844 -0.2120 -0.0946 -0.0331
   94MOL   Cl5711403   4.534   9.082   1.845  0.6250 -0.2417  0.2606
   94MOL   Cl5811404   4.771   9.097   2.008 -0.1913  0.3248 -0.0058
   94MOL    C5911405   4.738   8.923   1.814  0.0464  0.1541 -0.2804
   94MOL    H6011406   4.833   8.892   1.857 -0.7723 -1.1817  0.5813
   94MOL    H6111407   4.659   8.873   1.870  0.2256  0.6866  0.4498
   94MOL    C6211408   4.719   8.858   1.671 -0.3051  0.3761  0.4527
   94MOL   Cl6311409   4.845   8.909   1.552 -0.1245 -0.2878  0.1274
   94MOL   Cl6411410   4.561   8.898   1.602  0.0972 -0.0547  0.5176
   94MOL    C6511411   4.713   8.705   1.681  0.2642  0.5078  0.2353
   94MOL    H6611412   4.616   8.682   1.725  1.2695  1.1912  2.8741
   94MOL    H6711413   4.712   8.667   1.579 -0.8061 -0.7045  0.6783
   94MOL    C6811414   4.820   8.617   1.746  0.0368 -0.6917  0.5084
   94MOL   Cl6911415   4.814   8.645   1.923 -0.0793 -0.4562 -0.4291
   94MOL   Cl7011416   4.984   8.667   1.697 -0.2801 -0.1601  0.2230
   94MOL    C7111417   4.814   8.464   1.722  0.4231 -0.3749  0.3588
   94MOL    H7211418   4.824   8.452   1.614  0.3811 -0.0424  0.3159
   94MOL    H7311419   4.894   8.418   1.780  0.2372 -1.8842 -0.5598
   94MOL    C7411420   4.690   8.372   1.738  0.3472 -0.1968 -0.0649
   94MOL   Cl7511421   4.747   8.220   1.669 -0.2561 -0.0401  0.2198
   94MOL   Cl7611422   4.564   8.437   1.628 -0.1432 -0.0248 -0.3289
   94MOL    C7711423   4.652   8.368   1.886 -0.8123 -0.4478 -0.2584
   94MOL    H7811424   4.736   8.334   1.947 -0.6595 -0.6417 -0.5800
   94MOL    H7911425   4.628   8.463   1.936  1.2668 -0.7666  1.4292
   94MOL    C8011426   4.534   8.274   1.929 -0.1306 -1.2066  0.0809
   94MOL   Cl8111427   4.530   8.286   2.100 -0.1426  0.0580  0.1946
   94MOL   Cl8211428   4.584   8.107   1.906 -0.2501  0.2906  0.1990
   94MOL    C8311429   4.393   8.310   1.864 -0.0104 -0.1993 -0.1294
   94MOL    H8411430   4.381   8.418   1.874 -1.1344 -0.3010 -0.2755
   94MOL    H8511431   4.402   8.294   1.757  2.7730  2.4280 -0.3495
   94MOL    C8611432   4.263   8.254   1.925  0.6879 -0.2487  0.6398
   94MOL   Cl8711433   4.129   8.309   1.821  0.2023 -0.1291 -0.3001
   94MOL   Cl8811434   4.222   8.330   2.083  0.4290  0.2709  0.0862
   94MOL    C8911435   4.256   8.102   1.946 -0.7626 -0.9877  0.2442
   94MOL    H9011436   4.341   8.081   2.012  0.4080 -1.1251 -1.2679
   94MOL    H9111437   4.170   8.095   2.011  0.4886 -0.4614  1.9956
   94MOL    C9211438   4.248   8.001   1.827  0.0777 -0.5295 -0.2600
   94MOL   Cl9311439   4.346   8.057   1.692  0.2340  0.2452  0.1863
   94MOL   Cl9411440   4.078   8.010   1.758  0.1204  0.0164  0.1354
   94MOL    C9511441   4.289   7.851   1.857 -0.4234 -0.5170 -0.0187
   94MOL    H9611442   4.253   7.799   1.768  1.5234  0.3734 -1.3651
   94MOL    H9711443   4.395   7.835   1.873 -0.3379 -1.1538 -1.1557
   94MOL    C9811444   4.219   7.774   1.972 -0.4185  0.8602 -0.2717
   94MOL   Cl9911445   4.049   7.761   1.946 -0.0218 -0.2741  0.2222
   94MOL  Cl10011446   4.241   7.862   2.132  0.3297 -0.4912 -0.2884
   94MOL   C10111447   4.281   7.629   1.994  0.3125 -0.5823 -0.4313
   94MOL   H10211448   4.379   7.644   2.042  0.6923  0.0286 -1.3874
   94MOL   H10311449   4.222   7.578   2.070 -0.4690 -0.5557 -1.0209
   94MOL   C10411450   4.304   7.525   1.880 -0.6859  0.3792 -0.1143
   94MOL  Cl10511451   4.386   7.393   1.958  0.3792  0.5740  0.0854
   94MOL  Cl10611452   4.420   7.581   1.749  0.0912 -0.1041  0.5802
   94MOL   C10711453   4.173   7.488   1.810  0.1976 -0.2477 -0.5601
   94MOL   H10811454   4.087   7.472   1.876 -0.0439  0.1209 -0.7823
   94MOL   H10911455   4.140   7.571   1.748 -0.6231  0.9725  1.4391
   94MOL   C11011456   4.161   7.362   1.722  0.5541 -0.8420  0.2279
   94MOL  Cl11111457   4.005   7.379   1.634  0.1532  0.6985  0.0134
   94MOL  Cl11211458   4.152   7.219   1.832  0.3263 -0.4222  0.2714
   94MOL   C11311459   4.275   7.348   1.605 -1.1678  0.1027  0.1283
   94MOL   H11411460   4.283   7.436   1.542 -0.9555  0.7575  1.0644
   94MOL   H11511461   4.374   7.347   1.650 -1.4953 -1.4480  0.8501
   94MOL   C11611462   4.259   7.228   1.506 -0.7417  0.7804  0.3940
   94MOL  Cl11711463   4.413   7.218   1.427 -0.0942 -0.5712 -0.5786
   94MOL  Cl11811464   4.151   7.276   1.371 -0.2318  0.1509 -0.1231
   94MOL   C11911465   4.213   7.083   1.554 -0.3794  0.3582  1.0979
   94MOL   H12011466   4.278   7.039   1.630  0.1476  0.5279  0.7499
   94MOL   H12111467   4.108   7.067   1.577 -0.5181  0.1877  0.3489
   94MOL   H12211468   4.220   7.029   1.460 -1.5463  0.5410  0.8970
   95MOL     C111469   3.242   0.709   7.188 -0.1657 -0.8138  0.4856
   95MOL    Cl211470   3.305   0.614   7.328 -0.0968  0.2029  0.1409
   95MOL    Cl311471   3.304   0.638   7.035  0.3965  0.1986  0.2344
   95MOL     C411472   3.092   0.738   7.192  0.0906  0.1956  0.0757
   95MOL     H511473   3.053   0.761   7.093  1.8308  1.1904 -0.4086
   95MOL     H611474   3.052   0.648   7.238  0.2288  0.6053  1.0298
   95MOL     H711475   3.295   0.805   7.191 -1.1578 -0.2698  0.7612
   95MOL     C811476   3.057   0.865   7.263  0.4568 -0.0517 -0.0297
   95MOL    Cl911477   3.144   0.999   7.182  0.0940  0.1254  0.0277
   95MOL   Cl1011478   3.118   0.871   7.427 -0.2344  0.0551 -0.1878
   95MOL    C1111479   2.909   0.909   7.258  0.7070  0.4430  0.4467
   95MOL    H1211480   2.889   0.988   7.331 -3.7310  0.2476 -0.4308
   95MOL    H1311481   2.869   0.939   7.161  0.7368 -0.3464  0.1887
   95MOL    C1411482   2.793   0.808   7.303 -0.2595  0.3038  0.4798
   95MOL   Cl1511483   2.836   0.715   7.449 -0.0569 -0.1884 -0.1601
   95MOL   Cl1611484   2.774   0.676   7.175 -0.6724 -0.3067  0.1126
   95MOL    C1711485   2.659   0.872   7.337 -0.1783  0.1420 -0.4646
   95MOL    H1811486   2.592   0.789   7.359 -0.9060  0.6511 -0.7406
   95MOL    H1911487   2.686   0.927   7.427  2.3924 -0.4918 -0.8217
   95MOL    C2011488   2.581   0.961   7.234 -0.2019 -0.3280 -0.1766
   95MOL   Cl2111489   2.557   0.882   7.071 -0.0457  0.3130 -0.0797
   95MOL   Cl2211490   2.678   1.113   7.209 -0.1023  0.0585  0.4141
   95MOL    C2311491   2.437   0.987   7.292  0.2822 -0.2142 -0.4730
   95MOL    H2411492   2.400   1.064   7.225  1.4459  0.8950  0.1402
   95MOL    H2511493   2.378   0.897   7.274 -0.1430 -1.1572  4.6989
   95MOL    C2611494   2.396   1.031   7.439  0.1641  0.7662 -0.2373
   95MOL   Cl2711495   2.520   1.151   7.489  0.0455  0.3840  0.1344
   95MOL   Cl2811496   2.406   0.882   7.539 -0.3803  0.1187 -0.2195
   95MOL    C2911497   2.262   1.106   7.445  0.2746 -0.2979 -0.0774
   95MOL    H3011498   2.236   1.137   7.546 -0.6544  1.7759 -0.8981
   95MOL    H3111499   2.275   1.205   7.401 -0.9717 -1.3055 -2.8934
   95MOL    C3211500   2.128   1.060   7.382  0.4586 -0.1286 -0.3503
   95MOL   Cl3311501   2.105   0.889   7.422  0.2794  0.4165  0.1717
   95MOL   Cl3411502   2.133   1.061   7.205  0.1259  0.3400 -0.1680
   95MOL    C3511503   2.003   1.137   7.445  0.9355  0.6993  0.1875
   95MOL    H3611504   1.915   1.090   7.401 -0.7089  1.4580  2.5561
   95MOL    H3711505   1.991   1.114   7.551 -1.6288  0.5634 -0.0974
   95MOL    C3811506   1.994   1.297   7.439 -0.4687  0.0652 -0.5211
   95MOL   Cl3911507   2.120   1.387   7.528 -0.0070 -0.3182  0.0803
   95MOL   Cl4011508   1.843   1.339   7.524 -0.1707 -0.0027 -0.1019
   95MOL    C4111509   1.996   1.332   7.287 -0.0142  0.0160  0.1441
   95MOL    H4211510   2.099   1.342   7.254  0.0884 -1.2351  0.0645
   95MOL    H4311511   1.950   1.247   7.237 -2.3909  0.9489  0.6872
   95MOL    C4411512   1.925   1.462   7.227  0.1544  0.5664 -0.5650
   95MOL   Cl4511513   1.749   1.415   7.220  0.1279 -0.4823 -0.0199
   95MOL   Cl4611514   1.986   1.481   7.060 -0.2551  0.0924  0.2411
   95MOL    C4711515   1.941   1.592   7.311  0.7991 -0.0598 -0.0560
   95MOL    H4811516   1.937   1.568   7.417  2.0427 -0.5800 -0.1154
   95MOL    H4911517   2.039   1.633   7.286  0.7778  0.7260  1.1069
   95MOL    C5011518   1.857   1.716   7.302  0.0306 -0.1549  0.3208
   95MOL   Cl5111519   1.704   1.695   7.383  0.2946 -0.2299  0.0807
   95MOL   Cl5211520   1.802   1.753   7.132  0.0591  0.0334 -0.2030
   95MOL    C5311521   1.926   1.848   7.342  0.4365  0.1399  0.0262
   95MOL    H5411522   2.009   1.872   7.276 -0.2108 -1.0624 -1.2700
   95MOL    H5511523   1.854   1.928   7.326  0.5682 -0.3054 -3.0462
   95MOL    C5611524   1.976   1.872   7.487  0.0728  0.1982 -0.2663
   95MOL   Cl5711525   2.090   1.744   7.533 -0.0830 -0.4088 -0.2677
   95MOL   Cl5811526   1.840   1.857   7.605 -0.5925  0.3151  0.0772
   95MOL    C5911527   2.043   2.011   7.513  0.0059 -0.5229  0.3024
   95MOL    H6011528   2.068   2.005   7.619  1.8294  0.1466 -0.0730
   95MOL    H6111529   2.139   1.999   7.462  0.7204  2.6384  0.7858
   95MOL    C6211530   1.980   2.147   7.476 -0.0830 -0.1385  0.9578
   95MOL   Cl6311531   1.821   2.168   7.559  0.1634  0.0128 -0.4948
   95MOL   Cl6411532   1.959   2.168   7.298 -0.0350 -0.0238 -0.4102
   95MOL    C6511533   2.058   2.274   7.526  0.4155 -0.0334  0.2619
   95MOL    H6611534   2.027   2.355   7.460 -1.6654 -0.2019  0.9764
   95MOL    H6711535   2.029   2.297   7.629  1.0293  1.7573  0.0472
   95MOL    C6811536   2.215   2.271   7.524 -0.6849  0.3482  0.6009
   95MOL   Cl6911537   2.274   2.206   7.373 -0.3316 -0.3220 -0.0914
   95MOL   Cl7011538   2.265   2.174   7.669  0.1507  0.5940  0.1003
   95MOL    C7111539   2.251   2.425   7.535 -0.1658 -0.2175  0.4830
   95MOL    H7211540   2.219   2.468   7.441  1.1757 -2.2588 -0.9418
   95MOL    H7311541   2.184   2.473   7.606 -1.6570 -2.8524  0.9158
   95MOL    C7411542   2.396   2.469   7.571 -0.5264 -0.3067  0.1944
   95MOL   Cl7511543   2.430   2.449   7.741 -0.4074  0.0781  0.0594
   95MOL   Cl7611544   2.388   2.648   7.551 -0.0552 -0.1977 -0.5888
   95MOL    C7711545   2.502   2.403   7.491 -0.0685  0.2336 -0.5157
   95MOL    H7811546   2.501   2.295   7.508  1.0875  0.4634  1.1894
   95MOL    H7911547   2.471   2.410   7.387 -0.0137 -1.0975 -0.6369
   95MOL    C8011548   2.652   2.453   7.496 -0.0344  0.3078 -0.2660
   95MOL   Cl8111549   2.676   2.612   7.416 -0.1085 -0.2978 -0.1333
   95MOL   Cl8211550   2.741   2.324   7.405  0.3470 -0.1256  0.4626
   95MOL    C8311551   2.721   2.448   7.639 -0.1011  0.1076  0.1684
   95MOL    H8411552   2.676   2.533   7.689  1.7317  0.1817  1.7351
   95MOL    H8511553   2.684   2.356   7.685  0.7093 -1.1717 -1.6419
   95MOL    C8611554   2.875   2.442   7.671 -0.6336 -0.5806  0.7577
   95MOL   Cl8711555   2.961   2.559   7.570  0.1413  0.2573  0.1885
   95MOL   Cl8811556   2.941   2.277   7.636 -0.2979  0.0008 -0.4836
   95MOL    C8911557   2.921   2.490   7.819 -0.1750 -0.1280 -0.6479
   95MOL    H9011558   3.028   2.469   7.823 -0.4913 -1.6375  0.2870
   95MOL    H9111559   2.916   2.599   7.821  1.5453 -0.0698  1.0222
   95MOL    C9211560   2.853   2.429   7.950 -0.0488 -0.0970  0.5121
   95MOL   Cl9311561   2.691   2.504   7.974  0.1323  0.6368 -0.0124
   95MOL   Cl9411562   2.958   2.481   8.079 -0.3375  0.0787 -0.1180
   95MOL    C9511563   2.849   2.274   7.952  0.2617 -0.0260 -0.4143
   95MOL    H9611564   2.794   2.252   7.860 -2.0898  0.7779  0.7453
   95MOL    H9711565   2.945   2.223   7.940  1.4171  1.7969  0.9052
   95MOL    C9811566   2.794   2.193   8.069  0.7667  0.4173 -1.3697
   95MOL   Cl9911567   2.907   2.214   8.212  0.3432 -0.1074  0.0024
   95MOL  Cl10011568   2.807   2.019   8.016 -0.0353 -0.0279  0.4021
   95MOL   C10111569   2.649   2.234   8.121  0.0510  0.4883  0.6609
   95MOL   H10211570   2.669   2.325   8.177  0.5039  1.4818 -1.0952
   95MOL   H10311571   2.589   2.259   8.034  0.7619 -0.7478 -0.1973
   95MOL   C10411572   2.551   2.146   8.208  0.2122 -0.6763  0.3692
   95MOL  Cl10511573   2.432   2.257   8.280  0.1057 -0.0142  0.1436
   95MOL  Cl10611574   2.646   2.086   8.344  0.0662  0.1048 -0.3987
   95MOL   C10711575   2.477   2.034   8.131 -0.4517 -0.7812  0.3746
   95MOL   H10811576   2.556   1.962   8.110 -0.1896 -0.2593 -0.4470
   95MOL   H10911577   2.407   1.991   8.202 -1.1390  2.2565  1.6147
   95MOL   C11011578   2.399   2.052   7.994  0.5607  0.3993 -0.0176
   95MOL  Cl11111579   2.500   2.089   7.845 -0.1701 -0.2447  0.1589
   95MOL  Cl11211580   2.291   2.194   8.006  0.5079 -0.1595 -0.1325
   95MOL   C11311581   2.307   1.939   7.946 -0.2953 -0.1399 -0.1743
   95MOL   H11411582   2.225   1.933   8.017 -0.3601 -4.0373 -0.5109
   95MOL   H11511583   2.263   1.968   7.850 -1.3873  1.0020  0.6540
   95MOL   C11611584   2.356   1.791   7.933  0.6088 -0.4169  0.4251
   95MOL  Cl11711585   2.360   1.726   8.099  0.3934  0.0075  0.2741
   95MOL  Cl11811586   2.521   1.775   7.845  0.1373 -0.0038  0.4012
   95MOL   C11911587   2.251   1.706   7.854  0.6772  0.1994 -0.0182
   95MOL   H12011588   2.163   1.697   7.918  0.5372  0.2869 -0.2004
   95MOL   H12111589   2.234   1.749   7.756 -0.3147 -0.3097 -0.0780
   95MOL   H12211590   2.283   1.603   7.838 -0.6622 -0.3780  0.9028
   96MOL     C111591   2.056   1.804   6.770 -0.4085  0.0954 -0.4606
   96MOL    Cl211592   2.058   1.847   6.944  0.2990 -0.1754 -0.0258
   96MOL    Cl311593   2.222   1.830   6.717 -0.1725 -0.5845 -0.2384
   96MOL     C411594   2.007   1.662   6.757 -0.7638 -0.8866  0.0282
   96MOL     H511595   2.071   1.587   6.802  0.3457 -1.8825 -3.0703
   96MOL     H611596   1.921   1.648   6.823 -3.2632 -0.9047 -3.1021
   96MOL     H711597   2.001   1.879   6.713 -0.5623 -0.0028 -0.4405
   96MOL     C811598   1.952   1.616   6.615  0.0296  0.2451  0.1383
   96MOL    Cl911599   1.788   1.683   6.591  0.7209  0.4740  0.1446
   96MOL   Cl1011600   1.946   1.437   6.615 -0.0556 -0.4479  0.2997
   96MOL    C1111601   2.052   1.647   6.503 -0.6381  0.3728 -0.1517
   96MOL    H1211602   2.048   1.756   6.498  0.1549  0.5457  2.4019
   96MOL    H1311603   2.153   1.634   6.543 -1.1879  1.6047  1.7110
   96MOL    C1411604   2.034   1.588   6.355  0.3003  0.5081  0.5527
   96MOL   Cl1511605   2.119   1.435   6.352  0.1521 -0.1451  0.2483
   96MOL   Cl1611606   2.120   1.716   6.254 -0.2541 -0.3997  0.1933
   96MOL    C1711607   1.882   1.576   6.308  0.0165  0.0719 -0.5343
   96MOL    H1811608   1.823   1.519   6.380 -0.3082  0.6798 -0.3183
   96MOL    H1911609   1.847   1.679   6.309  0.7101  0.3338  3.4176
   96MOL    C2011610   1.843   1.502   6.174  0.6051 -1.0185  0.6915
   96MOL   Cl2111611   1.834   1.327   6.213 -0.1972  0.3507 -0.2219
   96MOL   Cl2211612   1.953   1.534   6.037 -0.3072 -0.4006 -0.0374
   96MOL    C2311613   1.703   1.545   6.121 -0.0084 -0.2791 -0.3504
   96MOL    H2411614   1.722   1.650   6.097  1.7635 -0.4764  0.0910
   96MOL    H2511615   1.683   1.491   6.029  0.5615 -1.6193  0.2951
   96MOL    C2611616   1.567   1.546   6.200 -0.0886  0.8402 -0.2042
   96MOL   Cl2711617   1.447   1.614   6.091  0.3031 -0.0143  0.2691
   96MOL   Cl2811618   1.580   1.664   6.337 -0.2431  0.0917  0.0730
   96MOL    C2911619   1.529   1.403   6.248 -0.4346  1.0906  0.1975
   96MOL    H3011620   1.555   1.337   6.166 -0.6346  1.6486 -0.3135
   96MOL    H3111621   1.590   1.379   6.336 -2.1994 -2.6479  0.4911
   96MOL    C3211622   1.390   1.372   6.305 -0.4979 -0.7103 -0.2558
   96MOL   Cl3311623   1.398   1.211   6.378 -0.3479 -0.2365 -0.1042
   96MOL   Cl3411624   1.285   1.364   6.162  0.2178 -0.0469 -0.1575
   96MOL    C3511625   1.312   1.471   6.409  1.1968 -0.4034  0.2399
   96MOL    H3611626   1.339   1.565   6.360  1.6628 -0.4689  0.3622
   96MOL    H3711627   1.206   1.467   6.385  1.0025 -1.3134  1.2475
   96MOL    C3811628   1.334   1.486   6.557  0.5138  0.6195 -0.6855
   96MOL   Cl3911629   1.298   1.653   6.611  0.2370 -0.3939 -0.3013
   96MOL   Cl4011630   1.506   1.448   6.595 -0.2432 -0.1222 -0.1150
   96MOL    C4111631   1.260   1.390   6.650  0.3086 -0.6969  0.1007
   96MOL    H4211632   1.316   1.297   6.643  1.9405  0.4161 -1.8215
   96MOL    H4311633   1.275   1.435   6.749  1.1566 -0.0384 -0.3184
   96MOL    C4411634   1.106   1.356   6.640 -0.1583 -0.3986 -0.8757
   96MOL   Cl4511635   1.068   1.274   6.484  0.2850  0.3392 -0.2035
   96MOL   Cl4611636   1.004   1.502   6.637 -0.3689 -0.4872  0.2237
   96MOL    C4711637   1.055   1.279   6.762  1.2199 -0.4787 -0.0549
   96MOL    H4811638   1.053   1.336   6.854  0.8482  0.0168 -0.3673
   96MOL    H4911639   0.954   1.242   6.743  0.2768  1.2008  1.5287
   96MOL    C5011640   1.135   1.153   6.815  0.4470  0.7223  0.3144
   96MOL   Cl5111641   1.296   1.202   6.884 -0.3350 -0.2175 -0.0014
   96MOL   Cl5211642   1.163   1.039   6.679 -0.3090  0.1769  0.1208
   96MOL    C5311643   1.061   1.069   6.923  0.3233 -0.1662 -0.4093
   96MOL    H5411644   0.991   1.000   6.874  1.1875 -1.4373  0.1395
   96MOL    H5511645   1.134   0.994   6.951  0.4398  0.5074  1.1220
   96MOL    C5611646   0.997   1.137   7.048 -0.4051 -0.2878 -0.3957
   96MOL   Cl5711647   0.846   1.230   7.008 -0.0485  0.5737  0.0887
   96MOL   Cl5811648   1.118   1.245   7.124 -0.1808 -0.3757 -0.0174
   96MOL    C5911649   0.956   1.027   7.150 -0.3878  0.3605 -0.6200
   96MOL    H6011650   0.882   0.967   7.098 -2.8547  3.7806 -1.2238
   96MOL    H6111651   1.034   0.951   7.158 -0.1692  0.5643 -0.7754
   96MOL    C6211652   0.916   1.073   7.297  0.4431  1.1069 -0.7516
   96MOL   Cl6311653   1.059   1.091   7.395 -0.1122  0.2757  0.0497
   96MOL   Cl6411654   0.849   0.923   7.369  0.0187 -0.0647 -0.1926
   96MOL    C6511655   0.810   1.179   7.308 -0.1472 -0.0380 -1.4351
   96MOL    H6611656   0.856   1.268   7.266  1.9107  0.2435  1.2833
   96MOL    H6711657   0.732   1.149   7.238 -0.1757  1.2374 -1.9632
   96MOL    C6811658   0.740   1.229   7.444 -0.5260 -0.3164  0.3206
   96MOL   Cl6911659   0.849   1.287   7.566 -0.5816  0.0072  0.1658
   96MOL   Cl7011660   0.650   1.095   7.523 -0.1809 -0.0354 -0.3678
   96MOL    C7111661   0.636   1.338   7.426 -1.0462  0.1003 -0.1337
   96MOL    H7211662   0.551   1.297   7.371  0.2939 -0.4289 -1.8375
   96MOL    H7311663   0.593   1.352   7.526  0.7334  0.9784  0.5226
   96MOL    C7411664   0.663   1.477   7.361  0.3114  0.4115 -0.1694
   96MOL   Cl7511665   0.681   1.461   7.178  0.2542  0.1615  0.1236
   96MOL   Cl7611666   0.818   1.545   7.409 -0.2301 -0.0993  0.0280
   96MOL    C7711667   0.541   1.577   7.393 -0.3531 -0.2076 -0.1927
   96MOL    H7811668   0.526   1.644   7.309 -1.6591  1.3088  1.2357
   96MOL    H7911669   0.459   1.506   7.401  0.3335 -1.1167 -1.0308
   96MOL    C8011670   0.546   1.674   7.515 -0.8506  0.7533 -0.2271
   96MOL   Cl8111671   0.659   1.815   7.490  0.2352 -0.0124  0.2747
   96MOL   Cl8211672   0.596   1.586   7.659 -0.4259 -0.1012  0.1204
   96MOL    C8311673   0.395   1.715   7.527  0.2734 -0.0320  0.0698
   96MOL    H8411674   0.356   1.742   7.429  0.8282 -0.6896 -0.3322
   96MOL    H8511675   0.338   1.627   7.556  1.2432 -0.4864  0.6373
   96MOL    C8611676   0.342   1.815   7.632  0.0561 -0.4246 -0.3648
   96MOL   Cl8711677   0.169   1.805   7.605 -0.4115 -0.5014 -0.1646
   96MOL   Cl8811678   0.401   1.975   7.581 -0.1798  0.1065  0.0424
   96MOL    C8911679   0.374   1.777   7.782 -0.4072 -0.6825  0.3314
   96MOL    H9011680   0.366   1.668   7.781  0.1441 -0.7305 -1.3139
   96MOL    H9111681   0.480   1.803   7.787 -0.6321  0.3063  0.0978
   96MOL    C9211682   0.313   1.839   7.905 -0.2350 -0.1586 -0.8833
   96MOL   Cl9311683   0.138   1.803   7.914 -0.2360 -0.0218  0.1962
   96MOL   Cl9411684   0.313   2.019   7.909  0.0152  0.0795  0.7059
   96MOL    C9511685   0.384   1.783   8.037  0.0248  0.1282 -0.1119
   96MOL    H9611686   0.329   1.835   8.115 -0.7685 -0.2603 -0.4053
   96MOL    H9711687   0.360   1.677   8.030 -0.3191  0.2438 -0.7327
   96MOL    C9811688   0.540   1.778   8.067 -0.3379  0.6563 -0.1479
   96MOL   Cl9911689   0.617   1.921   7.997 -0.5307 -0.1759 -0.0391
   96MOL  Cl10011690   0.617   1.637   7.988  0.2969 -0.0777 -0.4675
   96MOL   C10111691   0.581   1.786   8.224 -0.3877  0.1125  0.2833
   96MOL   H10211692   0.689   1.801   8.233 -0.0537 -1.3800 -0.9625
   96MOL   H10311693   0.542   1.875   8.271 -1.6850  0.7401 -1.9165
   96MOL   C10411694   0.540   1.675   8.330  0.6465  0.2030  0.5388
   96MOL  Cl10511695   0.592   1.741   8.490  0.2645  0.3331  0.1546
   96MOL  Cl10611696   0.639   1.541   8.286  0.0719  0.1089 -0.0416
   96MOL   C10711697   0.400   1.615   8.342  0.0974 -0.0422  0.1697
   96MOL   H10811698   0.374   1.591   8.239  2.9292  0.6810 -0.7567
   96MOL   H10911699   0.402   1.518   8.392  2.2127 -0.4674 -0.6943
   96MOL   C11011700   0.274   1.695   8.403  0.1472  0.2135 -0.3327
   96MOL  Cl11111701   0.125   1.664   8.318 -0.3259 -0.0895 -0.1729
   96MOL  Cl11211702   0.297   1.871   8.396  0.1659 -0.1234  0.0202
   96MOL   C11311703   0.241   1.655   8.553 -0.2703 -0.3476 -0.9246
   96MOL   H11411704   0.303   1.713   8.622 -1.9346  0.0923  0.2255
   96MOL   H11511705   0.141   1.693   8.575  0.3282  1.2922 -0.9844
   96MOL   C11611706   0.243   1.506   8.602  0.3645 -0.2419  0.2838
   96MOL  Cl11711707   0.407   1.471   8.654  0.2937 -0.3681 -0.0175
   96MOL  Cl11811708   0.199   1.380   8.479  0.0526  0.0279 -0.0944
   96MOL   C11911709   0.148   1.492   8.725 -0.2342 -0.1308  0.2422
   96MOL   H12011710   0.041   1.492   8.703 -0.2765  0.2879  0.4361
   96MOL   H12111711   0.168   1.399   8.777 -2.3593  0.8389  2.9517
   96MOL   H12211712   0.168   1.571   8.799  0.2528 -0.2653  0.2569
   97MOL     C111713   0.213   1.052   4.005 -0.5349  0.2297 -0.2244
   97MOL    Cl211714   0.272   0.953   4.139  0.0466  0.2343  0.3835
   97MOL    Cl311715   0.151   1.210   4.052  0.1546  0.1710 -0.1050
   97MOL     C411716   0.322   1.068   3.896  0.1106 -0.2109 -0.0202
   97MOL     H511717   0.325   1.171   3.859  3.4369  0.0840  0.8340
   97MOL     H611718   0.418   1.059   3.948 -0.0218 -1.8418 -0.0430
   97MOL     H711719   0.132   0.993   3.962  0.5981 -2.5108  1.2721
   97MOL     C811720   0.312   0.980   3.768  1.1798  0.3295 -0.4152
   97MOL    Cl911721   0.150   1.006   3.705 -0.1705 -0.1206 -0.0503
   97MOL   Cl1011722   0.319   0.811   3.816 -0.5861 -0.2082 -0.5713
   97MOL    C1111723   0.409   1.022   3.655  0.0680 -0.6251  0.6250
   97MOL    H1211724   0.374   0.965   3.569 -0.2525  0.1066  0.2593
   97MOL    H1311725   0.402   1.128   3.627  0.0153 -1.1224 -1.3167
   97MOL    C1411726   0.558   1.004   3.646  0.7928  0.0242 -0.0356
   97MOL   Cl1511727   0.630   1.097   3.778 -0.1934  0.1375 -0.0335
   97MOL   Cl1611728   0.619   1.071   3.492  0.1282  0.0411 -0.0246
   97MOL    C1711729   0.604   0.851   3.665  0.4046  0.1463 -0.0815
   97MOL    H1811730   0.613   0.828   3.772 -0.1795 -2.9125 -0.6406
   97MOL    H1911731   0.527   0.779   3.636  1.0448 -0.0419 -1.3365
   97MOL    C2011732   0.741   0.810   3.598  0.0165 -0.0252 -0.8509
   97MOL   Cl2111733   0.716   0.792   3.418 -0.1508  0.0716 -0.0225
   97MOL   Cl2211734   0.781   0.649   3.664  0.1746  0.5511 -0.3589
   97MOL    C2311735   0.865   0.898   3.627 -0.2186  0.0359 -0.5202
   97MOL    H2411736   0.840   1.003   3.609  0.3015  0.1826 -0.3864
   97MOL    H2511737   0.881   0.891   3.734  0.6408 -0.6215 -0.6940
   97MOL    C2611738   1.000   0.879   3.553  0.0939  0.4129 -0.0082
   97MOL   Cl2711739   0.993   0.953   3.395 -0.2094  0.0037  0.1981
   97MOL   Cl2811740   1.053   0.706   3.530 -0.0933 -0.0240 -0.0958
   97MOL    C2911741   1.115   0.938   3.635  0.3412 -0.1024 -0.2308
   97MOL    H3011742   1.127   0.880   3.727  0.1674  1.6902  0.9492
   97MOL    H3111743   1.208   0.926   3.579  0.5425  0.7882 -0.0978
   97MOL    C3211744   1.118   1.077   3.698  0.1794  0.2159 -0.7346
   97MOL   Cl3311745   1.285   1.072   3.775  0.1687 -0.0420 -0.3594
   97MOL   Cl3411746   1.002   1.104   3.830 -0.0795 -0.0649  0.1689
   97MOL    C3511747   1.096   1.192   3.595 -0.5786 -0.4447 -0.4605
   97MOL    H3611748   1.137   1.168   3.497  0.2629  0.5492 -0.3576
   97MOL    H3711749   0.987   1.192   3.581 -0.5936 -2.2763 -0.5402
   97MOL    C3811750   1.145   1.337   3.620  0.0207 -0.7766 -0.4766
   97MOL   Cl3911751   1.325   1.345   3.623 -0.5769 -0.3460  0.0533
   97MOL   Cl4011752   1.086   1.384   3.777 -0.2246 -0.2439  0.1155
   97MOL    C4111753   1.092   1.436   3.514  0.1556 -0.0249  0.0003
   97MOL    H4211754   1.117   1.537   3.544  0.3840 -1.1010  3.6590
   97MOL    H4311755   1.157   1.421   3.427  0.7423  0.9762  0.2552
   97MOL    C4411756   0.949   1.434   3.449  0.1380  0.3824  0.2992
   97MOL   Cl4511757   0.910   1.290   3.348  0.1854 -0.0905  0.0164
   97MOL   Cl4611758   0.951   1.567   3.332  0.3754 -0.2353 -0.1511
   97MOL    C4711759   0.842   1.448   3.560  0.0920 -0.0288 -0.0518
   97MOL    H4811760   0.846   1.347   3.601  1.3566  0.9804  2.4016
   97MOL    H4911761   0.891   1.510   3.635 -1.5003  1.0296  0.1366
   97MOL    C5011762   0.701   1.511   3.547  0.3183  0.2764  0.2906
   97MOL   Cl5111763   0.720   1.688   3.568  0.2783 -0.0242  0.3446
   97MOL   Cl5211764   0.609   1.463   3.689 -0.3242 -0.0240  0.1224
   97MOL    C5311765   0.627   1.481   3.412 -0.5566  0.7251  0.4413
   97MOL    H5411766   0.667   1.534   3.325  0.4631 -1.0477 -0.2083
   97MOL    H5511767   0.651   1.376   3.392 -2.2512  0.5901 -1.0577
   97MOL    C5611768   0.471   1.493   3.398 -0.0453  0.4415 -0.3070
   97MOL   Cl5711769   0.392   1.365   3.496  0.0460  0.1654 -0.0570
   97MOL   Cl5811770   0.441   1.447   3.229 -0.2611  0.1129  0.0007
   97MOL    C5911771   0.414   1.637   3.435 -0.6075 -0.0993  0.0172
   97MOL    H6011772   0.307   1.622   3.443 -0.6743  0.0698 -0.5463
   97MOL    H6111773   0.444   1.662   3.536  1.7324 -0.8258 -0.4661
   97MOL    C6211774   0.432   1.762   3.340  0.2574 -0.3446  0.0500
   97MOL   Cl6311775   0.318   1.737   3.207 -0.0057  0.1458 -0.0546
   97MOL   Cl6411776   0.594   1.782   3.265 -0.0402 -0.0227  0.4003
   97MOL    C6511777   0.402   1.881   3.436  0.2761  0.2494 -0.2940
   97MOL    H6611778   0.352   1.858   3.529  0.4954 -0.5894 -0.3845
   97MOL    H6711779   0.499   1.908   3.478 -0.9357 -0.2279  2.9099
   97MOL    C6811780   0.337   2.017   3.390  0.4646 -0.7073  0.9798
   97MOL   Cl6911781   0.410   2.070   3.230  0.1684  0.1539  0.1785
   97MOL   Cl7011782   0.392   2.138   3.511 -0.2402  0.0773  0.0784
   97MOL    C7111783   0.179   2.014   3.390 -0.2382 -0.1296 -0.7599
   97MOL    H7211784   0.160   1.913   3.352  2.5676 -0.4444 -1.4877
   97MOL    H7311785   0.148   2.004   3.494 -0.2385 -0.5160 -0.7946
   97MOL    C7411786   0.093   2.112   3.313  0.2002 -0.7310 -0.7284
   97MOL   Cl7511787   9.104   2.088   3.367  0.1303  0.1794 -0.2237
   97MOL   Cl7611788   0.094   2.076   3.139  0.0413  0.2372  0.1641
   97MOL    C7711789   0.131   2.267   3.343 -0.1370  0.3192 -0.5040
   97MOL    H7811790   0.086   2.300   3.437 -1.4196  0.7661 -1.2653
   97MOL    H7911791   0.238   2.288   3.343 -0.1156  0.2409 -1.5375
   97MOL    C8011792   0.078   2.378   3.248  0.0242  0.0857 -0.4308
   97MOL   Cl8111793   0.177   2.369   3.100  0.3369  0.0377  0.1781
   97MOL   Cl8211794   0.123   2.525   3.330  0.2308  0.2830  0.2647
   97MOL    C8311795   9.107   2.365   3.208 -0.7275  0.1456 -0.3422
   97MOL    H8411796   9.091   2.264   3.170 -2.8700  0.5247 -0.5415
   97MOL    H8511797   9.046   2.363   3.298  0.5476 -3.8525  0.5495
   97MOL    C8611798   9.041   2.468   3.109 -0.4766  0.4270 -0.1470
   97MOL   Cl8711799   8.864   2.448   3.107  0.2428 -0.3493 -0.2222
   97MOL   Cl8811800   9.088   2.434   2.940 -0.0492 -0.6828  0.3106
   97MOL    C8911801   9.081   2.622   3.147  0.7561 -0.1482  0.4691
   97MOL    H9011802   9.068   2.641   3.253 -1.3695 -0.1438  0.2349
   97MOL    H9111803   0.007   2.635   3.125  0.8197  0.4549  1.1348
   97MOL    C9211804   9.019   2.751   3.090  0.0607 -0.2971 -0.0306
   97MOL   Cl9311805   9.106   2.887   3.173  0.1718  0.1081 -0.1387
   97MOL   Cl9411806   8.845   2.771   3.134  0.1307  0.0071  0.0934
   97MOL    C9511807   9.034   2.768   2.937 -0.2273 -0.0404  0.1184
   97MOL    H9611808   9.139   2.785   2.914  0.5071 -0.2158  3.0865
   97MOL    H9711809   9.015   2.673   2.889  0.0353 -0.4439  0.8054
   97MOL    C9811810   8.957   2.871   2.857 -0.0676 -0.1261  0.2379
   97MOL   Cl9911811   8.786   2.828   2.837 -0.0287  0.0600 -0.2713
   97MOL  Cl10011812   9.030   2.874   2.691 -0.0463 -0.2793  0.5447
   97MOL   C10111813   8.988   3.013   2.913  0.6109 -0.1349  0.4688
   97MOL   H10211814   8.938   3.012   3.010 -0.1547 -0.3559  0.0788
   97MOL   H10311815   9.096   3.015   2.927  0.5047 -0.0646  1.2984
   97MOL   C10411816   8.957   3.150   2.855  0.2615  0.3238 -0.2357
   97MOL  Cl10511817   9.069   3.190   2.732 -0.3082 -0.0989  0.1599
   97MOL  Cl10611818   8.972   3.271   2.991 -0.1227 -0.3707  0.0754
   97MOL   C10711819   8.812   3.152   2.792  0.9561 -0.8075 -0.2361
   97MOL   H10811820   8.812   3.083   2.708  0.7945 -0.2260 -0.7212
   97MOL   H10911821   8.747   3.110   2.869  2.4675 -0.3268  1.3310
   97MOL   C11011822   8.731   3.284   2.742 -1.0025  0.9033 -0.3506
   97MOL  Cl11111823   8.572   3.232   2.684  0.2885 -0.3918  0.0229
   97MOL  Cl11211824   8.824   3.359   2.606 -0.1913  0.0662 -0.1031
   97MOL   C11311825   8.708   3.391   2.860 -0.5570 -0.9215 -0.0292
   97MOL   H11411826   8.689   3.353   2.960  1.9043 -0.2886  0.6984
   97MOL   H11511827   8.799   3.448   2.881 -0.0721 -1.1062 -1.5481
   97MOL   C11611828   8.607   3.508   2.842 -0.4831 -0.0826  0.0903
   97MOL  Cl11711829   8.619   3.607   2.989  0.2592 -0.0532  0.0962
   97MOL  Cl11811830   8.442   3.453   2.840  0.2048 -0.1935  0.0534
   97MOL   C11911831   8.637   3.586   2.711 -0.0258 -0.2027 -0.6529
   97MOL   H12011832   8.742   3.604   2.688  0.2323 -2.1235 -1.0814
   97MOL   H12111833   8.595   3.531   2.626 -1.5523 -1.6881  1.0178
   97MOL   H12211834   8.580   3.678   2.708  0.0605 -0.0824  0.9604
   98MOL     C111835   3.637   5.138   2.572 -0.0317  0.0571  0.2301
   98MOL    Cl211836   3.812   5.172   2.541 -0.5667 -0.5219  0.0497
   98MOL    Cl311837   3.567   5.238   2.705  0.2787  0.1358 -0.2709
   98MOL     C411838   3.555   5.168   2.446 -0.1401 -0.0259  1.1209
   98MOL     H511839   3.448   5.185   2.458 -0.7588 -1.9380 -1.2521
   98MOL     H611840   3.596   5.260   2.406 -3.1745  0.6406 -0.6710
   98MOL     H711841   3.626   5.033   2.600 -2.1239  0.4769  1.0407
   98MOL     C811842   3.568   5.065   2.330  0.1392 -0.2296  0.3285
   98MOL    Cl911843   3.725   5.065   2.247  0.3623 -0.0311 -0.2577
   98MOL   Cl1011844   3.462   5.138   2.202  0.1177 -0.2181 -0.2204
   98MOL    C1111845   3.527   4.916   2.358 -0.3378  0.2342  0.4371
   98MOL    H1211846   3.527   4.863   2.263  1.6014 -1.0088  1.0927
   98MOL    H1311847   3.595   4.877   2.434 -1.2816 -1.7063  0.3092
   98MOL    C1411848   3.393   4.881   2.422  0.3988 -0.2200  0.1166
   98MOL   Cl1511849   3.261   4.909   2.309  0.1288 -0.1951 -0.1449
   98MOL   Cl1611850   3.351   4.976   2.566 -0.2833 -0.0430  0.2402
   98MOL    C1711851   3.377   4.736   2.464  0.1276 -0.3107  0.0618
   98MOL    H1811852   3.279   4.750   2.510 -1.9058 -0.0907 -4.1078
   98MOL    H1911853   3.357   4.683   2.371  1.1430 -1.3859  0.4533
   98MOL    C2011854   3.480   4.657   2.557  0.7141  0.1585  0.3203
   98MOL   Cl2111855   3.540   4.757   2.693 -0.0598  0.0769 -0.2339
   98MOL   Cl2211856   3.618   4.594   2.454 -0.3341  0.0940  0.0917
   98MOL    C2311857   3.404   4.535   2.618 -0.0048 -0.7921  0.3049
   98MOL    H2411858   3.370   4.573   2.714 -1.7146  2.1940 -1.4045
   98MOL    H2511859   3.314   4.513   2.561  1.5847 -0.2839 -2.5009
   98MOL    C2611860   3.478   4.393   2.636 -0.4283 -0.7114  0.0072
   98MOL   Cl2711861   3.493   4.301   2.479 -0.4079  0.0378 -0.5146
   98MOL   Cl2811862   3.343   4.312   2.726 -0.5356  0.1983  0.3667
   98MOL    C2911863   3.614   4.405   2.715 -0.3438  0.1646 -0.4803
   98MOL    H3011864   3.684   4.467   2.660 -1.4182  1.7384 -0.1209
   98MOL    H3111865   3.598   4.460   2.808  2.0545  0.5438 -0.2665
   98MOL    C3211866   3.693   4.276   2.751 -0.4978 -0.1142  0.2528
   98MOL   Cl3311867   3.776   4.218   2.604 -0.0862 -0.1772  0.1773
   98MOL   Cl3411868   3.583   4.152   2.816  0.7288 -0.5287  0.1172
   98MOL    C3511869   3.800   4.305   2.863 -0.2697  0.6790  0.5139
   98MOL    H3611870   3.744   4.334   2.952 -0.1495  0.0229  0.8014
   98MOL    H3711871   3.839   4.206   2.885 -0.6429  0.2346 -0.7455
   98MOL    C3811872   3.913   4.411   2.851  0.2671 -0.1630 -0.3474
   98MOL   Cl3911873   3.843   4.573   2.858  0.1203 -0.2309 -0.4562
   98MOL   Cl4011874   4.015   4.404   2.695 -0.2489  0.4339 -0.3873
   98MOL    C4111875   3.998   4.410   2.974 -0.5373 -0.5891 -0.6611
   98MOL    H4211876   4.090   4.466   2.962  0.1284 -0.6356  3.4096
   98MOL    H4311877   3.950   4.472   3.050  1.1662  0.4838 -0.4458
   98MOL    C4411878   4.041   4.275   3.042 -0.8334 -0.2071  0.5022
   98MOL   Cl4511879   3.907   4.206   3.134 -0.1469 -0.3142  0.0426
   98MOL   Cl4611880   4.148   4.338   3.173  0.0260  0.1025  0.1186
   98MOL    C4711881   4.114   4.175   2.946 -0.2500  0.3079  0.0282
   98MOL    H4811882   4.067   4.182   2.848  0.2167  0.8705 -0.1609
   98MOL    H4911883   4.217   4.211   2.945 -0.3491  0.8484  3.1967
   98MOL    C5011884   4.123   4.025   2.989  0.4119  0.0208 -0.4110
   98MOL   Cl5111885   3.962   3.942   2.978  0.0462 -0.1563  0.4151
   98MOL   Cl5211886   4.179   4.009   3.162 -0.3329 -0.3944 -0.0585
   98MOL    C5311887   4.222   3.947   2.906 -0.0173 -0.8171 -0.5745
   98MOL    H5411888   4.319   3.960   2.954 -0.9199  1.0536  0.8179
   98MOL    H5511889   4.191   3.849   2.944  2.3307 -0.5281  2.3021
   98MOL    C5611890   4.238   3.953   2.753 -0.0242 -0.3225 -1.2163
   98MOL   Cl5711891   4.311   4.108   2.706 -0.0249 -0.1393  0.0569
   98MOL   Cl5811892   4.083   3.933   2.663 -0.1206  0.4525 -0.2755
   98MOL    C5911893   4.342   3.840   2.709 -0.0976 -0.8597  0.2907
   98MOL    H6011894   4.430   3.867   2.768  0.8844 -0.9121 -1.1324
   98MOL    H6111895   4.302   3.742   2.737 -0.6976 -0.4028  1.0490
   98MOL    C6211896   4.382   3.817   2.565 -0.5112 -0.0962 -0.5257
   98MOL   Cl6311897   4.515   3.706   2.583  0.3972  0.5162 -0.1438
   98MOL   Cl6411898   4.462   3.952   2.487  0.0973  0.1854  0.1164
   98MOL    C6511899   4.270   3.760   2.469  0.5391  0.6039  0.0810
   98MOL    H6611900   4.191   3.708   2.522 -0.9478  0.4186 -2.2384
   98MOL    H6711901   4.209   3.845   2.438 -1.2033 -0.8513 -0.5927
   98MOL    C6811902   4.297   3.683   2.337 -0.0789 -0.6152 -0.7479
   98MOL   Cl6911903   4.427   3.768   2.242  0.3541 -0.0216 -0.2300
   98MOL   Cl7011904   4.139   3.686   2.254 -0.2744  0.3702 -0.1777
   98MOL    C7111905   4.342   3.538   2.359 -0.5245 -0.1559 -0.3631
   98MOL    H7211906   4.442   3.542   2.403 -0.2659  2.5442 -1.1523
   98MOL    H7311907   4.272   3.492   2.430 -0.4839 -2.8958 -2.0220
   98MOL    C7411908   4.346   3.428   2.241  0.5118 -0.0415  0.1477
   98MOL   Cl7511909   4.177   3.379   2.219 -0.0030 -0.3467 -0.1013
   98MOL   Cl7611910   4.444   3.285   2.296  0.2466  0.2683 -0.4639
   98MOL    C7711911   4.400   3.487   2.107 -0.6572  0.2316  0.0986
   98MOL    H7811912   4.363   3.586   2.081  0.1935  0.9956  1.7082
   98MOL    H7911913   4.502   3.518   2.127 -0.8719  0.6847  0.4900
   98MOL    C8011914   4.402   3.397   1.974  0.5868 -0.2588  0.5328
   98MOL   Cl8111915   4.502   3.255   2.000  0.4237 -0.1732 -0.1695
   98MOL   Cl8211916   4.499   3.493   1.852 -0.0545  0.3579  0.4310
   98MOL    C8311917   4.268   3.358   1.906 -0.0383 -0.5710 -0.7489
   98MOL    H8411918   4.298   3.294   1.824 -1.8336 -1.2970 -0.8650
   98MOL    H8511919   4.218   3.285   1.969 -1.1330 -1.9560 -3.1814
   98MOL    C8611920   4.160   3.443   1.838  0.3063 -0.2939  0.7701
   98MOL   Cl8711921   4.224   3.525   1.692 -0.0933  0.2092 -0.1438
   98MOL   Cl8811922   4.115   3.580   1.947  0.1316  0.2469 -0.0440
   98MOL    C8911923   4.030   3.373   1.789 -0.3836  0.1647 -0.3174
   98MOL    H9011924   3.973   3.354   1.880 -2.1692  0.7576 -1.3067
   98MOL    H9111925   3.980   3.452   1.734  0.5728 -1.0582 -3.0266
   98MOL    C9211926   4.034   3.235   1.729 -0.7115  0.1833  0.5991
   98MOL   Cl9311927   4.131   3.238   1.582 -0.2760 -0.1486  0.1648
   98MOL   Cl9411928   3.867   3.201   1.677  0.0081 -0.4687 -0.2224
   98MOL    C9511929   4.070   3.117   1.825  0.3773  0.1589 -0.2010
   98MOL    H9611930   4.178   3.111   1.825  0.2729 -2.1839  1.0763
   98MOL    H9711931   4.045   3.154   1.925  0.3231 -3.5642  1.2351
   98MOL    C9811932   4.030   2.965   1.814  0.4178  0.2240  0.2385
   98MOL   Cl9911933   4.060   2.910   1.642  0.4163 -0.3476 -0.1060
   98MOL  Cl10011934   3.855   2.943   1.845  0.2749 -0.1179  0.0437
   98MOL   C10111935   4.104   2.873   1.914  0.2922 -0.1335  0.5756
   98MOL   H10211936   4.068   2.771   1.902  0.1394 -0.2920  2.1975
   98MOL   H10311937   4.202   2.862   1.867 -0.7556 -1.2385 -1.3734
   98MOL   C10411938   4.107   2.904   2.070 -0.2470 -0.0097 -0.2046
   98MOL  Cl10511939   4.217   3.045   2.109  0.1425  0.4307 -0.0183
   98MOL  Cl10611940   4.189   2.750   2.135  0.0341 -0.3242 -0.1499
   98MOL   C10711941   3.975   2.913   2.138  0.7617  0.1635 -0.4380
   98MOL   H10811942   3.924   3.000   2.097  1.4021 -0.5988 -2.9143
   98MOL   H10911943   3.921   2.824   2.105 -0.7343  0.8556  0.1139
   98MOL   C11011944   3.959   2.933   2.295 -0.1559 -0.3081 -0.5192
   98MOL  Cl11111945   3.784   2.899   2.312  0.0829 -0.3106  0.4091
   98MOL  Cl11211946   3.980   3.105   2.334  0.5935  0.3626  0.0573
   98MOL   C11311947   4.032   2.852   2.410 -0.1443  0.3349 -0.0519
   98MOL   H11411948   4.140   2.842   2.398  0.3652  2.1149  2.5752
   98MOL   H11511949   4.025   2.906   2.504  1.3345  2.0126 -0.8777
   98MOL   C11611950   3.990   2.707   2.439  0.7645 -0.1192 -0.3885
   98MOL  Cl11711951   3.855   2.713   2.558 -0.0036 -0.5332 -0.8718
   98MOL  Cl11811952   4.120   2.616   2.530 -0.5344 -0.3636 -0.0022
   98MOL   C11911953   3.951   2.616   2.314  0.9368  0.0565  0.6755
   98MOL   H12011954   3.903   2.522   2.341 -0.8095 -0.9103 -5.2211
   98MOL   H12111955   3.886   2.661   2.239  0.7664 -0.9344  0.2270
   98MOL   H12211956   4.048   2.590   2.270  0.1904  0.4765 -1.2492
   99MOL     C111957   6.131   8.365   1.208 -0.1834  0.0829 -0.3036
   99MOL    Cl211958   6.257   8.305   1.100 -0.0594 -0.0763 -0.0455
   99MOL    Cl311959   6.107   8.541   1.193  0.5931 -0.5606 -0.0058
   99MOL     C411960   5.998   8.288   1.173 -0.3994 -0.1651  0.1684
   99MOL     H511961   5.970   8.315   1.072  0.4297  0.0269 -0.0136
   99MOL     H611962   6.017   8.184   1.146 -0.3354 -0.3203  0.7926
   99MOL     H711963   6.155   8.344   1.312  0.6027  0.1693 -0.4587
   99MOL     C811964   5.879   8.301   1.275  0.1107  0.1463  0.0950
   99MOL    Cl911965   5.852   8.471   1.320  0.6200  0.3032 -0.1127
   99MOL   Cl1011966   5.928   8.203   1.420  0.4386 -0.1013  0.2858
   99MOL    C1111967   5.757   8.218   1.238  0.0903 -0.5402  0.1472
   99MOL    H1211968   5.783   8.124   1.188  0.9665  0.1460 -0.7250
   99MOL    H1311969   5.701   8.181   1.324  1.9801 -2.4900  0.5807
   99MOL    C1411970   5.649   8.278   1.142  0.5847  0.0107  0.3121
   99MOL   Cl1511971   5.544   8.142   1.084 -0.0275 -0.5068  0.3295
   99MOL   Cl1611972   5.731   8.342   1.006 -0.1452  0.2963  0.2634
   99MOL    C1711973   5.550   8.386   1.209 -0.7999 -0.0902 -0.0982
   99MOL    H1811974   5.608   8.472   1.243  0.9604 -1.0319 -0.7202
   99MOL    H1911975   5.485   8.428   1.132 -2.7150 -2.0034  0.4148
   99MOL    C2011976   5.456   8.369   1.340  0.3558 -0.1086 -0.8993
   99MOL   Cl2111977   5.373   8.525   1.345  0.2183  0.2463  0.0889
   99MOL   Cl2211978   5.556   8.344   1.480 -0.2902 -0.2816  0.4429
   99MOL    C2311979   5.346   8.255   1.325  0.0096 -0.3438 -0.0298
   99MOL    H2411980   5.302   8.274   1.228 -0.5499  0.7178  0.4180
   99MOL    H2511981   5.397   8.159   1.317  1.1343  0.3096 -0.8051
   99MOL    C2611982   5.237   8.229   1.433 -0.1780  0.2708 -0.3611
   99MOL   Cl2711983   5.130   8.114   1.349  0.0416 -0.1132 -0.0049
   99MOL   Cl2811984   5.134   8.375   1.463  0.0322  0.5963 -0.1954
   99MOL    C2911985   5.290   8.171   1.570  0.0619 -0.5020  0.6334
   99MOL    H3011986   5.376   8.109   1.546  0.4814 -0.4197  1.8807
   99MOL    H3111987   5.326   8.251   1.635 -0.3549 -1.0359  1.5391
   99MOL    C3211988   5.205   8.088   1.669  0.4682  0.8003 -0.0229
   99MOL   Cl3311989   5.062   8.171   1.735 -0.1183  0.1618 -0.1694
   99MOL   Cl3411990   5.318   8.057   1.810  0.2072  0.0486 -0.6875
   99MOL    C3511991   5.152   7.952   1.614 -0.6745  0.0877  0.2523
   99MOL    H3611992   5.065   7.978   1.553  0.5786 -0.5383 -1.8618
   99MOL    H3711993   5.221   7.907   1.543  0.2685 -2.0102  2.4400
   99MOL    C3811994   5.099   7.831   1.697  0.5150  0.5044  0.1117
   99MOL   Cl3911995   5.227   7.749   1.794 -0.0121  0.4867 -0.2521
   99MOL   Cl4011996   5.040   7.708   1.580 -0.3068 -0.3769 -0.0376
   99MOL    C4111997   4.989   7.874   1.805  0.3811  0.1589 -0.4046
   99MOL    H4211998   5.027   7.951   1.872  2.5854 -0.0842 -1.3207
   99MOL    H4311999   4.921   7.937   1.749  0.1201  1.9761  1.8709
   99MOL    C4412000   4.887   7.773   1.872 -1.1549  0.3017 -0.5311
   99MOL   Cl4512001   4.775   7.713   1.749  0.0765  0.2071 -0.0474
   99MOL   Cl4612002   4.797   7.888   1.980 -0.1943 -0.2081  0.1725
   99MOL    C4712003   4.956   7.655   1.955  0.6580  0.2728  0.3660
   99MOL    H4812004   5.016   7.592   1.889 -0.8676  0.4692 -1.2675
   99MOL    H4912005   5.035   7.705   2.012 -0.6428  2.3018  0.4618
   99MOL    C5012006   4.871   7.573   2.048 -0.5054  0.2211 -0.4464
   99MOL   Cl5112007   4.707   7.544   1.988  0.5466 -0.5630  0.4088
   99MOL   Cl5212008   4.856   7.648   2.206 -0.0131 -0.1904 -0.3791
   99MOL    C5312009   4.932   7.431   2.068 -0.2159  0.6927  0.9462
   99MOL    H5412010   4.862   7.373   2.128 -1.7709  1.1255 -0.4016
   99MOL    H5512011   4.922   7.374   1.976 -1.1313  1.4865  0.5374
   99MOL    C5612012   5.077   7.413   2.125  0.0945 -0.1087  0.6443
   99MOL   Cl5712013   5.201   7.476   2.008 -0.4525  0.0226 -0.0098
   99MOL   Cl5812014   5.103   7.237   2.125 -0.1876  0.0972  0.3755
   99MOL    C5912015   5.101   7.475   2.272  0.6017  0.1866 -0.2223
   99MOL    H6012016   5.089   7.584   2.270 -1.0455 -0.0044 -1.1926
   99MOL    H6112017   5.008   7.457   2.325 -0.3927 -0.1674 -2.0391
   99MOL    C6212018   5.227   7.446   2.360  0.1343 -0.0966  0.0243
   99MOL   Cl6312019   5.377   7.476   2.271  0.0009  0.2202 -0.1450
   99MOL   Cl6412020   5.230   7.270   2.410  0.1161 -0.0208 -0.4124
   99MOL    C6512021   5.208   7.532   2.485 -0.2736 -0.2623 -0.0659
   99MOL    H6612022   5.170   7.629   2.453  0.3452  0.5266  1.5220
   99MOL    H6712023   5.124   7.493   2.542 -0.2496 -1.9456 -1.1668
   99MOL    C6812024   5.320   7.563   2.590  0.6234 -0.4026 -0.0133
   99MOL   Cl6912025   5.235   7.642   2.721  0.3453 -0.0427 -0.2805
   99MOL   Cl7012026   5.440   7.675   2.523  0.3748 -0.0524  0.5593
   99MOL    C7112027   5.390   7.437   2.630  0.8143  0.5710 -0.5731
   99MOL    H7212028   5.329   7.347   2.628  1.1392  0.3658 -1.3197
   99MOL    H7312029   5.461   7.419   2.550  1.7232 -2.0821  0.7658
   99MOL    C7412030   5.474   7.408   2.765 -0.2767 -0.2179 -0.0516
   99MOL   Cl7512031   5.574   7.552   2.795  0.0031  0.1310 -0.0263
   99MOL   Cl7612032   5.573   7.268   2.725 -0.1882  0.1397 -0.5092
   99MOL    C7712033   5.391   7.363   2.886 -0.6463 -0.1146 -0.1396
   99MOL    H7812034   5.302   7.425   2.874 -0.5673 -0.1514 -0.9430
   99MOL    H7912035   5.353   7.261   2.874 -1.2479 -0.3797  3.5525
   99MOL    C8012036   5.445   7.367   3.035  0.6308  0.1796  0.3557
   99MOL   Cl8112037   5.593   7.273   3.049  0.0134 -0.5849 -0.0260
   99MOL   Cl8212038   5.315   7.285   3.126  0.1808  0.3959  0.2473
   99MOL    C8312039   5.473   7.515   3.088  0.7378  0.5418  0.1182
   99MOL    H8412040   5.569   7.549   3.051  1.3031  1.1099  2.1087
   99MOL    H8512041   5.420   7.597   3.039  0.6194 -0.1446 -0.9377
   99MOL    C8612042   5.469   7.556   3.238  0.2788 -0.2761 -0.1703
   99MOL   Cl8712043   5.301   7.549   3.297  0.1157 -0.0412  0.4671
   99MOL   Cl8812044   5.538   7.719   3.244 -0.1173 -0.4323 -0.1261
   99MOL    C8912045   5.544   7.456   3.330  0.2294 -1.1392  1.0150
   99MOL    H9012046   5.494   7.361   3.313  1.3273 -1.8932  1.9382
   99MOL    H9112047   5.641   7.433   3.288  0.0592  1.1951 -0.7455
   99MOL    C9212048   5.544   7.471   3.486  0.0191 -0.2152  0.1714
   99MOL   Cl9312049   5.391   7.415   3.567 -0.1644 -0.1178  0.3199
   99MOL   Cl9412050   5.565   7.644   3.534 -0.2311  0.3815 -0.2299
   99MOL    C9512051   5.654   7.400   3.563 -0.3607  0.4579 -0.7949
   99MOL    H9612052   5.751   7.438   3.531  0.1362  0.9783  1.2558
   99MOL    H9712053   5.628   7.424   3.666 -1.4624 -0.4385 -0.8573
   99MOL    C9812054   5.679   7.246   3.563 -0.9253  0.0522  0.5505
   99MOL   Cl9912055   5.809   7.225   3.687  0.1395  0.3123 -0.3321
   99MOL  Cl10012056   5.740   7.212   3.397  0.3982  0.2840  0.2343
   99MOL   C10112057   5.561   7.150   3.584 -0.5988  1.0238  0.4592
   99MOL   H10212058   5.508   7.197   3.667 -0.1315  0.8712  0.8476
   99MOL   H10312059   5.494   7.168   3.500  0.6716  0.7139 -0.6463
   99MOL   C10412060   5.569   6.991   3.613 -0.2054 -0.5357  0.1962
   99MOL  Cl10512061   5.651   6.965   3.764  0.0196  0.3518 -0.3471
   99MOL  Cl10612062   5.657   6.914   3.490  0.2229 -0.2210  0.3085
   99MOL   C10712063   5.430   6.916   3.616 -0.3192  0.7011 -0.0287
   99MOL   H10812064   5.384   6.950   3.523  2.0573  0.8861 -1.1783
   99MOL   H10912065   5.449   6.810   3.603 -1.0472  0.6100 -0.3857
   99MOL   C11012066   5.330   6.923   3.739  0.5530 -0.0472 -0.1116
   99MOL  Cl11112067   5.289   7.095   3.782  0.3353  0.0669 -0.3784
   99MOL  Cl11212068   5.411   6.843   3.878  0.2156  0.2926 -0.0783
   99MOL   C11312069   5.202   6.846   3.682  1.4547 -0.0328 -0.0051
   99MOL   H11412070   5.151   6.911   3.611 -0.2745 -2.0528 -0.6625
   99MOL   H11512071   5.231   6.758   3.625 -0.8880 -0.1535 -1.0766
   99MOL   C11612072   5.100   6.779   3.775 -0.0913 -0.2902  0.3020
   99MOL  Cl11712073   5.167   6.648   3.876  0.2776 -0.2540  0.4761
   99MOL  Cl11812074   4.960   6.706   3.684 -0.1489  0.2817 -0.1239
   99MOL   C11912075   5.046   6.881   3.880  0.2798  0.4220 -0.1147
   99MOL   H12012076   5.013   6.965   3.818  2.3193  0.8825 -0.6097
   99MOL   H12112077   4.954   6.851   3.929  1.2049  0.5402  1.7551
   99MOL   H12212078   5.112   6.914   3.961 -0.4084 -0.1734  0.7016
  100MOL     C112079   7.964   8.440   0.430  0.0021  0.4142  0.3125
  100MOL    Cl212080   8.062   8.553   0.527  0.2966 -0.3226 -0.2004
  100MOL    Cl312081   7.791   8.479   0.454 -0.0675 -0.0853  0.0907
  100MOL     C412082   7.992   8.465   0.280 -0.4717 -0.0830  0.3032
  100MOL     H512083   7.905   8.451   0.217  0.2206 -1.1291 -0.4439
  100MOL     H612084   8.029   8.568   0.277  0.0364 -0.2064  1.8099
  100MOL     H712085   7.987   8.340   0.466  0.3205  0.1006 -0.7617
  100MOL     C812086   8.107   8.379   0.210 -0.0230  0.3062  0.3702
  100MOL    Cl912087   8.132   8.439   0.041 -0.1501 -0.3208 -0.0305
  100MOL   Cl1012088   8.035   8.215   0.205  0.2885  0.1463  0.2749
  100MOL    C1112089   8.236   8.380   0.294 -0.2000  0.1689 -0.0263
  100MOL    H1212090   8.263   8.486   0.299  3.0346 -0.6428  0.6579
  100MOL    H1312091   8.215   8.354   0.397  0.4441 -2.8563 -0.5970
  100MOL    C1412092   8.365   8.304   0.262 -0.3497 -0.3590  0.0277
  100MOL   Cl1512093   8.446   8.349   0.094  0.0921 -0.1427  0.1438
  100MOL   Cl1612094   8.324   8.131   0.256  0.2145  0.0192 -0.2571
  100MOL    C1712095   8.477   8.311   0.369  0.5847 -0.2975  0.2503
  100MOL    H1812096   8.449   8.244   0.450  0.6154 -0.8904 -0.2235
  100MOL    H1912097   8.563   8.271   0.316  0.8871  1.7383 -0.8738
  100MOL    C2012098   8.533   8.442   0.431 -0.0700 -0.2598 -0.1404
  100MOL   Cl2112099   8.415   8.502   0.560 -0.2003  0.1523  0.2626
  100MOL   Cl2212100   8.539   8.578   0.309  0.0762  0.0809 -0.2094
  100MOL    C2312101   8.676   8.442   0.483  0.2373  0.1700  0.1600
  100MOL    H2412102   8.736   8.388   0.409 -0.6439 -2.5295  1.3621
  100MOL    H2512103   8.712   8.545   0.486  1.5073 -0.2920  1.4686
  100MOL    C2612104   8.722   8.358   0.612  0.6135 -1.1355 -0.4891
  100MOL   Cl2712105   8.889   8.314   0.586 -0.1334 -0.1567  0.3806
  100MOL   Cl2812106   8.636   8.208   0.621 -0.0302 -0.0093  0.0582
  100MOL    C2912107   8.710   8.430   0.749 -0.1381 -0.5890 -0.0497
  100MOL    H3012108   8.603   8.432   0.771  0.1350  0.7393  1.2612
  100MOL    H3112109   8.746   8.371   0.834  1.1857 -0.9541 -0.8507
  100MOL    C3212110   8.755   8.578   0.783  0.3597  0.6804 -0.5795
  100MOL   Cl3312111   8.654   8.694   0.699  0.5752  0.0299 -0.0656
  100MOL   Cl3412112   8.921   8.601   0.733  0.0666  0.4285  0.1399
  100MOL    C3512113   8.752   8.606   0.941  0.6214  0.1497  0.2914
  100MOL    H3612114   8.834   8.550   0.986  2.9044  0.6963 -2.9779
  100MOL    H3712115   8.789   8.709   0.943  2.0806 -0.3156 -1.6032
  100MOL    C3812116   8.622   8.594   1.026  0.4758  0.0502  0.7321
  100MOL   Cl3912117   8.587   8.417   1.044 -0.4107 -0.2638 -0.0139
  100MOL   Cl4012118   8.479   8.658   0.947  0.3109 -0.1662  0.4474
  100MOL    C4112119   8.637   8.648   1.171  0.1590  0.1679  0.6898
  100MOL    H4212120   8.536   8.617   1.198 -0.1968 -0.5069 -1.2699
  100MOL    H4312121   8.683   8.567   1.229  0.2121 -2.7764 -3.2197
  100MOL    C4412122   8.667   8.796   1.203  1.2594  0.2405  0.2350
  100MOL   Cl4512123   8.839   8.825   1.179 -0.4118  0.3854  0.1978
  100MOL   Cl4612124   8.639   8.799   1.381  0.3136  0.0744 -0.1670
  100MOL    C4712125   8.563   8.891   1.122  0.3388 -0.3836  0.5456
  100MOL    H4812126   8.593   8.882   1.018 -0.2239 -1.9922  0.5073
  100MOL    H4912127   8.463   8.849   1.119  0.0083  0.4532 -0.5848
  100MOL    C5012128   8.542   9.038   1.157 -0.6560  0.1553 -0.6006
  100MOL   Cl5112129   8.692   9.130   1.166  0.4667 -0.1217 -0.1809
  100MOL   Cl5212130   8.453   9.060   1.317  0.3698 -0.0367  0.0950
  100MOL    C5312131   8.452   9.126   1.063  0.9490 -0.1918  0.2014
  100MOL    H5412132   8.358   9.070   1.059  0.2196  1.1304 -2.0135
  100MOL    H5512133   8.430   0.038   1.117  0.4018 -0.0143 -0.3124
  100MOL    C5612134   8.479   9.161   0.915 -0.3475  0.8618  0.1453
  100MOL   Cl5712135   8.529   9.022   0.812 -0.5077  0.0015  0.0665
  100MOL   Cl5812136   8.618   0.109   0.912  0.0719  0.4598 -0.4422
  100MOL    C5912137   8.346   0.054   0.869  0.2546 -0.0752 -0.1909
  100MOL    H6012138   8.268   9.161   0.887  0.6600 -0.5237 -0.2266
  100MOL    H6112139   8.338   0.137   0.939 -0.5078  0.4799 -0.9297
  100MOL    C6212140   8.324   0.107   0.728 -0.3976 -0.3781  0.6236
  100MOL   Cl6312141   8.160   0.175   0.738  0.3968 -0.0398 -0.1074
  100MOL   Cl6412142   8.322   9.141   0.620  0.1117 -0.0672 -0.3042
  100MOL    C6512143   8.431   0.213   0.679  0.0470 -0.8338  0.4966
  100MOL    H6612144   8.448   0.270   0.770 -0.8995  1.3993 -0.6937
  100MOL    H6712145   8.523   0.164   0.647  0.9984  1.9355 -1.2781
  100MOL    C6812146   8.398   0.314   0.563 -0.7831 -0.0197  0.2492
  100MOL   Cl6912147   8.277   0.436   0.621  0.0998  0.2799  0.0944
  100MOL   Cl7012148   8.336   0.220   0.425 -0.1339  0.1388  0.0386
  100MOL    C7112149   8.536   0.381   0.536 -0.1444  0.3995 -0.6727
  100MOL    H7212150   8.578   0.408   0.633  1.1025 -4.6101  0.3211
  100MOL    H7312151   8.597   0.301   0.493 -0.7978 -0.8233  0.6364
  100MOL    C7412152   8.550   0.510   0.448 -0.0386  0.1034  0.2570
  100MOL   Cl7512153   8.723   0.531   0.395 -0.0099 -0.0007  0.3555
  100MOL   Cl7612154   8.504   0.641   0.564  0.2435  0.0389 -0.0044
  100MOL    C7712155   8.449   0.514   0.323 -0.1896  0.5540 -0.0017
  100MOL    H7812156   8.473   0.440   0.247 -2.9748  1.3205 -1.6748
  100MOL    H7912157   8.353   0.491   0.368  0.2155  1.5736  1.4123
  100MOL    C8012158   8.431   0.633   0.234  0.3437  0.2689 -0.1045
  100MOL   Cl8112159   8.336   0.571   0.097 -0.0146 -0.0591  0.1239
  100MOL   Cl8212160   8.592   0.673   0.174  0.1521  0.1247  0.0458
  100MOL    C8312161   8.370   0.754   0.309 -0.0331 -0.2834  0.0404
  100MOL    H8412162   8.311   0.719   0.393 -1.9009  0.5072 -0.9095
  100MOL    H8512163   8.461   0.797   0.351 -1.5087  2.9988  0.0435
  100MOL    C8612164   8.301   0.877   0.240 -1.0382  0.4393 -0.1203
  100MOL   Cl8712165   8.275   0.997   0.367 -0.1706  0.2932  0.3637
  100MOL   Cl8812166   8.134   0.820   0.206 -0.0917 -0.3146  0.1592
  100MOL    C8912167   8.376   0.946   0.113  0.4137 -0.0260  0.1687
  100MOL    H9012168   8.478   0.963   0.149  0.1104  0.2201  0.9345
  100MOL    H9112169   8.382   0.879   0.028  0.1522  0.7913 -0.5014
  100MOL    C9212170   8.330   1.080   0.051  0.2484  0.1326  0.5528
  100MOL   Cl9312171   8.434   1.113   9.086  0.0407 -0.2167 -0.1391
  100MOL   Cl9412172   8.373   1.215   0.167  0.1709  0.0067 -0.4087
  100MOL    C9512173   8.182   1.066   9.180  0.0751 -0.4329  0.1806
  100MOL    H9612174   8.174   0.971   9.128 -1.0363  0.0362 -0.5291
  100MOL    H9712175   8.116   1.049   0.085 -0.2098 -0.3003 -0.0129
  100MOL    C9812176   8.123   1.167   9.072  0.0741 -0.1640 -0.2205
  100MOL   Cl9912177   7.946   1.152   9.085 -0.3009  0.0684 -0.2178
  100MOL  Cl10012178   8.172   1.111   8.914  0.0207 -0.0291  0.2588
  100MOL   C10112179   8.170   1.321   9.100  0.5418  0.5132 -1.3915
  100MOL   H10212180   8.173   1.336   0.027 -2.7913  0.3634 -1.2302
  100MOL   H10312181   8.278   1.327   9.083  0.7754 -1.2951 -0.7382
  100MOL   C10412182   8.081   1.442   9.051  0.9122  0.1882 -0.2170
  100MOL  Cl10512183   8.174   1.596   9.089  0.1093 -0.2795 -0.2115
  100MOL  Cl10612184   7.941   1.446   9.170  0.0078  0.1311  0.1445
  100MOL   C10712185   8.036   1.429   8.908  0.1373 -0.7923 -0.1725
  100MOL   H10812186   8.110   1.468   8.839 -0.4412 -0.5844 -0.6842
  100MOL   H10912187   8.024   1.324   8.881  0.2635 -0.5162 -1.3329
  100MOL   C11012188   7.901   1.490   8.852 -0.5088 -0.5003 -0.0669
  100MOL  Cl11112189   7.754   1.411   8.912 -0.0173  0.1938 -0.1730
  100MOL  Cl11212190   7.902   1.484   8.673 -0.0677 -0.2130  0.2164
  100MOL   C11312191   7.895   1.642   8.886 -0.0026  0.8221  0.0065
  100MOL   H11412192   7.867   1.650   8.991 -1.2754 -3.0481  0.0483
  100MOL   H11512193   7.995   1.679   8.864 -0.0275  1.4508  0.8917
  100MOL   C11612194   7.793   1.739   8.816 -0.1255 -0.3818 -0.6007
  100MOL  Cl11712195   7.872   1.808   8.665  0.0270 -0.1106  0.0699
  100MOL  Cl11812196   7.765   1.875   8.927  0.0540 -0.1089 -0.2615
  100MOL   C11912197   7.649   1.678   8.781 -0.2275 -0.0468 -0.1283
  100MOL   H12012198   7.615   1.630   8.873  0.0501  0.5109  0.2687
  100MOL   H12112199   7.585   1.766   8.766 -0.4448 -0.4564 -1.6008
  100MOL   H12212200   7.636   1.606   8.700 -3.5427 -1.1603  1.2965
  101MOL     C112201   8.327   0.338   3.507  0.9753 -0.1042 -0.3885
  101MOL    Cl212202   8.250   0.453   3.394 -0.0663  0.2298  0.2884
  101MOL    Cl312203   8.192   0.274   3.621  0.0401  0.3353  0.4412
  101MOL     C412204   8.407   0.238   3.432  0.4088  0.2019 -0.0689
  101MOL     H512205   8.347   0.190   3.355  0.7833  1.0844 -0.9066
  101MOL     H612206   8.486   0.286   3.374 -1.2737 -0.6608 -3.1433
  101MOL     H712207   8.390   0.390   3.578  0.7723  0.3480 -0.5311
  101MOL     C812208   8.479   0.126   3.514 -0.4588 -0.2554  0.1066
  101MOL    Cl912209   8.372   0.038   3.633 -0.2626  0.1404 -0.0120
  101MOL   Cl1012210   8.587   0.206   3.630  0.1827 -0.0268 -0.2557
  101MOL    C1112211   8.552   0.014   3.438  0.5416  0.4478 -0.4860
  101MOL    H1212212   8.605   9.155   3.525  0.0193  1.5745  0.3535
  101MOL    H1312213   8.476   9.124   3.405  0.5069  0.0744  0.3684
  101MOL    C1412214   8.648   0.054   3.324 -0.8661  0.5960  0.2679
  101MOL   Cl1512215   8.759   0.189   3.366  0.0811  0.3921  0.4122
  101MOL   Cl1612216   8.558   0.113   3.182  0.0545 -0.2150 -0.1448
  101MOL    C1712217   8.735   9.121   3.272  0.1295 -0.1676 -0.5641
  101MOL    H1812218   8.780   9.166   3.183  0.3048  0.5625 -0.1150
  101MOL    H1912219   8.818   9.113   3.342  0.5943  2.0913 -0.8060
  101MOL    C2012220   8.687   8.981   3.233 -0.0204  0.1508  0.0696
  101MOL   Cl2112221   8.546   8.997   3.117  0.0461 -0.2109  0.4413
  101MOL   Cl2212222   8.617   8.899   3.372  0.4071 -0.0169 -0.2858
  101MOL    C2312223   8.792   8.885   3.159 -0.2294  0.4818  0.3525
  101MOL    H2412224   8.753   8.783   3.169  1.4084 -0.3131 -1.0758
  101MOL    H2512225   8.786   8.897   3.051 -3.1651 -1.5410  0.2196
  101MOL    C2612226   8.938   8.882   3.212  0.4403 -0.5471  0.5398
  101MOL   Cl2712227   8.954   8.871   3.385 -0.3687  0.2287 -0.2793
  101MOL   Cl2812228   9.018   9.036   3.164  0.2972 -0.0083 -0.0514
  101MOL    C2912229   9.020   8.759   3.160  0.1937 -0.5798 -0.5459
  101MOL    H3012230   9.114   8.770   3.214 -0.2032  1.4015 -0.2143
  101MOL    H3112231   8.979   8.664   3.193 -0.8261  0.3405  0.8619
  101MOL    C3212232   9.045   8.741   3.001  0.0150  0.0605 -0.9032
  101MOL   Cl3312233   8.898   8.710   2.910  0.0921 -0.0839 -0.1777
  101MOL   Cl3412234   9.141   8.595   3.005  0.4774 -0.2651 -0.0582
  101MOL    C3512235   9.125   8.848   2.930 -0.3323  0.7682 -0.1501
  101MOL    H3612236   9.056   8.931   2.915 -0.1096  1.0107  0.1500
  101MOL    H3712237   0.012   8.893   3.002  0.9382  0.2854 -1.0222
  101MOL    C3812238   0.024   8.827   2.794  0.1036 -0.1849  0.0141
  101MOL   Cl3912239   0.035   8.984   2.722  0.1900 -0.2568  0.4851
  101MOL   Cl4012240   9.111   8.736   2.675  0.1224  0.7665 -0.1444
  101MOL    C4112241   0.157   8.758   2.796  0.8626  0.3166  0.9509
  101MOL    H4212242   0.140   8.651   2.805  0.7560  0.2875  0.3978
  101MOL    H4312243   0.196   8.770   2.695 -0.2454 -2.8961  0.0875
  101MOL    C4412244   0.278   8.793   2.891  0.0987 -0.2370 -0.2767
  101MOL   Cl4512245   0.230   8.793   3.066  0.1658 -0.1499  0.0664
  101MOL   Cl4612246   0.343   8.952   2.856  0.1432  0.1208  0.0678
  101MOL    C4712247   0.387   8.687   2.890 -0.3749  0.3362  0.3085
  101MOL    H4812248   0.460   8.739   2.952  0.0084 -1.9297  1.8303
  101MOL    H4912249   0.344   8.601   2.942 -0.0787  0.7132  1.1732
  101MOL    C5012250   0.455   8.637   2.756 -0.2178  0.1506  0.0962
  101MOL   Cl5112251   0.340   8.514   2.703 -0.2498 -0.1725 -0.1559
  101MOL   Cl5212252   0.610   8.554   2.810  0.5203 -0.0935  0.2961
  101MOL    C5312253   0.487   8.751   2.656 -0.3931  0.1142  0.5796
  101MOL    H5412254   0.387   8.789   2.635  0.0133  1.3761  0.8697
  101MOL    H5512255   0.551   8.821   2.711  0.1637  0.8971 -1.0275
  101MOL    C5612256   0.560   8.723   2.523  0.5307 -0.8130 -0.6469
  101MOL   Cl5712257   0.733   8.678   2.564 -0.3211 -0.2642  0.2735
  101MOL   Cl5812258   0.578   8.882   2.446 -0.0981  0.1694 -0.0135
  101MOL    C5912259   0.478   8.624   2.431  0.2245  0.0915 -0.4754
  101MOL    H6012260   0.490   8.526   2.476 -1.3496 -0.3245 -0.9356
  101MOL    H6112261   0.374   8.656   2.426  0.3885  0.4904 -1.6582
  101MOL    C6212262   0.513   8.598   2.284 -0.2865  0.0151 -0.0680
  101MOL   Cl6312263   0.408   8.467   2.218 -0.0515  0.2737  0.5113
  101MOL   Cl6412264   0.681   8.554   2.281 -0.6184 -0.0452  0.3425
  101MOL    C6512265   0.493   8.722   2.196  0.1106 -0.4042 -0.2364
  101MOL    H6612266   0.419   8.791   2.237 -0.5692 -1.0130 -0.4422
  101MOL    H6712267   0.584   8.782   2.204 -0.1231 -0.3411  2.2658
  101MOL    C6812268   0.465   8.715   2.045  0.0400 -0.6835 -0.7487
  101MOL   Cl6912269   0.547   8.583   1.957 -0.1649 -0.0504  0.0213
  101MOL   Cl7012270   0.542   8.864   1.978  0.4529 -0.1285  0.0971
  101MOL    C7112271   0.325   8.701   1.993 -0.2865  0.2384  0.0745
  101MOL    H7212272   0.330   8.731   1.888 -1.2757  0.4055  0.0725
  101MOL    H7312273   0.302   8.594   1.990 -0.9567  0.3438  1.4230
  101MOL    C7412274   0.206   8.770   2.049 -0.5447 -0.1896  0.6337
  101MOL   Cl7512275   0.095   8.790   1.907 -0.2841  0.1295 -0.1076
  101MOL   Cl7612276   0.241   8.938   2.095  0.7277 -0.2050 -0.1214
  101MOL    C7712277   0.125   8.682   2.148  0.0775 -0.0069 -0.7029
  101MOL    H7812278   0.072   8.608   2.088  1.8164 -1.7153 -0.1814
  101MOL    H7912279   0.197   8.625   2.207 -0.5301 -0.2061 -0.1440
  101MOL    C8012280   0.025   8.750   2.247  0.4350 -0.5567  0.3949
  101MOL   Cl8112281   0.136   8.836   2.359  0.0750  0.1731  0.3572
  101MOL   Cl8212282   9.131   8.628   2.352 -0.1705  0.1622  0.1516
  101MOL    C8312283   9.100   8.846   2.177  0.7425 -0.3671 -0.4063
  101MOL    H8412284   9.063   8.921   2.248 -0.5849 -1.5251  0.1530
  101MOL    H8512285   9.153   8.901   2.100  1.8626  0.7330  1.1107
  101MOL    C8612286   8.962   8.792   2.108  0.0075 -0.4595 -0.1150
  101MOL   Cl8712287   8.846   8.769   2.235  0.2930 -0.3322  0.1166
  101MOL   Cl8812288   8.973   8.639   2.013 -0.1721  0.0988  0.4222
  101MOL    C8912289   8.904   8.889   2.000  0.3756 -0.3790 -0.1057
  101MOL    H9012290   8.970   8.900   1.914  1.5779  0.6525  0.9346
  101MOL    H9112291   8.825   8.830   1.953  0.7223 -0.2059 -0.9123
  101MOL    C9212292   8.835   9.020   2.035 -0.2181 -1.0288  0.7448
  101MOL   Cl9312293   8.940   9.137   2.114  0.1062  0.4749 -0.4769
  101MOL   Cl9412294   8.688   8.998   2.132  0.0223  0.1063  0.1874
  101MOL    C9512295   8.797   9.090   1.905  0.2084 -1.1405  0.1993
  101MOL    H9612296   8.709   9.038   1.867 -2.0773  4.1279 -2.1761
  101MOL    H9712297   8.757   0.006   1.935 -1.4105 -1.8809  0.4610
  101MOL    C9812298   8.890   9.096   1.779  0.5287 -0.2883 -0.0979
  101MOL   Cl9912299   8.885   8.950   1.681  0.0136 -0.3767  0.2207
  101MOL  Cl10012300   9.059   9.137   1.829  0.0568  0.2713 -0.0075
  101MOL   C10112301   8.851   0.041   1.692 -0.0746 -0.3817 -0.0982
  101MOL   H10212302   8.883   0.128   1.750 -0.9832  0.4074 -0.7695
  101MOL   H10312303   8.921   0.032   1.609 -0.7076  1.1110 -0.8059
  101MOL   C10412304   8.709   0.076   1.633  0.4338  0.0363 -1.3107
  101MOL  Cl10512305   8.604   0.135   1.763  0.2059 -0.1398 -0.1637
  101MOL  Cl10612306   8.644   9.114   1.555  0.1373  0.0705 -0.1179
  101MOL   C10712307   8.724   0.185   1.518 -0.0120 -0.4022  0.9966
  101MOL   H10812308   8.783   0.144   1.437 -1.6379 -1.2004  0.1898
  101MOL   H10912309   8.623   0.203   1.481  1.2666  1.0440 -1.9455
  101MOL   C11012310   8.770   0.337   1.537 -0.4818  0.2139  0.0859
  101MOL  Cl11112311   8.939   0.335   1.595 -0.1159 -0.1795  0.0495
  101MOL  Cl11212312   8.672   0.407   1.666  0.1339  0.3467 -0.4427
  101MOL   C11312313   8.748   0.429   1.411 -0.4843 -0.0686  0.1769
  101MOL   H11412314   8.642   0.431   1.386 -0.5393  0.3417  0.4467
  101MOL   H11512315   8.769   0.531   1.443 -1.5100  0.4676 -0.8246
  101MOL   C11612316   8.820   0.407   1.277 -0.0218  0.0130  0.7175
  101MOL  Cl11712317   8.721   0.310   1.162 -0.2054  0.1245 -0.0327
  101MOL  Cl11812318   8.985   0.339   1.296 -0.2772  0.2177 -0.1327
  101MOL   C11912319   8.825   0.536   1.203 -0.0174 -0.1950  0.6553
  101MOL   H12012320   8.724   0.573   1.186  0.7047  1.7967  0.5448
  101MOL   H12112321   8.876   0.612   1.262 -0.3405  0.6585 -0.1434
  101MOL   H12212322   8.869   0.532   1.103 -1.6086 -2.3260  0.0194
  102MOL     C112323   0.219   2.855   0.161  1.0453  0.5326 -0.0442
  102MOL    Cl212324   0.080   2.810   0.261 -0.1714  0.1079 -0.1313
  102MOL    Cl312325   0.298   2.984   0.250 -0.2554  0.0194 -0.4878
  102MOL     C412326   0.312   2.731   0.142 -0.4344 -0.6676 -0.5587
  102MOL     H512327   0.419   2.749   0.155 -0.6037 -0.3286  0.4329
  102MOL     H612328   0.295   2.668   0.230  1.5581 -2.4641 -1.4230
  102MOL     H712329   0.169   2.892   0.072 -0.7305  0.3024  0.8287
  102MOL     C812330   0.280   2.651   0.010 -0.1145  0.3414  0.5102
  102MOL    Cl912331   0.328   2.746   9.046  0.0098 -0.3782  0.3970
  102MOL   Cl1012332   0.103   2.626   9.174 -0.4160  0.0105  0.0229
  102MOL    C1112333   0.351   2.506   0.001 -0.5000 -0.9851  0.7899
  102MOL    H1212334   0.330   2.468   9.082 -0.0675  1.8366 -0.4290
  102MOL    H1312335   0.458   2.529   9.177 -0.4500 -1.6737 -2.0026
  102MOL    C1412336   0.325   2.381   0.089  0.2327  0.4710 -0.0730
  102MOL   Cl1512337   0.316   2.416   0.266 -0.0700  0.0046  0.0682
  102MOL   Cl1612338   0.468   2.271   0.069  0.4226 -0.0964 -0.5691
  102MOL    C1712339   0.194   2.307   0.045  0.0413 -0.3148 -0.5647
  102MOL    H1812340   0.123   2.389   0.054  0.7127  0.3698 -1.4021
  102MOL    H1912341   0.191   2.291   9.117  3.1794  0.8075 -0.8610
  102MOL    C2012342   0.129   2.178   0.117 -0.1054  0.3462  0.1750
  102MOL   Cl2112343   0.267   2.078   0.186 -0.1107  0.3309  0.1838
  102MOL   Cl2212344   0.065   2.066   9.170 -0.4766 -0.0933  0.1897
  102MOL    C2312345   0.016   2.201   0.222  0.4289 -0.2824 -0.4248
  102MOL    H2412346   0.056   2.217   0.322 -1.6057 -2.9375  0.8514
  102MOL    H2512347   9.148   2.291   0.184 -2.6985 -1.2699  1.1039
  102MOL    C2612348   9.084   2.094   0.246 -0.4380 -0.7477  0.7979
  102MOL   Cl2712349   9.162   1.935   0.262  0.0977 -0.2709  0.5294
  102MOL   Cl2812350   8.966   2.082   0.109 -0.2160 -0.0176  0.2306
  102MOL    C2912351   9.019   2.118   0.388 -0.2602  0.2940  0.0540
  102MOL    H3012352   8.944   2.041   0.407 -0.1407  0.2885  0.5051
  102MOL    H3112353   9.093   2.104   0.466  1.3996  1.1475 -1.3127
  102MOL    C3212354   8.956   2.253   0.421 -0.1893 -0.2416 -0.2689
  102MOL   Cl3312355   8.849   2.313   0.288  0.0949  0.1640 -0.1813
  102MOL   Cl3412356   9.080   2.383   0.440  0.0278  0.0722 -0.2268
  102MOL    C3512357   8.867   2.244   0.548  0.1679  0.3141 -0.1921
  102MOL    H3612358   8.831   2.344   0.570  2.1424  1.0127 -0.0229
  102MOL    H3712359   8.776   2.198   0.511  1.2659 -2.1995  0.0876
  102MOL    C3812360   8.923   2.173   0.686 -0.3141  0.3971 -0.7246
  102MOL   Cl3912361   9.076   2.247   0.726 -0.1280 -0.8856  0.0471
  102MOL   Cl4012362   8.948   1.996   0.668 -0.4528  0.1228  0.2286
  102MOL    C4112363   8.817   2.176   0.806  0.3313 -0.8181  0.2245
  102MOL    H4212364   8.744   2.101   0.775 -1.1173  0.5238  0.3025
  102MOL    H4312365   8.865   2.135   0.895  0.7941  2.2696  1.4509
  102MOL    C4412366   8.732   2.300   0.848 -0.0570 -0.0848 -0.2044
  102MOL   Cl4512367   8.614   2.339   0.721  0.5307  0.4670 -0.4030
  102MOL   Cl4612368   8.847   2.432   0.864  0.3866 -0.3283 -0.0697
  102MOL    C4712369   8.649   2.271   0.977  0.0252 -0.5638  0.3297
  102MOL    H4812370   8.565   2.207   0.947 -0.7950  1.1485 -1.1040
  102MOL    H4912371   8.707   2.212   1.049 -0.0958 -1.7738 -0.5474
  102MOL    C5012372   8.583   2.386   1.059  0.2350 -0.0418  0.3310
  102MOL   Cl5112373   8.521   2.520   0.948  0.1034  0.4002 -0.2428
  102MOL   Cl5212374   8.710   2.448   1.160 -0.3166 -0.1697  0.1119
  102MOL    C5312375   8.453   2.353   1.137 -0.0481  0.3087  0.2637
  102MOL    H5412376   8.421   2.436   1.200 -0.4845  0.8487 -0.6626
  102MOL    H5512377   8.377   2.334   1.062  0.8953 -3.3045  0.1237
  102MOL    C5612378   8.431   2.230   1.230 -0.6103  0.9564  0.7250
  102MOL   Cl5712379   8.564   2.227   1.339  0.1630 -0.2061  0.1555
  102MOL   Cl5812380   8.438   2.074   1.148 -0.0630  0.2398 -0.4640
  102MOL    C5912381   8.300   2.240   1.316 -0.1631 -0.2959 -0.3042
  102MOL    H6012382   8.305   2.163   1.394 -2.5346  0.7720  0.9550
  102MOL    H6112383   8.314   2.337   1.364 -0.9622 -0.5779  0.5225
  102MOL    C6212384   8.162   2.250   1.257  0.2721  0.1748 -0.0155
  102MOL   Cl6312385   8.129   2.103   1.154  0.1255  0.6062  0.5504
  102MOL   Cl6412386   8.144   2.399   1.157 -0.2135  0.1250  0.0293
  102MOL    C6512387   8.051   2.237   1.364  0.2190 -0.3035 -0.3438
  102MOL    H6612388   7.963   2.236   1.300 -0.0175  1.4317 -0.0693
  102MOL    H6712389   8.042   2.138   1.408 -0.2778  0.4440  1.2976
  102MOL    C6812390   8.039   2.349   1.475  0.3740  0.0531 -0.1713
  102MOL   Cl6912391   8.055   2.528   1.432  0.3287 -0.1970  0.3950
  102MOL   Cl7012392   8.167   2.314   1.592 -0.0907  0.0473  0.0075
  102MOL    C7112393   7.908   2.344   1.560  0.0816 -0.4834  0.0209
  102MOL    H7212394   7.921   2.260   1.629 -0.4359 -1.7811 -1.4542
  102MOL    H7312395   7.911   2.436   1.620 -1.6395 -0.6213  0.3526
  102MOL    C7412396   7.771   2.326   1.485  0.0099 -0.0006  0.5143
  102MOL   Cl7512397   7.751   2.153   1.448  0.1757 -0.2108  0.0057
  102MOL   Cl7612398   7.777   2.410   1.328 -0.1286  0.1573 -0.0764
  102MOL    C7712399   7.650   2.379   1.576 -0.0844 -0.5663  0.0273
  102MOL    H7812400   7.637   2.308   1.658 -2.2978  0.1051  0.2961
  102MOL    H7912401   7.692   2.462   1.633 -1.3489  0.0116  0.1495
  102MOL    C8012402   7.515   2.425   1.513 -0.3761  0.6985  0.5427
  102MOL   Cl8112403   7.536   2.588   1.461 -0.4159  0.0963 -0.0574
  102MOL   Cl8212404   7.399   2.430   1.647  0.1755  0.0286 -0.4584
  102MOL    C8312405   7.462   2.324   1.407  0.2014 -0.1513  0.0700
  102MOL    H8412406   7.544   2.289   1.344 -1.8810 -3.0725 -1.1191
  102MOL    H8512407   7.432   2.234   1.460  0.7104 -0.7104 -0.5822
  102MOL    C8612408   7.346   2.373   1.311 -0.4309  0.4309  0.1788
  102MOL   Cl8712409   7.429   2.472   1.183 -0.0597 -0.4227 -0.2173
  102MOL   Cl8812410   7.217   2.461   1.377  0.4861  0.3618 -0.0530
  102MOL    C8912411   7.272   2.257   1.229  0.1092 -0.7051 -0.6594
  102MOL    H9012412   7.199   2.208   1.293  1.1979  0.3115  1.4321
  102MOL    H9112413   7.217   2.306   1.149 -0.2000  0.8773  0.5055
  102MOL    C9212414   7.346   2.125   1.180  0.2602  0.3145 -0.7126
  102MOL   Cl9312415   7.223   2.031   1.099  0.0158 -0.0754 -0.2087
  102MOL   Cl9412416   7.401   2.021   1.316 -0.1364 -0.1617  0.5098
  102MOL    C9512417   7.447   2.160   1.072 -0.7432 -0.3886  0.3255
  102MOL    H9612418   7.389   2.192   0.985  3.7513  3.3890 -1.4706
  102MOL    H9712419   7.504   2.246   1.105  1.5924 -2.3355  1.5290
  102MOL    C9812420   7.559   2.056   1.040  0.5096  0.4301  0.0046
  102MOL   Cl9912421   7.495   1.900   1.007 -0.1497 -0.0116  0.4037
  102MOL  Cl10012422   7.682   2.044   1.170 -0.1074 -0.0321  0.0329
  102MOL   C10112423   7.643   2.096   0.914  0.5828 -0.6402 -0.2234
  102MOL   H10212424   7.726   2.025   0.915 -1.0849 -2.6428  1.6182
  102MOL   H10312425   7.576   2.070   0.832 -1.6780  0.0733  1.3697
  102MOL   C10412426   7.701   2.237   0.889 -0.5360  0.4061  0.7409
  102MOL  Cl10512427   7.812   2.291   1.019  0.3832  0.3422 -0.2746
  102MOL  Cl10612428   7.575   2.367   0.886  0.3112 -0.0999  0.1751
  102MOL   C10712429   7.763   2.254   0.750  0.2493 -0.2651  0.9350
  102MOL   H10812430   7.683   2.250   0.676  1.5326 -0.6782 -0.4339
  102MOL   H10912431   7.800   2.357   0.756  0.6928 -0.2083 -2.0788
  102MOL   C11012432   7.876   2.166   0.689  0.1609  0.2185  0.4634
  102MOL  Cl11112433   7.899   2.250   0.532  0.4767 -0.1418  0.4177
  102MOL  Cl11212434   7.816   2.002   0.659 -0.4377 -0.1090  0.0308
  102MOL   C11312435   8.011   2.171   0.768  0.4922  0.1366 -0.2788
  102MOL   H11412436   8.041   2.271   0.800 -0.5016  0.1984  0.4939
  102MOL   H11512437   7.983   2.120   0.860  2.0289 -0.6661 -0.2504
  102MOL   C11612438   8.138   2.101   0.727  0.1104 -0.5338  0.0915
  102MOL  Cl11712439   8.133   1.934   0.780  0.4161 -0.1234 -0.0738
  102MOL  Cl11812440   8.282   2.177   0.811 -0.0098  0.2622 -0.1367
  102MOL   C11912441   8.178   2.108   0.581 -0.0958 -0.3714  0.3884
  102MOL   H12012442   8.275   2.066   0.559  0.5520 -0.0007  2.5253
  102MOL   H12112443   8.103   2.068   0.511 -2.2004  1.5229  1.4787
  102MOL   H12212444   8.195   2.209   0.542 -0.2698 -0.3835  0.2795
  103MOL     C112445   5.033   4.504   3.655 -0.2143 -0.5535 -0.3396
  103MOL    Cl212446   5.069   4.388   3.529  0.0713 -0.0815 -0.1784
  103MOL    Cl312447   5.190   4.544   3.736 -0.0205  0.1432 -0.0403
  103MOL     C412448   4.967   4.624   3.603  0.1843  0.2387  0.5420
  103MOL     H512449   5.020   4.685   3.530 -1.3496 -0.4491 -1.1894
  103MOL     H612450   4.890   4.586   3.536  0.5707 -1.0368  0.8089
  103MOL     H712451   4.982   4.453   3.737  0.4916  0.5681  0.8305
  103MOL     C812452   4.880   4.712   3.699  0.1680  0.3684 -0.1170
  103MOL    Cl912453   4.759   4.594   3.759 -0.1263 -0.3006  0.2792
  103MOL   Cl1012454   4.791   4.829   3.593 -0.4682 -0.0344  0.1058
  103MOL    C1112455   4.957   4.777   3.820  0.3775 -0.1733  0.4106
  103MOL    H1212456   4.982   4.691   3.883  1.3450  0.0417  0.3328
  103MOL    H1312457   5.055   4.818   3.793  0.3561  0.8437  1.8176
  103MOL    C1412458   4.885   4.884   3.910 -0.4956  0.7073  0.0261
  103MOL   Cl1512459   4.714   4.827   3.965  0.2117 -0.2847  0.1498
  103MOL   Cl1612460   4.875   5.029   3.806 -0.4009  0.1782 -0.3614
  103MOL    C1712461   4.963   4.936   4.031  1.0081 -0.4559 -0.4017
  103MOL    H1812462   5.050   4.993   3.999  0.0390  1.5172  0.4117
  103MOL    H1912463   4.891   5.008   4.068 -0.1588 -1.4955 -0.6278
  103MOL    C2012464   5.014   4.838   4.143 -0.3535  0.0641  0.1678
  103MOL   Cl2112465   5.152   4.746   4.081  0.2519  0.0607  0.1190
  103MOL   Cl2212466   4.895   4.721   4.188 -0.4659  0.0628 -0.0779
  103MOL    C2312467   5.070   4.897   4.277  0.1261 -0.1122 -0.0659
  103MOL    H2412468   4.992   4.928   4.347 -1.3167  1.9991 -2.5091
  103MOL    H2512469   5.116   4.813   4.328  0.6228 -1.0564 -2.0134
  103MOL    C2612470   5.159   5.024   4.274 -0.0721  0.4382 -0.4621
  103MOL   Cl2712471   5.064   5.157   4.211 -0.2424  0.0625 -0.4614
  103MOL   Cl2812472   5.306   5.009   4.164 -0.2117 -0.0874 -0.2893
  103MOL    C2912473   5.224   5.060   4.413 -0.3529  0.3944 -0.2316
  103MOL    H3012474   5.301   4.984   4.416  1.2844  1.9089 -2.1274
  103MOL    H3112475   5.276   5.154   4.392 -1.0928  1.0303  0.7022
  103MOL    C3212476   5.143   5.060   4.545 -0.4105 -0.0673  0.3757
  103MOL   Cl3312477   5.111   4.893   4.597 -0.1751 -0.1442  0.1023
  103MOL   Cl3412478   4.988   5.152   4.511 -0.1783  0.1579  0.1364
  103MOL    C3512479   5.224   5.120   4.656 -0.4432  0.4936 -0.2232
  103MOL    H3612480   5.327   5.092   4.635 -0.6746  0.2519 -1.0777
  103MOL    H3712481   5.227   5.226   4.627 -0.2376  0.2919 -0.9428
  103MOL    C3812482   5.185   5.107   4.806 -1.0121 -0.6348 -0.1689
  103MOL   Cl3912483   5.279   5.234   4.882 -0.1756 -0.2727  0.0548
  103MOL   Cl4012484   5.258   4.955   4.863  0.1687 -0.2794  0.0579
  103MOL    C4112485   5.025   5.118   4.837  0.0459  0.0734  0.3576
  103MOL    H4212486   4.983   5.207   4.791  1.4008 -0.4862 -2.0373
  103MOL    H4312487   4.992   5.032   4.780 -0.8798 -0.5953  1.8825
  103MOL    C4412488   4.965   5.087   4.978  0.2192  1.0549  0.2422
  103MOL   Cl4512489   4.941   4.913   4.992 -0.4225 -0.3057 -0.0752
  103MOL   Cl4612490   4.802   5.159   4.976  0.0958  0.4476  0.3919
  103MOL    C4712491   5.048   5.154   5.093 -0.0950 -0.3063 -0.7608
  103MOL    H4812492   5.155   5.133   5.094 -0.3489 -1.6358  1.3773
  103MOL    H4912493   5.039   5.262   5.077  1.4858 -0.2812 -1.5443
  103MOL    C5012494   5.016   5.123   5.244 -0.4699  0.4656  0.5098
  103MOL   Cl5112495   5.118   5.250   5.322  0.1888  0.0899  0.0857
  103MOL   Cl5212496   5.093   4.967   5.272  0.3012  0.4429  0.0719
  103MOL    C5312497   4.859   5.140   5.287  0.2823  0.3325  0.1531
  103MOL    H5412498   4.831   5.235   5.242  0.2435  2.6709  4.8711
  103MOL    H5512499   4.807   5.054   5.244 -1.5118  0.5828  1.7985
  103MOL    C5612500   4.820   5.164   5.435 -0.3961  0.2681 -0.8014
  103MOL   Cl5712501   4.819   5.339   5.468  0.0597 -0.0381 -0.1732
  103MOL   Cl5812502   4.940   5.097   5.549 -0.1037 -0.0985 -0.4498
  103MOL    C5912503   4.681   5.113   5.476  0.0898 -0.1629  1.0718
  103MOL    H6012504   4.695   5.005   5.471  0.8441  0.0123 -1.8013
  103MOL    H6112505   4.659   5.123   5.582 -1.4693  0.9166  0.6610
  103MOL    C6212506   4.548   5.142   5.397 -0.1479  0.5717  0.4838
  103MOL   Cl6312507   4.564   5.112   5.220 -0.3813 -0.1649  0.0922
  103MOL   Cl6412508   4.500   5.311   5.408  0.0694  0.7163 -0.1966
  103MOL    C6512509   4.434   5.060   5.454  0.0777  0.8114  0.2371
  103MOL    H6612510   4.405   5.104   5.549  0.6460 -0.5530  1.0583
  103MOL    H6712511   4.355   5.066   5.379  1.3450  1.2981 -1.0817
  103MOL    C6812512   4.438   4.902   5.476 -0.3686  0.0534 -0.1815
  103MOL   Cl6912513   4.493   4.876   5.643  0.0573 -0.2574 -0.1145
  103MOL   Cl7012514   4.553   4.816   5.360  0.0990 -0.0887 -0.2757
  103MOL    C7112515   4.297   4.839   5.462  0.0450 -0.6977  0.5371
  103MOL    H7212516   4.243   4.888   5.381  1.8139 -0.0695 -0.3089
  103MOL    H7312517   4.311   4.738   5.425 -0.8013 -0.2937 -0.9367
  103MOL    C7412518   4.204   4.824   5.579  0.1067  0.2338  0.6241
  103MOL   Cl7512519   4.257   4.683   5.686  0.0085 -0.0398  0.0996
  103MOL   Cl7612520   4.063   4.764   5.494 -0.0500  0.1213  0.4182
  103MOL    C7712521   4.170   4.951   5.661  0.1275  0.0413  0.4448
  103MOL    H7812522   4.244   4.942   5.741  0.0982  1.6514  0.6658
  103MOL    H7912523   4.205   5.034   5.601 -1.9298 -1.0297 -2.3041
  103MOL    C8012524   4.030   4.981   5.729  0.1186  0.3583 -0.2196
  103MOL   Cl8112525   4.053   5.086   5.869 -0.0128  0.5041 -0.1071
  103MOL   Cl8212526   3.972   4.836   5.799  0.3065 -0.3902 -0.2568
  103MOL    C8312527   3.922   5.041   5.640 -0.0751  0.4104  0.1750
  103MOL    H8412528   3.867   4.965   5.583  3.2256 -2.8162  1.1425
  103MOL    H8512529   3.843   5.084   5.701  0.4280  1.3776  0.1587
  103MOL    C8612530   3.959   5.157   5.545  0.2778 -0.2917 -0.4406
  103MOL   Cl8712531   4.068   5.097   5.411 -0.5403 -0.2736 -0.4281
  103MOL   Cl8812532   4.052   5.276   5.629 -0.1737 -0.3680 -0.1074
  103MOL    C8912533   3.837   5.228   5.476  0.1085  0.1100 -0.2556
  103MOL    H9012534   3.881   5.323   5.446 -1.1223  1.0814  0.9239
  103MOL    H9112535   3.805   5.168   5.392 -0.2237 -0.5871  0.3634
  103MOL    C9212536   3.705   5.264   5.554  0.4055 -0.7466 -0.6759
  103MOL   Cl9312537   3.723   5.332   5.716  0.0370  0.4304  0.2533
  103MOL   Cl9412538   3.614   5.108   5.580  0.2402 -0.1968  0.2270
  103MOL    C9512539   3.598   5.342   5.477  0.2361 -0.4332 -0.4460
  103MOL    H9612540   3.538   5.278   5.414 -0.2964 -0.6822  0.3030
  103MOL    H9712541   3.527   5.387   5.546  1.1431 -0.0770  0.2835
  103MOL    C9812542   3.640   5.466   5.393 -0.6673  0.1199  0.0865
  103MOL   Cl9912543   3.709   5.410   5.233 -0.1730  0.2443  0.3372
  103MOL  Cl10012544   3.772   5.566   5.482  0.4758 -0.5007  0.3760
  103MOL   C10112545   3.533   5.561   5.358  0.0904 -0.2555  0.1692
  103MOL   H10212546   3.484   5.588   5.451  0.0617  0.9263 -0.1786
  103MOL   H10312547   3.574   5.657   5.327  0.4173 -0.3020  0.4598
  103MOL   C10412548   3.418   5.531   5.267  0.3404 -0.2855 -0.3686
  103MOL  Cl10512549   3.283   5.646   5.317  0.3406 -0.0232  0.2086
  103MOL  Cl10612550   3.349   5.368   5.292  0.4115 -0.5342 -0.1793
  103MOL   C10712551   3.432   5.548   5.110 -0.1693 -0.4686 -0.6573
  103MOL   H10812552   3.487   5.463   5.068  0.7262 -0.2282  0.0237
  103MOL   H10912553   3.330   5.530   5.077  0.2038  0.4600 -2.3827
  103MOL   C11012554   3.480   5.681   5.037 -0.5035 -0.0913  0.0756
  103MOL  Cl11112555   3.643   5.731   5.092  0.2268  0.2262  0.1452
  103MOL  Cl11212556   3.376   5.825   5.082 -0.0053 -0.0864  0.2183
  103MOL   C11312557   3.503   5.682   4.885  0.1670 -0.1047  0.9124
  103MOL   H11412558   3.528   5.784   4.856  1.2725 -0.9120 -1.1424
  103MOL   H11512559   3.599   5.631   4.869 -1.3998 -2.4968 -1.3918
  103MOL   C11612560   3.395   5.604   4.797 -0.3433  0.5933 -0.0397
  103MOL  Cl11712561   3.227   5.651   4.842  0.0208  0.1102 -0.3589
  103MOL  Cl11812562   3.432   5.427   4.806 -0.1290  0.3951 -0.2163
  103MOL   C11912563   3.426   5.654   4.658 -0.1968 -0.2874  0.3129
  103MOL   H12012564   3.531   5.664   4.631 -0.7788  1.8217 -1.2332
  103MOL   H12112565   3.380   5.583   4.590  0.9512 -2.2910  1.5774
  103MOL   H12212566   3.388   5.756   4.649  1.0254  0.4188  2.5879
  104MOL     C112567   2.870   3.183   8.396  0.2685 -0.2177  0.2799
  104MOL    Cl212568   2.859   3.012   8.361  0.3260 -0.2089 -0.3549
  104MOL    Cl312569   2.964   3.275   8.272 -0.1231  0.2041  0.1090
  104MOL     C412570   2.729   3.240   8.418  0.2367  0.4457  0.0673
  104MOL     H512571   2.671   3.228   8.326  0.5761  1.7969 -0.3408
  104MOL     H612572   2.684   3.176   8.493  0.9520 -0.9831 -0.7126
  104MOL     H712573   2.931   3.187   8.486  2.2913 -0.2189 -1.0608
  104MOL     C812574   2.710   3.380   8.476  0.2148 -0.0231  0.3078
  104MOL    Cl912575   2.730   3.493   8.343 -0.1146  0.0321  0.1524
  104MOL   Cl1012576   2.840   3.430   8.586 -0.0980  0.6125 -0.1255
  104MOL    C1112577   2.581   3.406   8.556 -0.1525  0.2601  0.2584
  104MOL    H1212578   2.591   3.386   8.663 -0.1347 -0.0647  0.1982
  104MOL    H1312579   2.572   3.514   8.566 -2.3461  0.1849 -0.5866
  104MOL    C1412580   2.442   3.368   8.505  0.1613  0.6234 -0.4301
  104MOL   Cl1512581   2.328   3.453   8.611 -0.0526 -0.1730  0.2762
  104MOL   Cl1612582   2.400   3.194   8.534  0.0925 -0.0105  0.1516
  104MOL    C1712583   2.422   3.413   8.355 -0.0961  0.4052 -0.1208
  104MOL    H1812584   2.450   3.518   8.347 -1.6599  0.8322 -0.1927
  104MOL    H1912585   2.497   3.358   8.297  0.2336 -0.6539  1.2771
  104MOL    C2012586   2.287   3.395   8.279  0.5345  0.4494 -0.2046
  104MOL   Cl2112587   2.266   3.218   8.241  0.1230  0.1548 -0.5191
  104MOL   Cl2212588   2.313   3.457   8.119 -0.0527 -0.0533  0.2708
  104MOL    C2312589   2.158   3.462   8.343 -0.1990 -0.2652  0.0758
  104MOL    H2412590   2.154   3.411   8.440  0.9197 -1.2187 -0.3670
  104MOL    H2512591   2.184   3.566   8.356  2.8033 -0.8267 -1.1351
  104MOL    C2612592   2.012   3.446   8.292  0.2470  0.1539  0.1522
  104MOL   Cl2712593   1.956   3.279   8.329 -0.1489 -0.0327  0.4064
  104MOL   Cl2812594   1.993   3.479   8.116 -0.3807  0.2079 -0.1071
  104MOL    C2912595   1.916   3.557   8.353 -0.2105  0.5472  0.4438
  104MOL    H3012596   1.960   3.650   8.318  3.1229 -0.8530  0.7438
  104MOL    H3112597   1.819   3.563   8.303 -0.3233 -0.6237  0.5206
  104MOL    C3212598   1.881   3.582   8.508  0.4156  0.2151 -0.2204
  104MOL   Cl3312599   1.780   3.728   8.515 -0.2807 -0.1861 -0.1762
  104MOL   Cl3412600   2.031   3.623   8.583  0.0539  0.3875  0.0082
  104MOL    C3512601   1.810   3.459   8.578 -0.1658  0.2230  0.6861
  104MOL    H3612602   1.742   3.409   8.509  0.4428 -0.4362  0.5585
  104MOL    H3712603   1.886   3.381   8.587 -0.0091 -0.1697 -2.9564
  104MOL    C3812604   1.742   3.459   8.721 -0.7510  0.3053  0.1021
  104MOL   Cl3912605   1.677   3.296   8.743  0.0277  0.3069  0.0407
  104MOL   Cl4012606   1.600   3.570   8.729  0.2918  0.1837  0.0920
  104MOL    C4112607   1.841   3.480   8.838  0.2116  0.5702  0.3676
  104MOL    H4212608   1.934   3.438   8.802 -1.6353 -0.7300 -3.1556
  104MOL    H4312609   1.868   3.586   8.833 -1.5638  1.1621  2.3482
  104MOL    C4412610   1.829   3.432   8.983  0.4885  0.8709 -0.0434
  104MOL   Cl4512611   1.853   3.255   8.993  0.2914 -0.1393  0.1801
  104MOL   Cl4612612   1.652   3.465   9.027 -0.1123  0.0820 -0.2419
  104MOL    C4712613   1.919   3.515   9.084  1.1417  0.1472 -0.2936
  104MOL    H4812614   1.890   3.618   9.060 -0.3256 -0.4147 -0.9773
  104MOL    H4912615   1.897   3.492   0.008 -0.2396 -1.7284 -0.9871
  104MOL    C5012616   2.071   3.518   9.086  0.5798 -0.0533 -0.4786
  104MOL   Cl5112617   2.121   3.638   0.024 -0.7820  0.2119  0.0941
  104MOL   Cl5212618   2.142   3.560   8.932  0.3585 -0.5245 -0.0523
  104MOL    C5312619   2.118   3.374   9.123 -0.2620 -0.2867  0.1464
  104MOL    H5412620   2.048   3.323   0.008  1.2835 -2.5458  0.1480
  104MOL    H5512621   2.122   3.321   9.027  0.5108 -0.2129  0.1327
  104MOL    C5612622   2.259   3.352   0.010 -0.2949  0.0795  0.9426
  104MOL   Cl5712623   2.392   3.457   9.126 -0.1944  0.0580 -0.2215
  104MOL   Cl5812624   2.305   3.182   9.149  0.1335 -0.1915  0.0738
  104MOL    C5912625   2.272   3.366   0.169 -0.1213  0.0812 -0.1360
  104MOL    H6012626   2.366   3.326   0.206 -1.2901 -1.9390  0.7860
  104MOL    H6112627   2.273   3.473   0.186  0.9843  0.2255 -1.0435
  104MOL    C6212628   2.160   3.317   0.271 -0.0275  0.7214  0.1281
  104MOL   Cl6312629   2.138   3.140   0.252 -0.0572  0.0147  0.0997
  104MOL   Cl6412630   2.003   3.402   0.243 -0.3381 -0.3929 -0.3717
  104MOL    C6512631   2.211   3.344   0.416  0.4485  0.1617  0.2469
  104MOL    H6612632   2.315   3.312   0.421 -0.1132 -1.9086 -0.6648
  104MOL    H6712633   2.204   3.453   0.415  1.5315  0.2210 -1.6658
  104MOL    C6812634   2.138   3.290   0.551 -0.1165 -0.1039 -0.0112
  104MOL   Cl6912635   2.145   3.116   0.569 -0.0318  0.0658  0.1003
  104MOL   Cl7012636   1.967   3.329   0.541  0.5547  0.0694  0.1330
  104MOL    C7112637   2.191   3.349   0.683  0.1020  0.3234 -0.2959
  104MOL    H7212638   2.120   3.322   0.761 -2.0536  0.3493 -2.1997
  104MOL    H7312639   2.285   3.295   0.693 -0.7881 -1.1941 -0.0463
  104MOL    C7412640   2.231   3.500   0.711  1.1979  0.4600  0.5804
  104MOL   Cl7512641   2.089   3.613   0.686  0.2319 -0.0398 -0.2914
  104MOL   Cl7612642   2.365   3.544   0.598  0.5949 -0.5490  0.0880
  104MOL    C7712643   2.267   3.534   0.857 -0.2296 -0.0114 -0.0068
  104MOL    H7812644   2.275   3.642   0.868  1.2424 -0.2649  1.7386
  104MOL    H7912645   2.179   3.521   0.920 -1.1862 -0.0871 -1.3389
  104MOL    C8012646   2.389   3.469   0.930 -0.2800  0.0025 -0.1079
  104MOL   Cl8112647   2.518   3.410   0.822 -0.1840 -0.0522  0.0094
  104MOL   Cl8212648   2.322   3.322   0.999 -0.1055  0.4978 -0.1831
  104MOL    C8312649   2.457   3.535   1.048 -0.1145 -0.3749 -0.2700
  104MOL    H8412650   2.398   3.523   1.139 -0.0787  2.1778  0.1188
  104MOL    H8512651   2.547   3.482   1.078  0.2897  0.7849  0.5790
  104MOL    C8612652   2.485   3.681   1.044 -0.3352  0.3569  0.4991
  104MOL   Cl8712653   2.595   3.710   1.167 -0.1141 -0.0278 -0.7046
  104MOL   Cl8812654   2.341   3.767   1.092  0.0121  0.0075 -0.2251
  104MOL    C8912655   2.546   3.727   0.903 -0.7281  0.1928  0.3639
  104MOL    H9012656   2.652   3.706   0.889 -1.2061  0.8053 -5.3210
  104MOL    H9112657   2.500   3.674   0.820 -1.2279  1.4353 -0.1751
  104MOL    C9212658   2.519   3.870   0.851  0.0581 -0.5590 -0.7844
  104MOL   Cl9312659   2.340   3.894   0.810  0.5070  0.2620  0.4018
  104MOL   Cl9412660   2.607   3.878   0.697 -0.0996 -0.5434 -0.0241
  104MOL    C9512661   2.571   3.978   0.957 -0.4306  0.4331 -0.1853
  104MOL    H9612662   2.554   3.952   1.061 -0.0901  1.8257  0.2392
  104MOL    H9712663   2.680   3.984   0.950 -0.2104 -0.7265  1.9047
  104MOL    C9812664   2.520   4.126   0.955 -0.1158  0.7342  1.0736
  104MOL   Cl9912665   2.517   4.185   0.779  0.3288  0.3317 -0.4100
  104MOL  Cl10012666   2.634   4.219   1.047  0.5405 -0.1081  0.0116
  104MOL   C10112667   2.382   4.146   1.032 -0.7135  0.0127  0.5064
  104MOL   H10212668   2.314   4.064   1.008  0.8924 -0.9500 -0.8459
  104MOL   H10312669   2.404   4.132   1.138 -0.9366  0.3808  0.6044
  104MOL   C10412670   2.293   4.273   0.997 -0.4368  0.8541 -0.1496
  104MOL  Cl10512671   2.177   4.260   1.125 -0.3773 -0.0644 -0.1935
  104MOL  Cl10612672   2.221   4.259   0.836  0.2986 -0.2020  0.1757
  104MOL   C10712673   2.361   4.414   1.006 -0.1171 -0.0232 -0.0063
  104MOL   H10812674   2.430   4.413   1.091  0.3912  0.7272 -0.3984
  104MOL   H10912675   2.422   4.427   0.916  2.7988 -0.6382  1.8041
  104MOL   C11012676   2.285   4.554   1.017 -0.1403  0.2397 -0.7882
  104MOL  Cl11112677   2.399   4.677   0.955  0.1520 -0.0007  0.1433
  104MOL  Cl11212678   2.276   4.582   1.191 -0.3387  0.2753 -0.0541
  104MOL   C11312679   2.141   4.561   0.942 -0.0114  0.3152  0.4657
  104MOL   H11412680   2.157   4.524   0.841 -1.5973  1.7308 -0.3448
  104MOL   H11512681   2.091   4.477   0.990  1.7607 -1.2823 -0.4303
  104MOL   C11612682   2.063   4.691   0.933 -0.5940  0.7814 -0.6034
  104MOL  Cl11712683   1.997   4.729   1.090  0.1320 -0.0779 -0.0156
  104MOL  Cl11812684   1.925   4.656   0.824  0.4733 -0.0511 -0.2666
  104MOL   C11912685   2.134   4.817   0.867 -0.5772 -0.0754 -0.6529
  104MOL   H12012686   2.064   4.901   0.860 -0.7520 -0.3028 -1.8114
  104MOL   H12112687   2.231   4.846   0.907 -1.2143  2.1229 -0.6547
  104MOL   H12212688   2.152   4.792   0.762  1.6674 -0.5483 -0.1709
  105MOL     C112689   2.354   0.729   2.423 -0.2716 -0.4354 -0.5136
  105MOL    Cl212690   2.308   0.619   2.287  0.0153 -0.0748 -0.0736
  105MOL    Cl312691   2.264   0.695   2.568 -0.1031  0.3414 -0.0390
  105MOL     C412692   2.516   0.724   2.441 -0.3714  0.6184 -0.2267
  105MOL     H512693   2.568   0.737   2.346 -0.1423  0.8012 -0.0770
  105MOL     H612694   2.533   0.809   2.508  0.3253  2.1781 -2.3354
  105MOL     H712695   2.329   0.830   2.391 -1.2812 -0.3681  0.4759
  105MOL     C812696   2.581   0.609   2.518 -0.5657  0.0371 -0.0991
  105MOL    Cl912697   2.546   0.625   2.689  0.0357  0.1995 -0.1517
  105MOL   Cl1012698   2.763   0.637   2.506  0.1237 -0.0331 -0.2872
  105MOL    C1112699   2.546   0.467   2.470  0.3627 -0.5294  0.3958
  105MOL    H1212700   2.546   0.388   2.545  4.4493 -1.6352 -0.6274
  105MOL    H1312701   2.437   0.465   2.468  0.3963 -1.5062 -1.5967
  105MOL    C1412702   2.604   0.410   2.343  0.0819  0.4736 -0.1245
  105MOL   Cl1512703   2.620   0.541   2.213 -0.0781 -0.0734  0.0575
  105MOL   Cl1612704   2.494   0.291   2.277 -0.1603 -0.3078  0.2781
  105MOL    C1712705   2.744   0.347   2.352 -0.9207 -0.0204 -0.4510
  105MOL    H1812706   2.767   0.308   2.253  1.3961  0.4163 -0.1117
  105MOL    H1912707   2.817   0.426   2.370  0.1616 -0.6045 -2.2335
  105MOL    C2012708   2.781   0.238   2.463  0.9595  0.0056 -0.1233
  105MOL   Cl2112709   2.669   0.105   2.451  0.2735 -0.1219  0.1030
  105MOL   Cl2212710   2.767   0.306   2.631 -0.0551 -0.1571  0.4144
  105MOL    C2312711   2.930   0.203   2.434 -0.0496  0.2955 -0.6326
  105MOL    H2412712   2.955   0.208   2.328 -1.5599  0.2275 -1.0110
  105MOL    H2512713   2.979   0.284   2.489  0.6086  0.0050 -0.7874
  105MOL    C2612714   2.995   0.076   2.490  0.4057 -0.6119 -0.6834
  105MOL   Cl2712715   2.960   0.062   2.664 -0.1085  0.1614 -0.2356
  105MOL   Cl2812716   3.167   0.106   2.461 -0.1867 -0.1009 -0.1571
  105MOL    C2912717   2.947   9.122   2.422 -0.1563 -0.0941  0.2106
  105MOL    H3012718   2.843   9.098   2.446  0.6069 -0.8050  2.9967
  105MOL    H3112719   2.946   9.146   2.316 -1.7550  1.0222  0.4763
  105MOL    C3212720   3.029   8.990   2.426 -0.0914 -0.1618  0.0326
  105MOL   Cl3312721   3.155   9.013   2.295 -0.1353  0.0791  0.3014
  105MOL   Cl3412722   2.901   8.869   2.378 -0.3310  0.1365  0.3018
  105MOL    C3512723   3.095   8.950   2.557  0.4605  1.1314  0.4945
  105MOL    H3612724   3.142   9.038   2.601  0.0047  1.4547  0.3329
  105MOL    H3712725   3.013   8.912   2.619  0.7961 -0.6501 -0.1399
  105MOL    C3812726   3.212   8.847   2.564  1.0038 -0.3479 -0.6352
  105MOL   Cl3912727   3.218   8.779   2.726  0.4576  0.1297  0.0067
  105MOL   Cl4012728   3.362   8.933   2.538  0.1478  0.1453  0.2228
  105MOL    C4112729   3.196   8.722   2.476 -0.2671  0.0828  0.3170
  105MOL    H4212730   3.090   8.694   2.474 -0.8827  2.2693  1.2498
  105MOL    H4312731   3.225   8.759   2.379  1.5372 -1.4878  0.2328
  105MOL    C4412732   3.278   8.591   2.492 -0.2628  0.7839 -0.2621
  105MOL   Cl4512733   3.226   8.486   2.630 -0.0976  0.2321  0.0829
  105MOL   Cl4612734   3.445   8.642   2.524  0.1983 -0.0648 -0.0071
  105MOL    C4712735   3.291   8.491   2.370  0.1382 -0.2935  0.2227
  105MOL    H4812736   3.354   8.532   2.291  1.3233  0.8469  1.7268
  105MOL    H4912737   3.337   8.396   2.399 -0.1001 -0.4070  0.2254
  105MOL    C5012738   3.158   8.441   2.296  0.1872 -0.6445 -0.6205
  105MOL   Cl5112739   3.091   8.579   2.214 -0.5105  0.3597  0.2174
  105MOL   Cl5212740   3.028   8.364   2.405  0.1503  0.2289  0.0324
  105MOL    C5312741   3.216   8.328   2.195 -0.0799  0.0602 -0.0628
  105MOL    H5412742   3.301   8.366   2.137  0.2905  0.1549  0.5471
  105MOL    H5512743   3.254   8.239   2.246 -0.7240 -0.2134 -0.0471
  105MOL    C5612744   3.116   8.266   2.088  0.3651 -0.3463 -0.2309
  105MOL   Cl5712745   3.208   8.138   2.003  0.1787 -0.1044 -0.0489
  105MOL   Cl5812746   3.096   8.391   1.969  0.0845  0.2646 -0.0369
  105MOL    C5912747   2.979   8.217   2.140 -0.7378  0.0720 -0.3729
  105MOL    H6012748   3.001   8.165   2.234 -0.2682  1.5086  0.3235
  105MOL    H6112749   2.919   8.305   2.162 -0.6218 -0.3641  1.8764
  105MOL    C6212750   2.886   8.120   2.068 -0.3483 -0.2399 -0.2048
  105MOL   Cl6312751   2.734   8.113   2.168 -0.1495  0.0334 -0.0032
  105MOL   Cl6412752   2.972   7.960   2.064  0.6827  0.1404  0.2598
  105MOL    C6512753   2.860   8.169   1.920  0.2656 -0.4225  0.4170
  105MOL    H6612754   2.844   8.277   1.923  1.1396 -0.1297 -2.8158
  105MOL    H6712755   2.954   8.152   1.867 -0.4840  2.3513 -1.9689
  105MOL    C6812756   2.746   8.108   1.826  1.1848 -0.1864  0.0494
  105MOL   Cl6912757   2.592   8.176   1.884 -0.2228 -0.0057  0.1815
  105MOL   Cl7012758   2.735   7.929   1.844  0.1293 -0.2418 -0.2726
  105MOL    C7112759   2.747   8.135   1.671  0.0649  0.3018 -0.2889
  105MOL    H7212760   2.804   8.053   1.627  0.5751  1.4673 -1.8177
  105MOL    H7312761   2.646   8.121   1.633  0.4471  1.0736 -1.6122
  105MOL    C7412762   2.797   8.275   1.620 -0.6909  0.1531 -0.1443
  105MOL   Cl7512763   2.969   8.308   1.671 -0.4020  0.2426 -0.0993
  105MOL   Cl7612764   2.692   8.400   1.686 -0.1026  0.5073 -0.1565
  105MOL    C7712765   2.785   8.284   1.466  0.0134  0.9948  0.1536
  105MOL    H7812766   2.794   8.192   1.408 -0.9685 -0.0904  1.6514
  105MOL    H7912767   2.679   8.280   1.441  0.3887 -1.0155 -1.2502
  105MOL    C8012768   2.846   8.404   1.389 -0.3238 -0.0355 -0.5585
  105MOL   Cl8112769   2.759   8.405   1.231  0.0643  0.0741 -0.0812
  105MOL   Cl8212770   3.007   8.342   1.351  0.0201 -0.1842 -0.1251
  105MOL    C8312771   2.854   8.546   1.450  0.3682 -0.1206 -0.2599
  105MOL    H8412772   2.758   8.570   1.496 -0.1126 -3.1230  0.4028
  105MOL    H8512773   2.923   8.547   1.535  1.7154  0.1496 -1.3435
  105MOL    C8612774   2.898   8.678   1.382  0.1095 -0.0504  0.3134
  105MOL   Cl8712775   3.073   8.676   1.346 -0.4978  0.5592  0.3133
  105MOL   Cl8812776   2.872   8.796   1.507  0.1285  0.1097 -0.2547
  105MOL    C8912777   2.819   8.724   1.259  0.4552 -0.0564  0.5830
  105MOL    H9012778   2.829   8.639   1.192  0.9782 -1.8503  2.8650
  105MOL    H9112779   2.715   8.722   1.294  0.9619 -2.0080  2.0839
  105MOL    C9212780   2.854   8.851   1.168  0.0126 -0.8729 -0.7513
  105MOL   Cl9312781   2.874   8.993   1.270 -0.1525  0.2148 -0.0077
  105MOL   Cl9412782   2.715   8.876   1.075 -0.1018 -0.1570 -0.0707
  105MOL    C9512783   2.972   8.828   1.063  0.4880 -0.3463 -0.1673
  105MOL    H9612784   3.050   8.769   1.111 -0.3055 -1.6529 -0.4608
  105MOL    H9712785   2.930   8.762   0.987 -0.9341  0.1911  0.1354
  105MOL    C9812786   3.058   8.950   1.003  0.0486 -0.4961  0.3415
  105MOL   Cl9912787   3.183   8.995   1.126 -0.1987  0.0391  0.0352
  105MOL  Cl10012788   2.954   9.091   0.973 -0.1328  0.1512 -0.4857
  105MOL   C10112789   3.116   8.901   0.870  0.8681 -0.0036 -0.4704
  105MOL   H10212790   3.032   8.878   0.805 -0.3056 -0.6070  1.2356
  105MOL   H10312791   3.155   8.995   0.832  0.7888  0.2876  0.1638
  105MOL   C10412792   3.227   8.804   0.850 -0.2330  0.8135  0.4843
  105MOL  Cl10512793   3.193   8.655   0.941 -0.0408 -0.0771  0.1875
  105MOL  Cl10612794   3.384   8.855   0.904 -0.0371  0.0578  0.1835
  105MOL   C10712795   3.254   8.768   0.704 -0.0929  0.2987  0.6654
  105MOL   H10812796   3.330   8.692   0.689 -0.9562 -0.7454  1.5471
  105MOL   H10912797   3.165   8.711   0.678 -0.1300  0.2080  0.9855
  105MOL   C11012798   3.273   8.872   0.591  0.0298  0.6204  0.6250
  105MOL  Cl11112799   3.383   9.003   0.642 -0.2638 -0.0403 -0.1280
  105MOL  Cl11212800   3.115   8.951   0.548 -0.2634  0.2367  0.2093
  105MOL   C11312801   3.325   8.793   0.464 -0.2148  0.5061 -0.6509
  105MOL   H11412802   3.413   8.735   0.492 -0.7137  0.0681  0.0283
  105MOL   H11512803   3.253   8.714   0.444 -0.2095  0.4216 -0.3426
  105MOL   C11612804   3.373   8.858   0.327 -0.2514 -0.2816 -0.1861
  105MOL  Cl11712805   3.400   8.732   0.205 -0.0050  0.2003  0.2757
  105MOL  Cl11812806   3.521   8.953   0.343  0.3285 -0.3821  0.2541
  105MOL   C11912807   3.265   8.949   0.263  0.1834  0.1402  0.1844
  105MOL   H12012808   3.249   9.038   0.323 -1.8895  0.5121 -0.8709
  105MOL   H12112809   3.302   8.984   0.166 -0.3592 -1.5908 -0.6694
  105MOL   H12212810   3.172   8.894   0.245  0.5387  0.3294 -2.5765
  106MOL     C112811   1.557   6.031   1.098 -0.2076  0.1659 -0.4623
  106MOL    Cl212812   1.492   6.187   1.155  0.0499 -0.0567  0.1063
  106MOL    Cl312813   1.658   6.060   0.956  0.0201 -0.1381  0.0436
  106MOL     C412814   1.640   5.959   1.210  0.0980  0.0977 -0.2278
  106MOL     H512815   1.652   5.860   1.166 -0.6136  0.8262 -2.1119
  106MOL     H612816   1.736   6.005   1.231 -0.5173  0.2001  2.4802
  106MOL     H712817   1.470   5.973   1.069  0.7311 -1.3963 -0.2107
  106MOL     C812818   1.583   5.938   1.353  0.0959 -0.0505 -0.3757
  106MOL    Cl912819   1.679   5.806   1.422  0.1602 -0.1113  0.1719
  106MOL   Cl1012820   1.413   5.870   1.350 -0.2083 -0.2793  0.0824
  106MOL    C1112821   1.613   6.070   1.441 -0.0094 -0.0693  0.3230
  106MOL    H1212822   1.719   6.094   1.441 -0.2272  1.1498 -2.6404
  106MOL    H1312823   1.570   6.154   1.386 -0.6416 -0.6381 -0.0651
  106MOL    C1412824   1.560   6.074   1.588  0.0078  0.6873  0.4312
  106MOL   Cl1512825   1.384   6.101   1.582 -0.1501 -0.2432  0.2462
  106MOL   Cl1612826   1.628   6.215   1.664  0.3718  0.1383  0.1983
  106MOL    C1712827   1.583   5.942   1.674  0.3275  0.3389 -0.2659
  106MOL    H1812828   1.522   5.865   1.625 -0.8155  1.9540 -1.4180
  106MOL    H1912829   1.683   5.901   1.660  0.1448  0.3186 -1.5813
  106MOL    C2012830   1.562   5.936   1.828 -0.6089 -0.0218  0.3672
  106MOL   Cl2112831   1.525   5.769   1.873  0.0021 -0.2733 -0.0741
  106MOL   Cl2212832   1.422   6.037   1.881  0.2563 -0.0154  0.1203
  106MOL    C2312833   1.684   5.978   1.918 -0.4062 -0.1384 -0.9716
  106MOL    H2412834   1.678   6.087   1.928 -1.1038 -0.2244 -0.4317
  106MOL    H2512835   1.654   5.941   2.016  0.3632 -0.3185 -0.7990
  106MOL    C2612836   1.834   5.928   1.894 -0.2788 -0.3964  0.3383
  106MOL   Cl2712837   1.902   6.012   1.751 -0.1285 -0.0535 -0.0779
  106MOL   Cl2812838   1.838   5.758   1.872 -0.0833  0.1111  0.2167
  106MOL    C2912839   1.934   5.972   2.001 -0.5916  0.3984  0.4178
  106MOL    H3012840   2.031   5.925   1.986 -0.5149  0.3288  1.1388
  106MOL    H3112841   1.953   6.079   1.992  0.9423  0.1851  1.0161
  106MOL    C3212842   1.909   5.942   2.156  0.8587 -0.4861  0.3044
  106MOL   Cl3312843   1.793   6.060   2.219  0.3295 -0.3077 -0.1614
  106MOL   Cl3412844   2.066   5.960   2.234 -0.1534  0.1771 -0.3920
  106MOL    C3512845   1.865   5.799   2.180  0.3555 -0.1181  0.5005
  106MOL    H3612846   1.777   5.779   2.119 -0.8057  1.2134  1.7159
  106MOL    H3712847   1.951   5.745   2.141 -0.5670 -1.8705  0.8479
  106MOL    C3812848   1.842   5.732   2.320  0.2740  0.3012  0.1051
  106MOL   Cl3912849   1.988   5.720   2.418  0.5156 -0.1224  0.2135
  106MOL   Cl4012850   1.783   5.567   2.287  0.1710  0.5027 -0.2649
  106MOL    C4112851   1.731   5.821   2.394 -0.9769  0.0503 -0.1187
  106MOL    H4212852   1.782   5.907   2.437  0.0448 -0.4094 -0.3979
  106MOL    H4312853   1.668   5.883   2.330  1.4074  0.4315 -2.2198
  106MOL    C4412854   1.642   5.765   2.510 -0.9304  0.6972 -0.1344
  106MOL   Cl4512855   1.587   5.893   2.624 -0.2036  0.0211 -0.1397
  106MOL   Cl4612856   1.744   5.663   2.607  0.0890 -0.2425  0.1214
  106MOL    C4712857   1.515   5.685   2.473  0.5813 -0.6824  0.2134
  106MOL    H4812858   1.543   5.582   2.448  1.4200 -0.3369 -0.3077
  106MOL    H4912859   1.457   5.661   2.562 -1.3083 -0.2815 -0.8789
  106MOL    C5012860   1.425   5.737   2.359 -0.9294 -0.5142 -0.3223
  106MOL   Cl5112861   1.517   5.718   2.205  0.3531 -0.3674 -0.2379
  106MOL   Cl5212862   1.396   5.913   2.391  0.0615  0.3712  0.1114
  106MOL    C5312863   1.289   5.665   2.343 -0.6346 -0.1056  0.2052
  106MOL    H5412864   1.230   5.707   2.424 -0.5419 -0.7187  0.5956
  106MOL    H5512865   1.246   5.712   2.255 -0.1259  0.0584  0.0411
  106MOL    C5612866   1.283   5.510   2.341 -0.2022 -0.4097  0.3573
  106MOL   Cl5712867   1.311   5.452   2.508  0.2487 -0.4636  0.4150
  106MOL   Cl5812868   1.408   5.434   2.234  0.1233 -0.1048  0.2660
  106MOL    C5912869   1.144   5.445   2.298  1.0720  0.5754  0.2609
  106MOL    H6012870   1.142   5.418   2.192  0.7057 -0.3237  0.4940
  106MOL    H6112871   1.124   5.367   2.371  1.5424  1.3930  1.2794
  106MOL    C6212872   1.007   5.525   2.314 -0.4752  0.2371  0.5310
  106MOL   Cl6312873   0.997   5.594   2.473  0.0344  0.2408 -0.5375
  106MOL   Cl6412874   0.879   5.393   2.307 -0.1907  0.1547 -0.2612
  106MOL    C6512875   0.974   5.642   2.214 -0.0802 -0.0926 -0.1458
  106MOL    H6612876   0.868   5.659   2.235  0.3027 -0.0701  1.8351
  106MOL    H6712877   1.016   5.740   2.240 -2.0425  1.5300 -2.7665
  106MOL    C6812878   1.001   5.630   2.057 -0.9879  1.1690  0.0351
  106MOL   Cl6912879   0.962   5.469   2.005 -0.0881 -0.2429 -0.0582
  106MOL   Cl7012880   1.181   5.626   2.024 -0.0281 -0.0631 -0.4274
  106MOL    C7112881   0.928   5.725   1.957  0.3088 -0.1905  0.4711
  106MOL    H7212882   0.985   5.707   1.866  0.2084  0.5570  0.2572
  106MOL    H7312883   0.825   5.692   1.937  0.6531 -1.3053  0.4652
  106MOL    C7412884   0.931   5.881   1.979 -0.2810  0.3131 -0.2817
  106MOL   Cl7512885   1.092   5.946   2.018 -0.3009 -0.0412  0.1620
  106MOL   Cl7612886   0.827   5.910   2.125 -0.2363 -0.0255 -0.3858
  106MOL    C7712887   0.876   5.968   1.860 -0.2208 -0.4310  0.4722
  106MOL    H7812888   0.857   6.063   1.911  1.3239 -0.2030  0.6429
  106MOL    H7912889   0.963   5.982   1.795  0.0493 -0.6319  0.7899
  106MOL    C8012890   0.750   5.931   1.771  0.4380 -0.3725 -0.2506
  106MOL   Cl8112891   0.624   5.854   1.867  0.2192 -0.0131 -0.0923
  106MOL   Cl8212892   0.808   5.797   1.675  0.1997 -0.3379 -0.2685
  106MOL    C8312893   0.703   6.042   1.674 -0.2671 -0.4161  0.1928
  106MOL    H8412894   0.792   6.098   1.646 -0.4557 -0.3994 -0.3853
  106MOL    H8512895   0.658   5.996   1.586 -0.5376 -0.2835  0.2606
  106MOL    C8612896   0.592   6.141   1.724  0.9290  0.2657 -0.1552
  106MOL   Cl8712897   0.608   6.284   1.625  0.4535 -0.1057  0.0302
  106MOL   Cl8812898   0.627   6.193   1.891  0.1441 -0.0529  0.3134
  106MOL    C8912899   0.444   6.087   1.727  0.2221  0.8405  0.3630
  106MOL    H9012900   0.436   6.007   1.653  0.3179 -1.1948  2.4916
  106MOL    H9112901   0.444   6.040   1.825 -2.5838  1.8664  0.9002
  106MOL    C9212902   0.324   6.185   1.711 -0.6963 -0.0865  0.1672
  106MOL   Cl9312903   0.308   6.236   1.536  0.0615 -0.1458  0.0582
  106MOL   Cl9412904   0.343   6.323   1.807  0.0738 -0.0443  0.1926
  106MOL    C9512905   0.191   6.106   1.731 -0.0749  0.1213 -0.3118
  106MOL    H9612906   0.116   6.185   1.724 -0.7889 -0.5383 -0.2411
  106MOL    H9712907   0.167   6.045   1.644  0.8656  0.0565 -0.5218
  106MOL    C9812908   0.172   6.022   1.861 -0.4618  0.5879  0.0879
  106MOL   Cl9912909   0.229   6.107   2.009  0.0645 -0.2986  0.1885
  106MOL  Cl10012910   0.258   5.866   1.863 -0.0470 -0.2437 -0.1705
  106MOL   C10112911   0.021   5.985   1.880  0.3130  0.6601 -0.1090
  106MOL   H10212912   0.010   5.954   1.984  0.1520 -1.1797 -0.6614
  106MOL   H10312913   9.155   6.084   1.881 -0.7823  0.1554  0.3847
  106MOL   C10412914   9.112   5.893   1.789 -0.1227 -0.5905  0.5224
  106MOL  Cl10512915   9.124   5.925   1.617 -0.3101 -0.0239 -0.3267
  106MOL  Cl10612916   8.951   5.940   1.845  0.5060 -0.0886 -0.0857
  106MOL   C10712917   9.148   5.742   1.812  0.2781 -0.1705  0.5888
  106MOL   H10812918   0.055   5.732   1.748 -0.1110 -0.9364  0.1747
  106MOL   H10912919   9.176   5.736   1.917 -1.0069 -1.0020  0.8894
  106MOL   C11012920   9.063   5.623   1.779 -0.3413 -0.4641 -0.0561
  106MOL  Cl11112921   9.177   5.487   1.798  0.0872  0.1582  0.5545
  106MOL  Cl11212922   9.029   5.625   1.602 -0.2390  0.2742 -0.3929
  106MOL   C11312923   8.937   5.603   1.858  0.3305 -0.0537 -0.0058
  106MOL   H11412924   8.863   5.681   1.836 -0.1261 -0.6424 -0.5649
  106MOL   H11512925   8.884   5.520   1.813 -0.3601 -0.6668  1.9077
  106MOL   C11612926   8.928   5.580   2.008 -0.4100 -0.4108  0.1606
  106MOL  Cl11712927   8.760   5.609   2.044  0.1667  0.2688 -0.4105
  106MOL  Cl11812928   9.019   5.697   2.105  0.0585 -0.1730 -0.1444
  106MOL   C11912929   8.947   5.438   2.053  0.0730 -0.3196 -0.5283
  106MOL   H12012930   8.931   5.423   2.159  0.7802  1.8540 -0.0737
  106MOL   H12112931   8.872   5.377   2.003  2.2278 -1.3938 -2.5390
  106MOL   H12212932   9.044   5.396   2.025  1.1071  2.7338 -1.9032
  107MOL     C112933   5.618   6.548   2.950 -0.0050 -0.6879  0.0360
  107MOL    Cl212934   5.636   6.380   3.020 -0.0757 -0.2092 -0.0825
  107MOL    Cl312935   5.445   6.603   2.964  0.3957 -0.2450  0.5397
  107MOL     C412936   5.708   6.646   3.021 -0.1872 -0.2101  0.0898
  107MOL     H512937   5.659   6.743   3.012  0.1062 -0.0161  0.5369
  107MOL     H612938   5.700   6.622   3.127  0.0887 -0.8625 -0.0340
  107MOL     H712939   5.640   6.539   2.843  0.8521  1.0260  0.0500
  107MOL     C812940   5.859   6.649   2.984 -0.0239  0.3811 -0.4973
  107MOL    Cl912941   5.884   6.674   2.804  0.1867 -0.2583 -0.4688
  107MOL   Cl1012942   5.948   6.504   3.048 -0.2172 -0.0063 -0.6661
  107MOL    C1112943   5.946   6.764   3.053  0.4355 -0.6164  0.1167
  107MOL    H1212944   5.963   6.729   3.155  0.3078  1.4536  0.8775
  107MOL    H1312945   6.040   6.769   2.998  0.3226  0.1476 -0.0206
  107MOL    C1412946   5.889   6.906   3.077  0.2595  0.1335 -0.3477
  107MOL   Cl1512947   5.749   6.903   3.194  0.2151 -0.1416  0.4282
  107MOL   Cl1612948   5.812   6.958   2.918 -0.5124  0.0925 -0.1642
  107MOL    C1712949   5.987   7.021   3.115  0.7700 -0.3600  0.1468
  107MOL    H1812950   6.050   7.051   3.032  0.7327  1.1494  0.6533
  107MOL    H1912951   5.918   7.103   3.136  1.0117  0.4031 -1.9268
  107MOL    C2012952   6.091   7.003   3.232  0.2356  0.2326  0.0817
  107MOL   Cl2112953   6.164   7.165   3.259 -0.1896  0.4698  0.0506
  107MOL   Cl2212954   6.212   6.893   3.162  0.3354 -0.6134 -0.2920
  107MOL    C2312955   6.035   6.946   3.368 -0.0036 -0.3564  0.6809
  107MOL    H2412956   5.951   7.008   3.399  0.3405  0.8620 -0.7392
  107MOL    H2512957   6.002   6.843   3.353 -1.2857  0.2939 -1.2143
  107MOL    C2612958   6.130   6.925   3.488  0.6554 -0.2457 -1.3529
  107MOL   Cl2712959   6.019   6.848   3.609  0.0824 -0.1401 -0.0556
  107MOL   Cl2812960   6.171   7.084   3.563  0.0455 -0.0770 -0.4860
  107MOL    C2912961   6.268   6.836   3.487  0.1152  0.0760 -0.2998
  107MOL    H3012962   6.330   6.886   3.412 -0.7696  1.5185 -0.0779
  107MOL    H3112963   6.321   6.860   3.579  0.2728 -0.5365 -0.2251
  107MOL    C3212964   6.267   6.677   3.472 -0.3315  0.6503  0.1522
  107MOL   Cl3312965   6.151   6.633   3.345  0.4377 -0.3294  0.1205
  107MOL   Cl3412966   6.214   6.598   3.623  0.0582 -0.0835  0.1284
  107MOL    C3512967   6.406   6.635   3.431 -0.2967  0.3322 -0.0978
  107MOL    H3612968   6.437   6.693   3.343  0.6727 -0.8573 -0.5622
  107MOL    H3712969   6.470   6.673   3.511 -0.4505  1.4246 -0.4812
  107MOL    C3812970   6.455   6.486   3.398  0.2730  1.5466 -0.5308
  107MOL   Cl3912971   6.347   6.410   3.280 -0.2037 -0.2174 -0.3324
  107MOL   Cl4012972   6.444   6.396   3.551 -0.3383 -0.0545  0.1501
  107MOL    C4112973   6.600   6.461   3.340 -0.3807 -0.3043  0.0036
  107MOL    H4212974   6.662   6.460   3.429 -0.2115 -2.1034 -0.1143
  107MOL    H4312975   6.591   6.357   3.306  0.8208 -0.2447 -0.5146
  107MOL    C4412976   6.672   6.533   3.227 -0.9608  0.1121 -0.8278
  107MOL   Cl4512977   6.824   6.454   3.204  0.1735 -0.1317 -0.2248
  107MOL   Cl4612978   6.717   6.701   3.275  0.2937 -0.2130 -0.2968
  107MOL    C4712979   6.585   6.542   3.091 -0.0481 -0.6304 -0.3913
  107MOL    H4812980   6.546   6.442   3.069 -2.7706  0.3300 -0.2140
  107MOL    H4912981   6.494   6.591   3.127  1.0301  0.3552  1.0104
  107MOL    C5012982   6.644   6.589   2.953 -0.2506 -0.2150  0.2157
  107MOL   Cl5112983   6.748   6.470   2.887  0.3175 -0.1102 -0.0952
  107MOL   Cl5212984   6.747   6.735   2.977 -0.0407  0.0096  0.3416
  107MOL    C5312985   6.551   6.631   2.838 -0.3393 -0.8214  0.4258
  107MOL    H5412986   6.608   6.690   2.767 -0.0091 -0.2043  1.1927
  107MOL    H5512987   6.520   6.539   2.789  0.2423 -1.2952  0.9311
  107MOL    C5612988   6.421   6.714   2.865 -0.3689  0.1897 -0.0502
  107MOL   Cl5712989   6.454   6.876   2.926 -0.0930 -0.3195 -0.2292
  107MOL   Cl5812990   6.303   6.639   2.968 -0.1856 -0.2921  0.3475
  107MOL    C5912991   6.345   6.727   2.732 -0.1663  0.3499  0.2897
  107MOL    H6012992   6.248   6.766   2.762 -1.6718 -0.7590 -2.8893
  107MOL    H6112993   6.389   6.812   2.681 -0.2562  0.9370  1.1762
  107MOL    C6212994   6.320   6.612   2.630 -0.0869 -0.1440  0.5568
  107MOL   Cl6312995   6.263   6.472   2.712 -0.0314 -0.0710  0.4580
  107MOL   Cl6412996   6.472   6.574   2.534  0.1077  0.0155  0.1160
  107MOL    C6512997   6.199   6.645   2.533 -0.4925  0.5832  0.2347
  107MOL    H6612998   6.181   6.553   2.477  0.5992 -0.8846  2.2157
  107MOL    H6712999   6.109   6.632   2.595  0.7339  0.3772  2.0057
  107MOL    C6813000   6.184   6.769   2.437 -0.1172  0.0752 -0.0987
  107MOL   Cl6913001   6.160   6.916   2.531  0.2511 -0.2615 -0.1390
  107MOL   Cl7013002   6.038   6.743   2.342  0.0252  0.2387  0.4581
  107MOL    C7113003   6.299   6.789   2.339 -0.1579 -0.1840 -0.7345
  107MOL    H7213004   6.385   6.812   2.401 -1.8486 -2.9020  2.8291
  107MOL    H7313005   6.315   6.687   2.304  1.7686 -0.2065  0.1846
  107MOL    C7413006   6.293   6.889   2.219 -0.4593  0.7123 -0.5616
  107MOL   Cl7513007   6.228   6.797   2.089 -0.4115 -0.2269 -0.2674
  107MOL   Cl7613008   6.464   6.940   2.196 -0.0777 -0.1411 -0.2365
  107MOL    C7713009   6.215   7.017   2.249  0.8644 -0.5316  0.8661
  107MOL    H7813010   6.111   6.991   2.270  0.6049 -0.4472 -0.2677
  107MOL    H7913011   6.264   7.063   2.334  0.5323  0.1912  0.6779
  107MOL    C8013012   6.191   7.128   2.141 -0.0525  0.0137 -0.3446
  107MOL   Cl8113013   6.142   7.269   2.235 -0.3803 -0.0303  0.7138
  107MOL   Cl8213014   6.047   7.076   2.049 -0.2520 -0.0094 -0.2766
  107MOL    C8313015   6.318   7.161   2.047  0.0936  0.2377 -0.5122
  107MOL    H8413016   6.396   7.209   2.106 -1.9185  1.4351  1.2371
  107MOL    H8513017   6.367   7.066   2.023 -0.2960 -0.3333  0.8709
  107MOL    C8613018   6.301   7.239   1.924 -0.0748  0.6336 -0.2983
  107MOL   Cl8713019   6.468   7.268   1.866 -0.0484 -0.1820 -0.0193
  107MOL   Cl8813020   6.213   7.395   1.956  0.0431 -0.4114 -0.1350
  107MOL    C8913021   6.223   7.187   1.799  0.5914  0.3223 -0.1478
  107MOL    H9013022   6.115   7.190   1.812  0.6346  0.0653  0.2563
  107MOL    H9113023   6.247   7.267   1.728 -1.6269  1.8094  0.7159
  107MOL    C9213024   6.259   7.046   1.725 -0.6808  0.5255 -0.8814
  107MOL   Cl9313025   6.419   6.976   1.775 -0.4894  0.0214 -0.0844
  107MOL   Cl9413026   6.266   7.086   1.547  0.2282  0.0497 -0.0837
  107MOL    C9513027   6.146   6.935   1.753  0.2142 -0.2198 -0.6004
  107MOL    H9613028   6.175   6.893   1.849 -1.7830 -0.1743  0.0520
  107MOL    H9713029   6.049   6.983   1.761  0.2074 -0.1067 -1.3519
  107MOL    C9813030   6.119   6.816   1.658  0.2093  0.0471 -0.9358
  107MOL   Cl9913031   6.018   6.868   1.523  0.1022 -0.2055 -0.2135
  107MOL  Cl10013032   6.003   6.719   1.763 -0.0692  0.0159 -0.3452
  107MOL   C10113033   6.245   6.739   1.619  0.0140 -0.3122 -0.1180
  107MOL   H10213034   6.316   6.808   1.576  2.1791 -1.6806  1.1755
  107MOL   H10313035   6.289   6.709   1.714  0.6876 -2.3136 -1.0285
  107MOL   C10413036   6.231   6.616   1.518  0.4868 -0.6215  0.8291
  107MOL  Cl10513037   6.387   6.527   1.511 -0.0895  0.1007  0.3693
  107MOL  Cl10613038   6.239   6.678   1.352  0.1543 -0.2754 -0.1144
  107MOL   C10713039   6.117   6.505   1.548  0.2905  0.6453 -0.5560
  107MOL   H10813040   6.096   6.488   1.653 -0.5923  0.8401 -0.6951
  107MOL   H10913041   6.021   6.554   1.527 -0.2735  0.7511  2.1201
  107MOL   C11013042   6.129   6.356   1.498  0.1045 -0.1889  0.3426
  107MOL  Cl11113043   5.965   6.292   1.510 -0.3128  0.0950  0.5331
  107MOL  Cl11213044   6.230   6.253   1.610  0.1661  0.1032  0.2019
  107MOL   C11313045   6.175   6.338   1.351 -0.1245 -0.4273  0.0677
  107MOL   H11413046   6.101   6.380   1.284  1.0360  0.3279 -0.7620
  107MOL   H11513047   6.268   6.392   1.335 -0.4478 -0.1567 -0.9194
  107MOL   C11613048   6.220   6.207   1.282 -0.8287  0.2561 -0.5121
  107MOL  Cl11713049   6.377   6.153   1.335  0.1244  0.0520  0.1758
  107MOL  Cl11813050   6.228   6.251   1.107 -0.4103  0.0911 -0.3631
  107MOL   C11913051   6.119   6.092   1.285  0.1529 -0.4984 -0.7983
  107MOL   H12013052   6.095   6.067   1.388  0.9484  0.8054 -0.2799
  107MOL   H12113053   6.020   6.119   1.249 -0.1451 -0.3597  0.1157
  107MOL   H12213054   6.150   6.000   1.235  0.5878 -0.5589 -0.4215
  108MOL     C113055   7.059   6.904   9.129  0.3681  0.1368 -0.3029
  108MOL    Cl213056   6.931   6.904   0.079  0.7204  0.0382  0.2236
  108MOL    Cl313057   7.119   6.736   9.110  0.0541 -0.3613 -0.1110
  108MOL     C413058   6.995   6.953   8.993  0.0275  0.2116  0.5070
  108MOL     H513059   7.048   6.902   8.912 -1.9252  0.2707 -0.8361
  108MOL     H613060   6.889   6.926   8.997 -0.0383  0.7539  3.6140
  108MOL     H713061   7.147   6.964   9.155  0.6776 -0.9407  1.2356
  108MOL     C813062   7.018   7.101   8.960 -0.0103  0.3264  0.7176
  108MOL    Cl913063   7.198   7.112   8.980 -0.0701  0.2897 -0.2301
  108MOL   Cl1013064   6.923   7.191   9.075  0.6159 -0.4866 -0.0872
  108MOL    C1113065   6.977   7.147   8.821 -0.5286  0.7902 -0.1088
  108MOL    H1213066   7.002   7.066   8.753 -0.8006  1.0167 -0.4827
  108MOL    H1313067   6.868   7.140   8.819 -0.5405  0.7926  0.3731
  108MOL    C1413068   7.022   7.283   8.760  0.0594 -0.4544 -0.0643
  108MOL   Cl1513069   6.927   7.298   8.613 -0.3134  0.2249 -0.1697
  108MOL   Cl1613070   7.195   7.269   8.718 -0.6763  0.1856  0.0472
  108MOL    C1713071   6.984   7.402   8.851  0.0369  0.8017 -0.0373
  108MOL    H1813072   6.887   7.390   8.899 -0.2255 -0.0754 -0.7852
  108MOL    H1913073   7.062   7.398   8.928  0.3171 -1.2425 -0.4077
  108MOL    C2013074   6.998   7.544   8.796  0.1140  0.4328  0.0841
  108MOL   Cl2113075   7.005   7.644   8.942  0.2471 -0.2947  0.3912
  108MOL   Cl2213076   6.844   7.581   8.720  0.1183 -0.0216 -0.2437
  108MOL    C2313077   7.126   7.570   8.708 -0.3695 -0.4094  0.4401
  108MOL    H2413078   7.217   7.540   8.759  0.2591  0.1252 -0.3616
  108MOL    H2513079   7.116   7.499   8.627  0.9678 -1.4060  1.1320
  108MOL    C2613080   7.169   7.710   8.652 -0.1653 -0.5163  0.1228
  108MOL   Cl2713081   7.036   7.808   8.591 -0.0160 -0.1601  0.0748
  108MOL   Cl2813082   7.279   7.680   8.507 -0.1871 -0.1473 -0.4699
  108MOL    C2913083   7.246   7.799   8.752 -0.0233 -0.2655  0.2009
  108MOL    H3013084   7.166   7.846   8.809 -0.2834 -1.2338  0.6491
  108MOL    H3113085   7.297   7.735   8.825  1.1582  0.0337 -0.3413
  108MOL    C3213086   7.340   7.928   8.722 -0.1373 -0.2182 -0.1865
  108MOL   Cl3313087   7.505   7.869   8.678  0.3075  0.1205 -0.0415
  108MOL   Cl3413088   7.357   8.009   8.877  0.1937 -0.4775 -0.1349
  108MOL    C3513089   7.285   8.023   8.617 -0.4086 -0.5230  0.3522
  108MOL    H3613090   7.292   7.972   8.521 -0.1048  0.0269  0.0773
  108MOL    H3713091   7.178   8.030   8.632 -0.9085 -0.1474 -2.8848
  108MOL    C3813092   7.339   8.171   8.585 -0.0786  0.0400 -0.2787
  108MOL   Cl3913093   7.314   8.298   8.713 -0.2762  0.1128  0.1215
  108MOL   Cl4013094   7.244   8.223   8.439  0.3794 -0.0107  0.2222
  108MOL    C4113095   7.484   8.170   8.566  0.0980  0.0888 -0.0001
  108MOL    H4213096   7.530   8.176   8.664  0.9532 -0.9528 -0.3322
  108MOL    H4313097   7.507   8.072   8.525  1.0642  0.6274 -0.7645
  108MOL    C4413098   7.564   8.271   8.470  0.4537  0.6677  0.2664
  108MOL   Cl4513099   7.494   8.433   8.477  0.4472 -0.5714 -0.0948
  108MOL   Cl4613100   7.540   8.216   8.295 -0.0442  0.1962  0.3421
  108MOL    C4713101   7.714   8.289   8.495  0.1912 -0.4171  0.4373
  108MOL    H4813102   7.762   8.329   8.406 -0.2965  1.1653  0.8659
  108MOL    H4913103   7.724   8.365   8.573 -0.2233 -1.3237  1.4011
  108MOL    C5013104   7.799   8.171   8.543  0.9293 -0.6248 -0.2233
  108MOL   Cl5113105   7.765   8.017   8.454 -0.1078  0.1981 -0.0809
  108MOL   Cl5213106   7.755   8.140   8.721 -0.3674  0.2630 -0.0831
  108MOL    C5313107   7.955   8.188   8.522  0.3574 -0.0872  0.8840
  108MOL    H5413108   8.007   8.100   8.557  0.5561 -0.8344 -1.2303
  108MOL    H5513109   7.971   8.194   8.414  1.4713 -0.6516  1.0183
  108MOL    C5613110   8.024   8.312   8.586 -0.5068 -0.5946 -0.1798
  108MOL   Cl5713111   7.964   8.361   8.745  0.1379 -0.1311  0.0794
  108MOL   Cl5813112   7.994   8.447   8.462  0.1945  0.0964 -0.3480
  108MOL    C5913113   8.173   8.280   8.590  0.2079 -0.0810 -0.1428
  108MOL    H6013114   8.182   8.188   8.647  2.9456 -0.5730 -1.2892
  108MOL    H6113115   8.194   8.248   8.488  3.6653 -1.5442  0.9431
  108MOL    C6213116   8.285   8.379   8.640  0.0254  0.0097 -0.4204
  108MOL   Cl6313117   8.308   8.479   8.495 -0.0845 -0.2070  0.2652
  108MOL   Cl6413118   8.437   8.284   8.647  0.6262  0.2232 -0.0518
  108MOL    C6513119   8.262   8.460   8.775  0.3205 -0.9297 -0.5108
  108MOL    H6613120   8.197   8.545   8.752  0.6472  0.1149  2.1832
  108MOL    H6713121   8.198   8.398   8.838  0.2579  0.6810  1.0381
  108MOL    C6813122   8.391   8.508   8.859  0.3960 -0.0503 -0.0295
  108MOL   Cl6913123   8.465   8.358   8.936 -0.0533  0.0427  0.1475
  108MOL   Cl7013124   8.319   8.613   8.989  0.2848  0.3516  0.1561
  108MOL    C7113125   8.500   8.582   8.782  0.3119 -0.1557 -0.1514
  108MOL    H7213126   8.516   8.544   8.682  2.6719  0.0543  0.1197
  108MOL    H7313127   8.456   8.681   8.765 -0.8584 -0.3230  1.6652
  108MOL    C7413128   8.643   8.620   8.845 -0.3946  0.3170 -0.1622
  108MOL   Cl7513129   8.716   8.734   8.736 -0.3363  0.2336  0.4452
  108MOL   Cl7613130   8.762   8.482   8.829  0.0419 -0.4580 -0.2078
  108MOL    C7713131   8.630   8.675   9.000  0.2411  0.0303  0.2882
  108MOL    H7813132   8.547   8.745   9.006  2.3486  2.7176 -0.7380
  108MOL    H7913133   8.604   8.586   9.057 -0.2044 -0.4228 -0.6237
  108MOL    C8013134   8.743   8.736   9.078 -0.0376  0.3623 -0.2802
  108MOL   Cl8113135   8.662   8.751   0.056 -0.1143  0.1412 -0.0962
  108MOL   Cl8213136   8.787   8.899   9.007  0.1178  0.1646 -0.2323
  108MOL    C8313137   8.864   8.638   9.083  0.6973 -0.1244  0.6516
  108MOL    H8413138   8.836   8.539   9.119  1.5852 -0.0411  1.6077
  108MOL    H8513139   8.903   8.639   8.981  2.0383 -0.1100  1.1556
  108MOL    C8613140   8.983   8.654   9.172  0.0306 -0.4043 -0.0546
  108MOL   Cl8713141   9.077   8.805   9.156 -0.1916 -0.1946  0.3492
  108MOL   Cl8813142   9.096   8.527   9.113 -0.1295 -0.5184 -0.1685
  108MOL    C8913143   8.936   8.639   0.141 -0.6458  0.0887 -0.3209
  108MOL    H9013144   8.900   8.740   0.163 -0.5226  0.4639 -1.8328
  108MOL    H9113145   8.853   8.568   0.144 -2.2368  1.7855 -2.5172
  108MOL    C9213146   9.033   8.593   0.256  0.5439  0.5409 -0.0711
  108MOL   Cl9313147   9.035   8.411   0.261 -0.1245 -0.5778 -0.2404
  108MOL   Cl9413148   8.974   8.641   0.411  0.0184  0.3072  0.0595
  108MOL    C9513149   9.173   8.656   0.251  0.2219  0.1020 -0.0554
  108MOL    H9613150   0.031   8.653   0.149  2.3705 -0.9063  0.7577
  108MOL    H9713151   9.165   8.764   0.264  2.5704  0.2315  0.4010
  108MOL    C9813152   0.115   8.593   0.327  0.0597 -0.4200 -0.0771
  108MOL   Cl9913153   0.238   8.723   0.321  0.2755 -0.0495  0.2387
  108MOL  Cl10013154   0.174   8.453   0.233 -0.0850 -0.0149  0.0135
  108MOL   C10113155   0.079   8.556   0.478 -0.4802  0.5192 -0.4764
  108MOL   H10213156   0.034   8.644   0.524  1.3884  0.9780  0.5163
  108MOL   H10313157   0.005   8.475   0.477  2.1300 -1.9297  0.0099
  108MOL   C10413158   0.185   8.496   0.572  0.8855 -0.0976  0.1680
  108MOL  Cl10513159   0.209   8.324   0.526  0.2327  0.0756  0.0032
  108MOL  Cl10613160   0.112   8.507   0.734 -0.0355 -0.1643 -0.2304
  108MOL   C10713161   0.320   8.576   0.570 -0.2322  0.4353  0.0757
  108MOL   H10813162   0.379   8.573   0.479 -0.2151 -0.5247  0.1193
  108MOL   H10913163   0.303   8.684   0.569 -0.9910  0.3171 -0.6043
  108MOL   C11013164   0.425   8.555   0.680  0.9494  0.3137 -1.0225
  108MOL  Cl11113165   0.393   8.655   0.829 -0.5979 -0.1197 -0.2791
  108MOL  Cl11213166   0.572   8.621   0.606 -0.1632 -0.1078 -0.5203
  108MOL   C11313167   0.448   8.412   0.714  1.2195 -0.4578  0.1542
  108MOL   H11413168   0.357   8.375   0.761  1.3007 -2.3089 -1.1085
  108MOL   H11513169   0.449   8.350   0.625 -1.1751 -0.2593 -0.0438
  108MOL   C11613170   0.573   8.369   0.800  1.3382  0.5564 -0.1129
  108MOL  Cl11713171   0.715   8.348   0.692 -0.2808 -0.1003 -0.0413
  108MOL  Cl11813172   0.533   8.207   0.863  0.4239 -0.2474 -0.3207
  108MOL   C11913173   0.615   8.455   0.916  0.8453  0.1891  0.5845
  108MOL   H12013174   0.702   8.412   0.967  2.2187  0.6551 -1.3178
  108MOL   H12113175   0.641   8.559   0.898  0.1525  0.5172  1.4582
  108MOL   H12213176   0.541   8.458   0.996  2.0547 -0.9373  1.7935
  109MOL     C113177   7.566   7.824   7.754 -0.1735  0.6383  0.2596
  109MOL    Cl213178   7.573   7.953   7.636  0.1626 -0.2653 -0.0048
  109MOL    Cl313179   7.570   7.659   7.684  0.0905 -0.1842  0.1006
  109MOL     C413180   7.680   7.845   7.857  0.2153  0.3520  0.3267
  109MOL     H513181   7.722   7.748   7.884  0.2808  0.5175  0.8250
  109MOL     H613182   7.769   7.880   7.805  0.7109 -1.0645  0.2089
  109MOL     H713183   7.472   7.838   7.808 -0.5808  3.2906 -1.0636
  109MOL     C813184   7.650   7.930   7.984  0.5215 -0.3754  0.5661
  109MOL    Cl913185   7.530   7.862   8.093  0.0570  0.0830  0.1106
  109MOL   Cl1013186   7.581   8.087   7.937 -0.0766  0.1312 -0.1096
  109MOL    C1113187   7.771   7.959   8.076  0.0325 -0.6422  0.0708
  109MOL    H1213188   7.825   8.034   8.018  1.0662 -2.0740 -0.8414
  109MOL    H1313189   7.748   8.020   8.163 -0.2202 -1.1600  0.3647
  109MOL    C1413190   7.874   7.849   8.115  1.0578 -0.5579 -0.9162
  109MOL   Cl1513191   7.992   7.942   8.214  0.5834 -0.4970  0.1694
  109MOL   Cl1613192   7.974   7.795   7.974 -0.2132  0.1468 -0.6642
  109MOL    C1713193   7.817   7.722   8.191  0.7351  0.5598 -0.1963
  109MOL    H1813194   7.765   7.766   8.276 -1.4188 -1.5673 -0.3687
  109MOL    H1913195   7.742   7.668   8.133 -0.4799  3.4166 -1.3982
  109MOL    C2013196   7.900   7.600   8.243  0.0184  0.5466 -0.0384
  109MOL   Cl2113197   7.941   7.496   8.100 -0.0279 -0.4163 -0.2670
  109MOL   Cl2213198   7.788   7.518   8.355  0.0105 -0.0747 -0.0500
  109MOL    C2313199   8.036   7.629   8.314  0.1877 -0.4953 -0.2108
  109MOL    H2413200   8.111   7.647   8.237  0.6055  0.5328  0.4206
  109MOL    H2513201   8.033   7.730   8.356  0.7931 -0.7562  0.4706
  109MOL    C2613202   8.106   7.519   8.402 -0.2286  0.3397  0.1276
  109MOL   Cl2713203   8.017   7.525   8.558  0.0999 -0.1007  0.2319
  109MOL   Cl2813204   8.278   7.583   8.434  0.0522 -0.4208 -0.0910
  109MOL    C2913205   8.111   7.368   8.349  0.8080 -0.9936 -0.6835
  109MOL    H3013206   8.129   7.301   8.432  0.1576  0.6797  0.8384
  109MOL    H3113207   8.012   7.343   8.310 -0.5210  3.6622 -0.7257
  109MOL    C3213208   8.216   7.322   8.240  0.6109 -0.1114  0.7072
  109MOL   Cl3313209   8.374   7.289   8.320 -0.0439 -0.1217 -0.2686
  109MOL   Cl3413210   8.257   7.449   8.121  0.3125 -0.1604 -0.2979
  109MOL    C3513211   8.169   7.195   8.169  0.1094 -0.7244  0.0592
  109MOL    H3613212   8.194   7.117   8.241 -0.5013 -0.1223  0.9382
  109MOL    H3713213   8.061   7.191   8.161  0.2455 -1.2152 -1.8920
  109MOL    C3813214   8.220   7.140   8.033  0.7185  0.3597  0.6786
  109MOL   Cl3913215   8.162   7.235   7.908 -0.1474 -0.3121  0.0256
  109MOL   Cl4013216   8.126   6.993   8.019 -0.0856 -0.1362 -0.4047
  109MOL    C4113217   8.375   7.119   8.022 -0.2873 -0.9010 -0.0607
  109MOL    H4213218   8.427   7.215   8.026  1.6565 -1.8629 -1.3483
  109MOL    H4313219   8.414   7.069   8.111  2.0953  0.8154 -0.0954
  109MOL    C4413220   8.444   7.046   7.900 -0.1509  0.0732  0.6449
  109MOL   Cl4513221   8.619   7.033   7.952  0.1758  0.7950  0.0198
  109MOL   Cl4613222   8.436   7.160   7.771 -0.0280 -0.0391  0.2697
  109MOL    C4713223   8.388   6.907   7.859 -0.2355 -0.0318 -0.0447
  109MOL    H4813224   8.382   6.836   7.941 -0.2883  1.1479  0.9935
  109MOL    H4913225   8.289   6.924   7.818  0.1103 -0.0502 -0.9068
  109MOL    C5013226   8.449   6.816   7.742 -0.1568  0.0012  0.2168
  109MOL   Cl5113227   8.331   6.680   7.711  0.4879  0.4701  0.1170
  109MOL   Cl5213228   8.610   6.751   7.794 -0.0687  0.3794  0.5736
  109MOL    C5313229   8.477   6.900   7.611 -0.6689 -0.3107  0.7373
  109MOL    H5413230   8.394   6.969   7.597  0.0196  0.5335  0.7674
  109MOL    H5513231   8.563   6.964   7.628  0.4041 -1.5252 -0.0915
  109MOL    C5613232   8.501   6.840   7.466  0.2901  0.5060  0.0497
  109MOL   Cl5713233   8.336   6.823   7.405  0.7376  0.6144 -0.0662
  109MOL   Cl5813234   8.589   6.684   7.475 -0.0455 -0.4071  0.0020
  109MOL    C5913235   8.574   6.937   7.368  0.2891  0.2119 -0.4491
  109MOL    H6013236   8.529   7.035   7.382 -1.9115 -0.5885 -1.7756
  109MOL    H6113237   8.680   6.944   7.396  0.1110  1.5685 -0.0859
  109MOL    C6213238   8.566   6.910   7.217 -0.2546 -0.5951  0.0659
  109MOL   Cl6313239   8.700   7.002   7.136 -0.4077  0.2844 -0.0889
  109MOL   Cl6413240   8.411   6.986   7.157 -0.7190 -0.1000 -0.5381
  109MOL    C6513241   8.579   6.763   7.165  0.1720 -0.0621  0.5596
  109MOL    H6613242   8.684   6.732   7.167  0.4608  0.9106  0.5860
  109MOL    H6713243   8.522   6.706   7.238 -0.0715 -0.3757  0.1274
  109MOL    C6813244   8.529   6.723   7.023 -0.2477  0.5405  0.0586
  109MOL   Cl6913245   8.584   6.840   6.901 -0.1078  0.0576  0.3684
  109MOL   Cl7013246   8.351   6.707   7.016 -0.3420  0.3192  0.1444
  109MOL    C7113247   8.573   6.569   6.992  0.0788  0.4485  0.3086
  109MOL    H7213248   8.508   6.512   7.058 -0.6685  0.7050 -0.1952
  109MOL    H7313249   8.533   6.539   6.895  1.8620  0.0683 -0.3410
  109MOL    C7413250   8.724   6.521   6.986  0.4282 -0.3199 -0.2760
  109MOL   Cl7513251   8.782   6.476   7.139 -0.2739 -0.0464 -0.0605
  109MOL   Cl7613252   8.823   6.638   6.912  0.1741  0.3211 -0.6073
  109MOL    C7713253   8.724   6.398   6.896  0.6925  0.4264  0.1555
  109MOL    H7813254   8.657   6.339   6.959 -1.1566  2.1367 -0.1609
  109MOL    H7913255   8.670   6.409   6.803 -2.3426  2.2007  2.0265
  109MOL    C8013256   8.843   6.305   6.873  0.3427  0.3532  0.5436
  109MOL   Cl8113257   8.776   6.180   6.769  0.5573  0.0332 -0.4608
  109MOL   Cl8213258   8.887   6.222   7.027  0.0702  0.3716  0.5056
  109MOL    C8313259   8.981   6.357   6.820  0.4863  0.2678 -0.3295
  109MOL    H8413260   8.955   6.446   6.763 -1.8947 -0.0770  0.1531
  109MOL    H8513261   9.039   6.390   6.906  2.2847  0.9918 -1.7790
  109MOL    C8613262   9.071   6.269   6.723 -0.5364 -0.2633  0.1193
  109MOL   Cl8713263   0.038   6.366   6.730  0.1634 -0.2832 -0.3511
  109MOL   Cl8813264   9.009   6.277   6.555  0.5143  0.5566  0.0300
  109MOL    C8913265   9.107   6.121   6.768 -0.0881 -0.2058  0.8679
  109MOL    H9013266   9.164   6.140   6.860  1.0605 -0.5715  0.2396
  109MOL    H9113267   9.011   6.083   6.803 -1.0898  1.9839  0.5624
  109MOL    C9213268   9.168   6.024   6.666 -0.4398  0.7427  0.9202
  109MOL   Cl9313269   0.054   5.889   6.775 -0.0868 -0.5585 -0.3336
  109MOL   Cl9413270   0.128   6.103   6.586 -0.0611 -0.0513 -0.1010
  109MOL    C9513271   9.063   5.970   6.563 -0.1425 -0.1123 -0.5923
  109MOL    H9613272   8.965   5.963   6.610 -0.0103  1.6271 -0.0061
  109MOL    H9713273   9.049   6.050   6.491 -0.7880 -0.3117 -0.6890
  109MOL    C9813274   9.078   5.840   6.482  0.3211 -0.1906  0.3001
  109MOL   Cl9913275   0.050   5.834   6.388 -0.4859  0.2215  0.4629
  109MOL  Cl10013276   8.944   5.836   6.366  0.2520 -0.1401  0.3046
  109MOL   C10113277   9.075   5.703   6.560 -0.4488 -0.2732 -0.1494
  109MOL   H10213278   9.179   5.678   6.582 -0.3892  0.5343  0.5451
  109MOL   H10313279   9.033   5.727   6.657 -1.3691 -0.3863 -0.5141
  109MOL   C10413280   9.017   5.570   6.510 -1.0693  0.2208  0.5027
  109MOL  Cl10513281   8.832   5.567   6.506  0.1321 -0.2096  0.1114
  109MOL  Cl10613282   9.057   5.436   6.628 -0.4835  0.1819 -0.0556
  109MOL   C10713283   9.069   5.531   6.368  0.9451  0.0375 -0.1658
  109MOL   H10813284   8.992   5.484   6.307 -0.4341 -0.1801  1.7072
  109MOL   H10913285   9.093   5.621   6.312 -0.6468 -0.1024 -1.1024
  109MOL   C11013286   0.016   5.446   6.353  0.9014  0.1871  0.2721
  109MOL  Cl11113287   9.165   5.271   6.384  0.0735  0.1476 -0.4342
  109MOL  Cl11213288   0.138   5.507   6.466  0.1697  0.3045  0.2168
  109MOL   C11313289   0.072   5.463   6.202 -0.3035  0.1597 -0.7525
  109MOL   H11413290   0.113   5.563   6.187  2.2220 -0.7341 -0.0627
  109MOL   H11513291   0.165   5.408   6.192 -0.0093  0.9192 -2.3752
  109MOL   C11613292   9.162   5.427   6.076  0.0675  1.1184  0.0134
  109MOL  Cl11713293   0.077   5.469   5.931  0.1224 -0.0447  0.1991
  109MOL  Cl11813294   9.010   5.521   6.071  0.0454  0.3104  0.1264
  109MOL   C11913295   9.137   5.275   6.068  0.1649  0.0560 -0.0317
  109MOL   H12013296   0.045   5.221   6.101  1.0743  0.9174 -1.0162
  109MOL   H12113297   9.064   5.246   6.143  1.6551 -1.7276  0.7828
  109MOL   H12213298   9.097   5.236   5.974  0.3521  2.9845 -1.3850
  110MOL     C113299   0.894   6.680   1.467  1.0711  0.7560 -0.0699
  110MOL    Cl213300   0.830   6.623   1.622 -0.1851  0.0473  0.4045
  110MOL    Cl313301   1.068   6.701   1.483 -0.3261  0.3013  0.3995
  110MOL     C413302   0.856   6.600   1.339  0.5989 -0.4258 -0.5760
  110MOL     H513303   0.914   6.638   1.255  0.4566  0.9545 -0.0761
  110MOL     H613304   0.883   6.497   1.359  0.7673 -0.2300  0.2379
  110MOL     H713305   0.859   6.782   1.452 -1.1171  0.4125  2.4115
  110MOL     C813306   0.707   6.619   1.295 -0.7096 -0.4808 -0.1896
  110MOL    Cl913307   0.655   6.787   1.262  0.2480 -0.0341  0.3028
  110MOL   Cl1013308   0.600   6.551   1.416  0.3105 -0.1188  0.0576
  110MOL    C1113309   0.680   6.529   1.168  0.6830  0.4973 -0.4099
  110MOL    H1213310   0.682   6.422   1.189  1.9255  0.3447 -1.2761
  110MOL    H1313311   0.574   6.544   1.145  0.4475 -0.9160 -0.2924
  110MOL    C1413312   0.752   6.542   1.030 -0.1561 -0.3473 -0.1689
  110MOL   Cl1513313   0.639   6.458   0.927  0.4117  0.6093  0.0556
  110MOL   Cl1613314   0.913   6.455   1.022  0.5041 -0.0633 -0.0279
  110MOL    C1713315   0.776   6.691   0.985 -0.8101 -0.1701  0.1118
  110MOL    H1813316   0.677   6.737   0.983 -0.6330  0.2319  0.5863
  110MOL    H1913317   0.837   6.744   1.058 -0.7688 -0.1412  0.0564
  110MOL    C2013318   0.837   6.738   0.847 -0.8092  0.3406 -0.2508
  110MOL   Cl2113319   0.744   6.664   0.709  0.0111 -0.4338 -0.0979
  110MOL   Cl2213320   1.004   6.673   0.828 -0.0459  0.1629 -0.5508
  110MOL    C2313321   0.818   6.897   0.836  0.0772 -0.3090 -0.2386
  110MOL    H2413322   0.714   6.925   0.821  0.0760  1.2161  2.3306
  110MOL    H2513323   0.830   6.930   0.939 -1.3621 -0.9362  0.1398
  110MOL    C2613324   0.912   6.982   0.748 -0.1602 -0.5230  0.0439
  110MOL   Cl2713325   1.072   6.987   0.811  0.2828  0.3342  0.2081
  110MOL   Cl2813326   0.851   7.148   0.759  0.2539 -0.0713  0.0574
  110MOL    C2913327   0.910   6.935   0.599 -0.0088  0.3812  0.0602
  110MOL    H3013328   0.919   6.827   0.595  1.1956  0.4018  1.6549
  110MOL    H3113329   0.812   6.968   0.563  0.2144  1.9543  0.8501
  110MOL    C3213330   1.015   6.972   0.495 -0.3425 -0.1717 -0.7149
  110MOL   Cl3313331   0.934   6.909   0.346 -0.3820  0.0502  0.4959
  110MOL   Cl3413332   1.165   6.875   0.527  0.2906  0.2048  0.3161
  110MOL    C3513333   1.050   7.131   0.494  0.5615 -0.7101 -0.3064
  110MOL    H3613334   0.962   7.193   0.508  1.1363 -0.3946  2.1576
  110MOL    H3713335   1.107   7.162   0.582 -0.8390 -0.6357  0.5852
  110MOL    C3813336   1.122   7.195   0.368 -0.1789  0.0644  0.4633
  110MOL   Cl3913337   1.016   7.203   0.228  0.3203  0.0407  0.1109
  110MOL   Cl4013338   1.262   7.092   0.329  0.0599  0.2499  0.1175
  110MOL    C4113339   1.186   7.335   0.398 -0.4316  0.8881  0.5671
  110MOL    H4213340   1.278   7.329   0.457  0.0747  2.6656 -0.0159
  110MOL    H4313341   1.232   7.370   0.305  0.8290 -1.2731  0.3394
  110MOL    C4413342   1.105   7.447   0.462  0.1796  0.4342  0.1499
  110MOL   Cl4513343   1.088   7.420   0.639  0.2469 -0.0700  0.3177
  110MOL   Cl4613344   0.937   7.454   0.381 -0.3022 -0.2852  0.0272
  110MOL    C4713345   1.164   7.595   0.439 -0.5674 -0.8366 -0.4711
  110MOL    H4813346   1.131   7.616   0.337 -0.0678 -0.5005 -0.5642
  110MOL    H4913347   1.105   7.652   0.510 -0.7146 -0.5851 -0.7943
  110MOL    C5013348   1.311   7.640   0.465  0.2478  0.2840  0.1986
  110MOL   Cl5113349   1.421   7.568   0.345  0.1207  0.0955  0.3733
  110MOL   Cl5213350   1.367   7.582   0.628  0.0321 -0.1201 -0.1840
  110MOL    C5313351   1.324   7.795   0.474  0.4941 -0.4642 -0.7076
  110MOL    H5413352   1.259   7.829   0.554 -1.1696 -0.3812 -2.0709
  110MOL    H5513353   1.416   7.820   0.527  0.1990 -2.7422  0.9737
  110MOL    C5613354   1.302   7.890   0.347 -0.0127  0.2268 -0.0507
  110MOL   Cl5713355   1.138   7.861   0.276 -0.0262  0.1065  0.0084
  110MOL   Cl5813356   1.414   7.849   0.209 -0.0442  0.0481 -0.3769
  110MOL    C5913357   1.314   8.041   0.368 -0.0929  0.1577 -0.7597
  110MOL    H6013358   1.421   8.058   0.354 -0.2183  0.0214 -1.9275
  110MOL    H6113359   1.268   8.094   0.286  1.4519  1.5345 -0.7757
  110MOL    C6213360   1.266   8.115   0.500  0.3864  0.0858 -0.3427
  110MOL   Cl6313361   1.364   8.075   0.647  0.2605 -0.2029 -0.0183
  110MOL   Cl6413362   1.094   8.063   0.536  0.0213 -0.0495  0.2799
  110MOL    C6513363   1.256   8.270   0.489  0.4773 -0.2510  0.4269
  110MOL    H6613364   1.211   8.297   0.584 -0.2049  5.1397 -1.2773
  110MOL    H6713365   1.355   8.313   0.506  0.7127  0.1605 -1.8207
  110MOL    C6813366   1.179   8.349   0.381 -0.0873 -0.1766  0.4534
  110MOL   Cl6913367   1.267   8.342   0.228 -0.1882  0.0681 -0.1010
  110MOL   Cl7013368   1.192   8.524   0.427  0.1536 -0.2823  0.5843
  110MOL    C7113369   1.041   8.308   0.361  0.4781  0.3110  0.0108
  110MOL    H7213370   1.044   8.202   0.335 -0.1002  0.1915  0.4198
  110MOL    H7313371   0.990   8.314   0.457 -0.6141  1.9614 -0.6637
  110MOL    C7413372   0.938   8.380   0.271  0.3282 -0.2387 -0.1670
  110MOL   Cl7513373   0.993   8.407   0.103  0.4911  0.0292  0.2407
  110MOL   Cl7613374   0.906   8.539   0.339 -0.0918 -0.1133  0.2099
  110MOL    C7713375   0.796   8.313   0.267  0.4581 -0.6150 -0.5628
  110MOL    H7813376   0.758   8.299   0.368  1.9105 -2.3549 -0.2396
  110MOL    H7913377   0.730   8.392   0.231 -0.7418 -1.1400  0.4636
  110MOL    C8013378   0.759   8.191   0.178 -0.8330  0.4738 -0.4382
  110MOL   Cl8113379   0.876   8.062   0.209  0.3960 -0.1843 -0.0380
  110MOL   Cl8213380   0.747   8.234   0.007 -0.1822 -0.0107 -0.0396
  110MOL    C8313381   0.623   8.126   0.225  0.5804 -0.4885  0.1182
  110MOL    H8413382   0.596   8.047   0.156 -0.2421  1.0575 -1.3648
  110MOL    H8513383   0.636   8.074   0.320  0.5526  1.0791  1.0073
  110MOL    C8613384   0.490   8.207   0.226 -0.1306 -0.4959 -0.4805
  110MOL   Cl8713385   0.456   8.276   0.069 -0.0983  0.1965  0.1905
  110MOL   Cl8813386   0.514   8.336   0.346 -0.1525  0.4097 -0.0335
  110MOL    C8913387   0.365   8.126   0.262 -0.1076 -0.4262 -0.1096
  110MOL    H9013388   0.286   8.200   0.278 -1.3897 -1.6788 -0.5846
  110MOL    H9113389   0.342   8.061   0.178  0.2010 -1.9490  0.9554
  110MOL    C9213390   0.357   8.012   0.372  0.3655  0.2845 -0.4725
  110MOL   Cl9313391   0.403   8.091   0.525  0.2405 -0.0490  0.1178
  110MOL   Cl9413392   0.462   7.880   0.342 -0.2722 -0.2462  0.2551
  110MOL    C9513393   0.212   7.961   0.405  0.6729  0.5256 -0.2055
  110MOL    H9613394   0.220   7.883   0.481 -1.6053 -0.8043 -1.2452
  110MOL    H9713395   0.149   8.041   0.443 -1.0979 -1.0719  0.3581
  110MOL    C9813396   0.117   7.912   0.283 -0.7266  0.1323  0.1156
  110MOL   Cl9913397   0.198   7.786   0.184 -0.2320 -0.3690  0.2935
  110MOL  Cl10013398   0.068   8.048   0.181 -0.3455  0.0698 -0.7260
  110MOL   C10113399   9.176   7.834   0.335  0.0888 -0.4702  0.0930
  110MOL   H10213400   9.117   7.800   0.249  0.0450 -0.8166  0.2616
  110MOL   H10313401   0.033   7.741   0.376  0.7644  0.1657  0.9405
  110MOL   C10413402   9.092   7.883   0.455 -0.2682 -0.0380  0.0210
  110MOL  Cl10513403   9.036   8.057   0.426 -0.0948 -0.3971  0.0569
  110MOL  Cl10613404   9.177   7.885   0.612 -0.1160  0.3793 -0.1979
  110MOL   C10713405   8.954   7.806   0.466  0.4344 -0.5071  0.2957
  110MOL   H10813406   8.908   7.840   0.559 -1.1109  1.2556 -1.1009
  110MOL   H10913407   8.885   7.836   0.388 -0.7430  1.3704  1.9914
  110MOL   C11013408   8.940   7.645   0.475 -0.0309  0.1091  0.0832
  110MOL  Cl11113409   9.058   7.579   0.586  0.4044 -0.0071 -0.1053
  110MOL  Cl11213410   8.959   7.580   0.311 -0.2178 -0.1636 -0.0257
  110MOL   C11313411   8.806   7.599   0.531 -0.0119  0.4508  0.5100
  110MOL   H11413412   8.808   7.490   0.523 -2.0116  0.5793 -2.5098
  110MOL   H11513413   8.812   7.621   0.638  1.9927  0.0711  0.4931
  110MOL   C11613414   8.672   7.654   0.467 -0.1292 -0.1570  0.3744
  110MOL  Cl11713415   8.635   7.825   0.505 -0.4585 -0.1659  0.0077
  110MOL  Cl11813416   8.540   7.566   0.555 -0.0440  0.0966 -0.0966
  110MOL   C11913417   8.663   7.633   0.316  0.4886 -0.2133  0.4835
  110MOL   H12013418   8.556   7.644   0.298  0.2013  0.2200  2.4120
  110MOL   H12113419   8.717   7.707   0.256 -2.1031  1.6039  0.3307
  110MOL   H12213420   8.676   7.530   0.282 -2.7747 -0.8968  1.1770
  111MOL     C113421   6.648   7.621   8.391 -1.2342 -0.0227 -0.0613
  111MOL    Cl213422   6.550   7.607   8.239  0.1587 -0.1731 -0.2750
  111MOL    Cl313423   6.784   7.735   8.374 -0.1006 -0.3064 -0.0807
  111MOL     C413424   6.567   7.674   8.509  0.9721 -0.0029  0.7436
  111MOL     H513425   6.628   7.707   8.594 -1.1512 -0.2015  2.3869
  111MOL     H613426   6.519   7.759   8.459 -1.1787 -1.9270 -0.5513
  111MOL     H713427   6.696   7.524   8.407 -2.0689 -0.2815  0.9706
  111MOL     C813428   6.460   7.584   8.578  0.0198  0.1203 -0.3212
  111MOL    Cl913429   6.553   7.447   8.642  0.0029  0.0496 -0.2465
  111MOL   Cl1013430   6.338   7.515   8.464 -0.3823  0.0176 -0.2564
  111MOL    C1113431   6.393   7.650   8.699 -0.2718 -0.3582  0.2835
  111MOL    H1213432   6.312   7.588   8.738  1.4653 -3.6524 -1.1008
  111MOL    H1313433   6.460   7.651   8.786 -0.9397 -0.7781  0.8110
  111MOL    C1413434   6.344   7.797   8.698  0.0878 -0.5401  0.3374
  111MOL   Cl1513435   6.233   7.831   8.559  0.0642  0.2217 -0.0969
  111MOL   Cl1613436   6.479   7.911   8.671 -0.0592  0.3135  0.1315
  111MOL    C1713437   6.277   7.839   8.830 -0.7762  0.1564  0.4590
  111MOL    H1813438   6.356   7.852   8.904 -0.3150 -0.9350  0.1701
  111MOL    H1913439   6.241   7.938   8.802 -1.4208 -0.3010 -0.3544
  111MOL    C2013440   6.152   7.757   8.895  0.6703 -0.0468  0.3009
  111MOL   Cl2113441   6.103   7.876   9.020 -0.1077 -0.2176  0.0771
  111MOL   Cl2213442   6.222   7.611   8.979 -0.0479 -0.2631 -0.3230
  111MOL    C2313443   6.032   7.720   8.807  0.1322  0.2956 -0.1182
  111MOL    H2413444   5.978   7.814   8.795  0.8298  0.9637  1.7819
  111MOL    H2513445   6.069   7.680   8.712 -1.2323 -0.6711 -0.2660
  111MOL    C2613446   5.922   7.635   8.873  0.2285 -0.7130 -0.5139
  111MOL   Cl2713447   5.764   7.691   8.813 -0.1860 -0.2309  0.0644
  111MOL   Cl2813448   5.890   7.679   9.047  0.0451 -0.1675 -0.3654
  111MOL    C2913449   5.919   7.476   8.864 -0.4558 -0.3990 -0.3246
  111MOL    H3013450   5.994   7.443   8.936 -0.9518 -1.4296 -0.2840
  111MOL    H3113451   5.822   7.449   8.904 -0.3270 -0.1941  0.1354
  111MOL    C3213452   5.944   7.408   8.727 -0.0427  0.0533  0.2728
  111MOL   Cl3313453   6.115   7.437   8.678  0.3509  0.2270  0.1848
  111MOL   Cl3413454   5.843   7.474   8.599  0.1008  0.2099  0.3493
  111MOL    C3513455   5.931   7.253   8.734 -0.2259 -0.5081 -0.4203
  111MOL    H3613456   5.927   7.216   8.631 -4.7705 -0.2656 -0.3994
  111MOL    H3713457   6.026   7.215   8.773 -0.7090 -0.2311  1.0565
  111MOL    C3813458   5.822   7.187   8.823 -0.2423  0.2797  0.0773
  111MOL   Cl3913459   5.662   7.272   8.814  0.2646  0.0760  0.2755
  111MOL   Cl4013460   5.871   7.184   8.999  0.1548  0.0238 -0.1179
  111MOL    C4113461   5.791   7.043   8.787 -0.6802 -0.0771 -0.1304
  111MOL    H4213462   5.708   7.024   8.854 -1.7823  1.1465 -1.1145
  111MOL    H4313463   5.742   7.043   8.690  0.0308 -0.6888 -0.4970
  111MOL    C4413464   5.886   6.921   8.804  0.0093  0.2757 -0.8148
  111MOL   Cl4513465   5.964   6.893   8.967 -0.3351  0.5768 -0.1397
  111MOL   Cl4613466   6.033   6.946   8.705  0.2502 -0.2907  0.1765
  111MOL    C4713467   5.819   6.786   8.764 -0.8458  0.0891  0.4861
  111MOL    H4813468   5.805   6.786   8.656 -0.2922  0.2225  0.4110
  111MOL    H4913469   5.896   6.717   8.799 -1.9320 -0.0670  2.6658
  111MOL    C5013470   5.681   6.735   8.817 -0.0965  0.0972 -0.3042
  111MOL   Cl5113471   5.550   6.823   8.735 -0.0044  0.1407  0.4251
  111MOL   Cl5213472   5.683   6.754   8.995 -0.4108  0.1742  0.0213
  111MOL    C5313473   5.656   6.581   8.794 -0.2640 -0.5146  0.9234
  111MOL    H5413474   5.715   6.533   8.872  2.2822  0.4274 -0.3619
  111MOL    H5513475   5.548   6.573   8.801 -0.5225  1.1146 -0.8384
  111MOL    C5613476   5.691   6.514   8.658  0.1145  0.7351 -0.6757
  111MOL   Cl5713477   5.869   6.509   8.651  0.3389 -0.2467 -0.0635
  111MOL   Cl5813478   5.634   6.591   8.515  0.4145  0.3048 -0.2024
  111MOL    C5913479   5.629   6.374   8.636 -0.0558 -0.8628  0.2009
  111MOL    H6013480   5.521   6.379   8.624  0.1308  0.2657 -1.0892
  111MOL    H6113481   5.670   6.338   8.541  0.5434 -2.0371  0.8908
  111MOL    C6213482   5.650   6.251   8.730 -0.0949 -0.1780 -0.2389
  111MOL   Cl6313483   5.551   6.126   8.659  0.3884  0.2102 -0.0165
  111MOL   Cl6413484   5.594   6.290   8.895 -0.1113  0.5880  0.0039
  111MOL    C6513485   5.793   6.211   8.737  0.4426  0.4472  0.7354
  111MOL    H6613486   5.836   6.248   8.644  2.1430  1.0448  1.7346
  111MOL    H6713487   5.844   6.278   8.807 -0.8271 -0.0211  2.1516
  111MOL    C6813488   5.833   6.062   8.767  0.4681 -0.0541 -0.4378
  111MOL   Cl6913489   5.799   5.942   8.642  0.0835 -0.3115  0.1040
  111MOL   Cl7013490   5.743   6.016   8.909 -0.2160  0.3373  0.0093
  111MOL    C7113491   5.986   6.042   8.814  0.1423 -0.2148 -0.0017
  111MOL    H7213492   5.999   6.089   8.911  2.3400  0.6348 -0.6795
  111MOL    H7313493   5.986   5.933   8.816 -0.8040 -0.2049  0.8132
  111MOL    C7413494   6.109   6.092   8.721 -0.2407  0.5366 -0.6367
  111MOL   Cl7513495   6.133   6.270   8.719  0.0964 -0.5073 -0.1598
  111MOL   Cl7613496   6.083   6.038   8.552 -0.1440  0.5890 -0.3029
  111MOL    C7713497   6.245   6.026   8.757  0.1118 -0.3550 -0.0997
  111MOL    H7813498   6.241   5.921   8.730  1.9113 -0.6796  0.8748
  111MOL    H7913499   6.312   6.058   8.678 -1.9549  3.9557 -0.2623
  111MOL    C8013500   6.308   6.025   8.897 -0.0548 -0.9427 -0.0857
  111MOL   Cl8113501   6.206   5.920   8.999 -0.0602  0.2912 -0.1485
  111MOL   Cl8213502   6.319   6.191   8.974 -0.6897  0.1087  0.2325
  111MOL    C8313503   6.449   5.950   8.895  0.3869  0.2643  0.7527
  111MOL    H8413504   6.418   5.847   8.877  0.7420  0.3707 -0.5047
  111MOL    H8513505   6.500   5.988   8.806  1.5090 -1.4039  0.6538
  111MOL    C8613506   6.554   5.952   9.016 -0.3152  0.6717  0.6258
  111MOL   Cl8713507   6.633   6.109   9.002 -0.0964  0.2012  0.2024
  111MOL   Cl8813508   6.662   5.821   8.966  0.3203 -0.0247 -0.0191
  111MOL    C8913509   6.484   5.921   9.160 -0.5085  0.0058  0.1319
  111MOL    H9013510   6.419   6.008   9.172  1.2489  1.4570 -0.5236
  111MOL    H9113511   6.428   5.828   9.152  0.2678 -0.7262  3.0054
  111MOL    C9213512   6.563   5.913   0.112  0.2582  0.3754 -0.4680
  111MOL   Cl9313513   6.704   6.031   0.126  0.1374 -0.3126 -0.1102
  111MOL   Cl9413514   6.630   5.748   0.120 -0.3710 -0.3411 -0.0451
  111MOL    C9513515   6.488   5.946   0.245 -0.6350 -0.3514  0.5519
  111MOL    H9613516   6.551   5.917   0.329  0.0243 -1.3510 -0.2640
  111MOL    H9713517   6.482   6.054   0.248  1.4620 -0.0958 -1.8819
  111MOL    C9813518   6.354   5.879   0.275  0.1675 -0.8086 -0.1150
  111MOL   Cl9913519   6.353   5.707   0.249 -0.5804  0.2230 -0.1637
  111MOL  Cl10013520   6.231   5.949   0.167  0.2731 -0.1497  0.3016
  111MOL   C10113521   6.315   5.894   0.435 -0.2638 -0.5354  0.0182
  111MOL   H10213522   6.213   5.854   0.430  0.2876 -1.9077 -0.7442
  111MOL   H10313523   6.377   5.825   0.492 -0.0479 -1.0606 -0.8367
  111MOL   C10413524   6.315   6.028   0.502 -0.0879  0.2957  0.3497
  111MOL  Cl10513525   6.242   6.161   0.411  0.0677  0.5814 -0.4473
  111MOL  Cl10613526   6.482   6.073   0.531  0.4598 -0.3618 -0.2784
  111MOL   C10713527   6.232   6.026   0.640  0.3308 -0.1844  1.1025
  111MOL   H10813528   6.191   6.123   0.669 -2.8105 -1.3009  0.6626
  111MOL   H10913529   6.134   5.979   0.625 -0.7249  2.7770 -2.1648
  111MOL   C11013530   6.295   5.966   0.762  0.1729 -0.2215 -0.2523
  111MOL  Cl11113531   6.424   6.056   0.830 -0.5714 -0.2133  0.6138
  111MOL  Cl11213532   6.355   5.798   0.746 -0.2033  0.3978 -0.4006
  111MOL   C11313533   6.198   5.984   0.889  0.1685  0.5833 -0.0578
  111MOL   H11413534   6.265   5.990   0.975 -2.3002 -1.6397  2.1492
  111MOL   H11513535   6.150   6.081   0.892 -0.4526  0.2960 -0.6149
  111MOL   C11613536   6.087   5.873   0.921  0.0764 -0.0067 -0.1171
  111MOL  Cl11713537   6.004   5.818   0.776  0.2389  0.2533 -0.2769
  111MOL  Cl11813538   5.967   5.947   1.038 -0.2682  0.0499 -0.2580
  111MOL   C11913539   6.140   5.749   1.001  0.2918 -0.0977  0.5975
  111MOL   H12013540   6.194   5.787   1.087  2.2149  0.8265 -0.9775
  111MOL   H12113541   6.049   5.699   1.033  0.4477  0.4498  1.9454
  111MOL   H12213542   6.208   5.683   0.948  1.1911  0.2775  1.2709
  112MOL     C113543   0.127   0.193   8.644 -0.5198 -0.5353  0.7185
  112MOL    Cl213544   0.014   0.063   8.682  0.1983  0.1478 -0.2171
  112MOL    Cl313545   0.264   0.125   8.563 -0.1984 -0.0613  0.2312
  112MOL     C413546   0.077   0.302   8.543 -0.0764  0.0326 -0.1795
  112MOL     H513547   0.159   0.361   8.501  0.7442 -2.0762 -1.6019
  112MOL     H613548   0.028   0.256   8.458 -0.4081 -0.0525  0.0555
  112MOL     H713549   0.159   0.239   8.738  0.1177  1.4009 -0.4098
  112MOL     C813550   9.141   0.400   8.594 -0.0431  0.1133  0.3940
  112MOL    Cl913551   0.016   0.470   8.747  0.0313  0.1454  0.0001
  112MOL   Cl1013552   8.993   0.306   8.621 -0.1260 -0.0597 -0.0998
  112MOL    C1113553   9.091   0.502   8.497  0.7302 -0.1080 -0.5362
  112MOL    H1213554   9.051   0.447   8.412  1.2768 -2.9071  0.9480
  112MOL    H1313555   9.008   0.544   8.554  1.0918 -0.4486  0.2535
  112MOL    C1413556   0.003   0.615   8.440 -0.0377 -0.2252  0.1284
  112MOL   Cl1513557   0.118   0.564   8.315 -0.0412  0.0123 -0.0298
  112MOL   Cl1613558   0.082   0.705   8.567 -0.0129 -0.2098 -0.0798
  112MOL    C1713559   9.099   0.733   8.379 -0.0331  0.4259  0.0912
  112MOL    H1813560   9.029   0.755   8.459  0.0181  0.3814  0.1475
  112MOL    H1913561   9.156   0.826   8.379  2.0188 -0.7961 -1.0108
  112MOL    C2013562   9.012   0.723   8.246  0.7236  0.2481  0.2305
  112MOL   Cl2113563   8.896   0.587   8.258  0.0246 -0.3285 -0.2426
  112MOL   Cl2213564   9.113   0.687   8.107 -0.1172  0.1092  0.0398
  112MOL    C2313565   8.918   0.846   8.215 -0.3460  0.1273 -0.4464
  112MOL    H2413566   8.835   0.819   8.150 -2.2270  1.6331  1.2660
  112MOL    H2513567   8.878   0.859   8.315  2.2422 -2.0289  0.9428
  112MOL    C2613568   8.967   0.988   8.171 -0.2805  0.0027 -0.1326
  112MOL   Cl2713569   9.060   0.987   8.021 -0.0981  0.1636 -0.4106
  112MOL   Cl2813570   9.084   1.045   8.293  0.0365  0.0165  0.0458
  112MOL    C2913571   8.846   1.089   8.167  0.0399  0.0581 -0.1619
  112MOL    H3013572   8.754   1.039   8.133  0.2735  0.5371 -1.5392
  112MOL    H3113573   8.833   1.115   8.272 -0.2675  0.2736 -0.2533
  112MOL    C3213574   8.834   1.211   8.074 -0.0235  0.2821 -0.0429
  112MOL   Cl3313575   8.683   1.289   8.124 -0.0437 -0.0497 -0.2636
  112MOL   Cl3413576   8.824   1.143   7.903 -0.0404  0.1317  0.2886
  112MOL    C3513577   8.955   1.309   8.096 -0.4373  0.9760 -0.0696
  112MOL    H3613578   8.978   1.318   8.202 -0.8955 -0.1461  0.1374
  112MOL    H3713579   9.037   1.246   8.063 -1.8758 -0.4509 -1.0149
  112MOL    C3813580   8.953   1.451   8.031 -0.2632  0.6326 -0.2217
  112MOL   Cl3913581   9.111   1.517   8.094 -0.1515  0.4087  0.0504
  112MOL   Cl4013582   8.835   1.555   8.099 -0.1566 -0.2234 -0.4824
  112MOL    C4113583   8.945   1.441   7.875 -0.1856  0.4529 -0.2846
  112MOL    H4213584   9.012   1.357   7.858  2.9557  2.9736 -0.8975
  112MOL    H4313585   8.845   1.410   7.848  1.0103 -1.5387 -2.5990
  112MOL    C4413586   8.992   1.542   7.773  0.4419  0.2378  0.2063
  112MOL   Cl4513587   9.163   1.514   7.738  0.1723  0.0259 -0.2423
  112MOL   Cl4613588   8.969   1.704   7.836  0.1126  0.1374  0.1304
  112MOL    C4713589   8.912   1.533   7.638  0.0070  0.5119  0.0245
  112MOL    H4813590   8.903   1.428   7.611 -0.1793  0.7405 -0.8205
  112MOL    H4913591   8.809   1.561   7.657 -0.7316 -0.8748 -1.8087
  112MOL    C5013592   8.946   1.615   7.504 -0.0152 -0.3957  0.0546
  112MOL   Cl5113593   8.794   1.621   7.409  0.0676 -0.4612 -0.1906
  112MOL   Cl5213594   9.066   1.518   7.417 -0.5193 -0.0363 -0.1754
  112MOL    C5313595   8.997   1.762   7.528  0.6707  0.2763 -0.3207
  112MOL    H5413596   8.916   1.808   7.584 -0.5112 -1.9398 -0.1601
  112MOL    H5513597   9.077   1.764   7.602 -0.1227  0.5239  0.5392
  112MOL    C5613598   9.029   1.862   7.408 -0.2406 -0.2749 -0.0525
  112MOL   Cl5713599   8.882   1.897   7.320 -0.3611 -0.2718  0.4325
  112MOL   Cl5813600   9.143   1.794   7.290 -0.1204  0.6510  0.4497
  112MOL    C5913601   9.099   1.998   7.443  0.2987 -0.1516 -0.7736
  112MOL    H6013602   0.026   1.985   7.451  0.1827 -0.6817  0.0560
  112MOL    H6113603   9.088   2.054   7.350 -0.0149 -0.7144 -1.0796
  112MOL    C6213604   9.048   2.093   7.557 -0.3193 -0.5343  0.1625
  112MOL   Cl6313605   9.034   2.019   7.712  0.0643 -0.3298  0.1066
  112MOL   Cl6413606   8.887   2.152   7.518  0.1465 -0.0268  0.2714
  112MOL    C6513607   9.141   2.222   7.586 -0.2678 -0.3299  0.4237
  112MOL    H6613608   9.083   2.280   7.657  2.2415  1.0407  1.4433
  112MOL    H6713609   0.051   2.166   7.614  0.4980  0.5196 -0.3223
  112MOL    C6813610   0.011   2.324   7.475  0.3087  0.6176  0.5007
  112MOL   Cl6913611   0.113   2.227   7.362 -0.3660 -0.0704 -0.0433
  112MOL   Cl7013612   0.114   2.429   7.578  0.5118 -0.2143  0.1323
  112MOL    C7113613   9.072   2.399   7.412  0.5255 -0.2452 -0.3522
  112MOL    H7213614   9.004   2.323   7.374 -0.3044 -0.7429  1.9954
  112MOL    H7313615   9.009   2.439   7.492 -0.1986  3.1964 -2.5154
  112MOL    C7413616   9.079   2.509   7.302 -1.1377 -0.4821 -0.9652
  112MOL   Cl7513617   9.169   2.438   7.168  0.0603 -0.1968 -0.2251
  112MOL   Cl7613618   0.000   2.641   7.363 -0.3143  0.4477  0.0211
  112MOL    C7713619   8.941   2.568   7.250  0.4704  0.6808 -0.2338
  112MOL    H7813620   8.895   2.622   7.333 -0.9801  0.7545 -1.0652
  112MOL    H7913621   8.951   2.645   7.174  3.3714  2.4888  1.8972
  112MOL    C8013622   8.832   2.477   7.188  0.2668 -0.3590 -0.3910
  112MOL   Cl8113623   8.709   2.594   7.128  0.0493 -0.4288  0.0669
  112MOL   Cl8213624   8.762   2.396   7.333  0.3106 -0.4062 -0.1911
  112MOL    C8313625   8.873   2.383   7.073  0.3060  0.2079 -0.5955
  112MOL    H8413626   8.925   2.439   6.994  1.1072  1.5196  0.8278
  112MOL    H8513627   8.950   2.324   7.122 -0.2707 -1.2948 -1.4668
  112MOL    C8613628   8.788   2.271   7.013 -0.4861  0.5348  0.5438
  112MOL   Cl8713629   8.638   2.341   6.950  0.2972 -0.2025  0.0857
  112MOL   Cl8813630   8.739   2.155   7.139 -0.5264 -0.0030  0.0198
  112MOL    C8913631   8.845   2.191   6.889  0.0297 -0.4572  0.1856
  112MOL    H9013632   8.779   2.106   6.873 -1.6497  0.5636  1.4924
  112MOL    H9113633   8.833   2.257   6.802 -0.5021  1.1779  1.4623
  112MOL    C9213634   8.993   2.141   6.890 -0.0043  0.9941 -0.2708
  112MOL   Cl9313635   9.013   2.052   7.046 -0.0215 -0.0192  0.2592
  112MOL   Cl9413636   9.117   2.276   6.881 -0.0279  0.3017 -0.2714
  112MOL    C9513637   9.025   2.032   6.792  0.4734  0.7055  0.0464
  112MOL    H9613638   9.127   2.003   6.819  0.2664  2.4158  2.7868
  112MOL    H9713639   8.960   1.950   6.823 -1.8674  3.1991  1.8824
  112MOL    C9813640   8.995   2.048   6.637  0.1951  0.8925  0.6039
  112MOL   Cl9913641   8.824   2.062   6.604 -0.4825  0.3487 -0.0201
  112MOL  Cl10013642   9.015   1.881   6.560  0.1839 -0.1523  0.0258
  112MOL   C10113643   9.061   2.165   6.549 -0.1934 -0.2052 -0.3555
  112MOL   H10213644   9.005   2.176   6.456  1.6267  2.1050 -1.2377
  112MOL   H10313645   9.029   2.261   6.590  0.2110  0.3123 -1.2260
  112MOL   C10413646   0.032   2.173   6.513 -0.2078 -0.0076 -0.2386
  112MOL  Cl10513647   0.120   2.165   6.670  0.2135 -0.2916 -0.0604
  112MOL  Cl10613648   0.056   2.336   6.438 -0.4505  0.5692 -0.0534
  112MOL   C10713649   0.109   2.064   6.432  0.2837  0.3943  0.0109
  112MOL   H10813650   0.215   2.070   6.456  0.8229  1.0824 -2.3903
  112MOL   H10913651   0.085   1.967   6.475 -1.0670  0.2710 -0.9795
  112MOL   C11013652   0.082   2.045   6.280  0.8990  0.0279 -0.6914
  112MOL  Cl11113653   0.139   2.186   6.181 -0.2866 -0.1200  0.2756
  112MOL  Cl11213654   9.088   2.022   6.240  0.0702 -0.2670  0.2410
  112MOL   C11313655   0.161   1.924   6.218  0.0094  0.1883 -0.3028
  112MOL   H11413656   0.138   1.925   6.112 -0.5080  0.8064 -0.1891
  112MOL   H11513657   0.265   1.954   6.232  0.4945 -1.7544  0.5117
  112MOL   C11613658   0.153   1.776   6.259 -0.6304  0.2134 -0.0272
  112MOL  Cl11713659   0.193   1.742   6.426  0.3079  0.1095 -0.4494
  112MOL  Cl11813660   0.270   1.695   6.147  0.0688 -0.3179  0.2178
  112MOL   C11913661   0.013   1.716   6.240  0.4147 -0.7453 -0.2199
  112MOL   H12013662   9.155   1.731   6.139 -0.1155  1.2356  0.2530
  112MOL   H12113663   0.012   1.610   6.261 -1.0959 -0.4736  1.2247
  112MOL   H12213664   9.121   1.756   6.312  0.3336 -0.8761 -0.2288
  113MOL     C113665   1.051   5.725   8.319 -0.7424 -0.3221 -0.2613
  113MOL    Cl213666   0.883   5.755   8.363  0.0300  0.1123  0.1773
  113MOL    Cl313667   1.088   5.787   8.156 -0.2437 -0.0140  0.1429
  113MOL     C413668   1.142   5.778   8.437  0.0197 -0.3671  0.3362
  113MOL     H513669   1.112   5.876   8.472 -1.8716  0.2229 -2.7096
  113MOL     H613670   1.127   5.717   8.526 -1.0101  0.1342  0.5095
  113MOL     H713671   1.074   5.619   8.319  1.1687  0.0608 -2.4402
  113MOL     C813672   1.293   5.774   8.420 -0.2142 -0.4225 -0.3527
  113MOL    Cl913673   1.330   5.612   8.345  0.3447 -0.0283 -0.0532
  113MOL   Cl1013674   1.358   5.772   8.593  0.0195  0.2234  0.3620
  113MOL    C1113675   1.345   5.895   8.338  0.1145 -0.2945 -0.2474
  113MOL    H1213676   1.305   5.876   8.238 -1.8806 -1.0582  0.6607
  113MOL    H1313677   1.284   5.984   8.355 -1.4767 -1.2601 -0.6946
  113MOL    C1413678   1.501   5.928   8.327  0.7144  0.4821 -0.9777
  113MOL   Cl1513679   1.602   5.786   8.295 -0.6239 -0.2956  0.3726
  113MOL   Cl1613680   1.560   6.015   8.470  0.0620  0.5200 -0.3199
  113MOL    C1713681   1.524   6.009   8.203 -0.0519 -0.4528 -0.0568
  113MOL    H1813682   1.494   5.937   8.126 -2.2172 -0.6895  0.9580
  113MOL    H1913683   1.454   6.093   8.199  0.1698 -0.2628  0.0517
  113MOL    C2013684   1.663   6.071   8.154  0.6423 -0.3537  0.1639
  113MOL   Cl2113685   1.610   6.166   8.003 -0.2508 -0.1061 -0.3248
  113MOL   Cl2213686   1.770   5.944   8.105  0.3914  0.1705 -0.1391
  113MOL    C2313687   1.746   6.156   8.250 -0.3083 -0.6633 -0.9753
  113MOL    H2413688   1.750   6.102   8.344  0.7340  0.4099 -0.3942
  113MOL    H2513689   1.849   6.158   8.215  0.0826 -1.2124  0.1126
  113MOL    C2613690   1.691   6.297   8.295  0.2772 -0.2646 -0.0796
  113MOL   Cl2713691   1.767   6.324   8.456 -0.1190  0.1124  0.4886
  113MOL   Cl2813692   1.513   6.301   8.314 -0.0283  0.4703 -0.0699
  113MOL    C2913693   1.749   6.410   8.200 -0.4396 -0.4399  0.6118
  113MOL    H3013694   1.855   6.405   8.226 -0.6523 -2.5703  1.1662
  113MOL    H3113695   1.753   6.375   8.097  0.0875  0.4072  0.3417
  113MOL    C3213696   1.694   6.554   8.204 -0.2803  0.7037 -0.2370
  113MOL   Cl3313697   1.531   6.557   8.136 -0.0319 -0.3443  0.1743
  113MOL   Cl3413698   1.799   6.640   8.089 -0.3776  0.2141 -0.4053
  113MOL    C3513699   1.697   6.613   8.353  0.5621  0.0878 -0.1892
  113MOL    H3613700   1.640   6.539   8.409 -0.1886 -0.1028 -1.1715
  113MOL    H3713701   1.802   6.600   8.379  0.7501  0.7840 -0.6036
  113MOL    C3813702   1.646   6.756   8.387  0.1183 -0.9366 -0.7735
  113MOL   Cl3913703   1.710   6.897   8.293  0.0458  0.0705 -0.3280
  113MOL   Cl4013704   1.703   6.769   8.553  0.0940  0.0585  0.3174
  113MOL    C4113705   1.484   6.757   8.384  0.6070  0.1349 -0.0824
  113MOL    H4213706   1.453   6.781   8.283 -3.6680 -2.5559  0.4742
  113MOL    H4313707   1.438   6.659   8.390 -1.1365  0.9436 -0.0107
  113MOL    C4413708   1.412   6.835   8.498 -0.1816  0.5999  0.0469
  113MOL   Cl4513709   1.492   7.002   8.520 -0.0802  0.3335 -0.0110
  113MOL   Cl4613710   1.411   6.744   8.649  0.1683  0.0727  0.0451
  113MOL    C4713711   1.258   6.853   8.477  0.6102 -0.3391 -0.5211
  113MOL    H4813712   1.215   6.754   8.493  1.0019 -0.3950  0.2387
  113MOL    H4913713   1.230   6.920   8.559  2.3497 -2.4269  1.8781
  113MOL    C5013714   1.194   6.908   8.340 -0.0322  0.2459  0.3004
  113MOL   Cl5113715   1.185   6.780   8.218 -0.2975 -0.0755 -0.0314
  113MOL   Cl5213716   1.309   7.033   8.286  0.3276 -0.3520  0.2232
  113MOL    C5313717   1.060   6.978   8.358  1.0745  0.2469  0.5575
  113MOL    H5413718   1.060   7.016   8.460  1.8982  1.5213  0.1044
  113MOL    H5513719   1.057   7.063   8.289 -0.8679 -0.9084 -0.8374
  113MOL    C5613720   0.919   6.906   8.335 -0.6286 -1.5416  0.5483
  113MOL   Cl5713721   0.921   6.749   8.428  0.1030 -0.0804  0.2416
  113MOL   Cl5813722   0.895   6.873   8.164  0.1545  0.3160  0.0281
  113MOL    C5913723   0.803   7.008   8.383 -0.1534  0.3355 -0.2242
  113MOL    H6013724   0.817   7.018   8.491  2.2396  0.2364 -0.4954
  113MOL    H6113725   0.816   7.112   8.351 -0.9123  0.7182  0.6614
  113MOL    C6213726   0.653   6.965   8.367  0.2676 -0.2128 -0.1440
  113MOL   Cl6313727   0.628   6.787   8.353 -0.1695  0.2543 -0.3062
  113MOL   Cl6413728   0.587   7.026   8.213  0.2924  0.4651  0.0835
  113MOL    C6513729   0.555   7.005   8.483  0.0370 -0.3596  0.1014
  113MOL    H6613730   0.453   6.987   8.451  0.2664 -0.1685 -0.7309
  113MOL    H6713731   0.580   6.958   8.579  2.4124  2.1198  0.7816
  113MOL    C6813732   0.554   7.159   8.535  0.1734 -0.1353 -0.2203
  113MOL   Cl6913733   0.505   7.260   8.404 -0.2527 -0.2316  0.1497
  113MOL   Cl7013734   0.713   7.216   8.600  0.2283  0.2891  0.1258
  113MOL    C7113735   0.452   7.181   8.650  0.4265 -0.0700  0.6425
  113MOL    H7213736   0.474   7.280   8.690 -1.1070  0.1478  0.9800
  113MOL    H7313737   0.355   7.196   8.602  0.5949 -1.8466 -0.2788
  113MOL    C7413738   0.443   7.082   8.777  0.3746 -0.0911  0.5221
  113MOL   Cl7513739   0.610   7.045   8.827 -0.3649 -0.0571 -0.4181
  113MOL   Cl7613740   0.373   6.928   8.732 -0.2030  0.0907  0.0919
  113MOL    C7713741   0.365   7.125   8.911 -0.2869 -0.2789  0.4905
  113MOL    H7813742   0.348   7.030   8.961  1.1724 -0.7982  0.0178
  113MOL    H7913743   0.439   7.176   8.972  0.2145 -1.5279  0.9448
  113MOL    C8013744   0.230   7.213   8.917  0.6113 -0.6276  0.1386
  113MOL   Cl8113745   0.111   7.118   8.840 -0.1217  0.1681 -0.4307
  113MOL   Cl8213746   0.243   7.360   8.827  0.1529  0.4576 -0.0970
  113MOL    C8313747   0.192   7.247   9.064 -0.6335  0.7745  0.5428
  113MOL    H8413748   0.234   7.176   9.135 -0.1894  1.2309  0.7423
  113MOL    H8513749   0.259   7.328   9.092  0.8448 -0.2637  0.0895
  113MOL    C8613750   0.044   7.273   9.108  0.4651  0.1013 -0.6134
  113MOL   Cl8713751   0.058   7.331   0.099 -0.3678  0.1681 -0.1963
  113MOL   Cl8813752   9.145   7.115   9.113 -0.2229 -0.2834  0.1615
  113MOL    C8913753   9.147   7.370   9.015  0.2762 -0.1881  0.3140
  113MOL    H9013754   0.026   7.461   9.008 -1.7342  1.1305 -0.2532
  113MOL    H9113755   9.147   7.331   8.913 -0.0731 -0.1533  0.2984
  113MOL    C9213756   9.005   7.427   9.030  0.5802 -0.5061 -0.9508
  113MOL   Cl9313757   8.974   7.530   8.885  0.0595 -0.6363 -0.2814
  113MOL   Cl9413758   9.001   7.529   9.168  0.7886 -0.0749  0.1601
  113MOL    C9513759   8.910   7.310   9.042 -0.4585  0.1220 -0.6757
  113MOL    H9613760   8.935   7.224   8.979  1.6923  1.2059 -1.3470
  113MOL    H9713761   8.924   7.281   9.146 -1.4912 -0.6098 -0.7376
  113MOL    C9813762   8.755   7.320   9.023 -0.9282  0.2649  0.3036
  113MOL   Cl9913763   8.689   7.421   9.148 -0.0777  0.1785 -0.3631
  113MOL  Cl10013764   8.700   7.156   9.057  0.2968  0.0606  0.2058
  113MOL   C10113765   8.704   7.374   8.884 -0.6478 -0.7151 -0.2855
  113MOL   H10213766   8.698   7.483   8.883  1.2950 -0.5381  2.0314
  113MOL   H10313767   8.780   7.355   8.808  1.0729  3.3444  0.2936
  113MOL   C10413768   8.572   7.319   8.819 -0.0947 -0.3514 -0.1075
  113MOL  Cl10513769   8.603   7.150   8.765 -0.3067 -0.0349  0.0600
  113MOL  Cl10613770   8.554   7.413   8.665 -0.1855 -0.7238 -0.4309
  113MOL   C10713771   8.444   7.335   8.908  0.2482 -0.5604  0.2934
  113MOL   H10813772   8.474   7.278   8.995 -1.2375 -0.6112  0.7973
  113MOL   H10913773   8.419   7.434   8.946  0.8800 -0.1158 -0.4333
  113MOL   C11013774   8.302   7.273   8.865  0.1147 -0.0865  0.6596
  113MOL  Cl11113775   8.297   7.095   8.867 -0.5921 -0.0747  0.1148
  113MOL  Cl11213776   8.260   7.316   8.698  0.1459 -0.2626 -0.4863
  113MOL   C11313777   8.187   7.323   8.955 -0.4029  0.1819  0.1961
  113MOL   H11413778   8.170   7.429   8.936 -2.1679 -0.2246 -0.5572
  113MOL   H11513779   8.097   7.273   8.920  0.2818  1.1603 -3.0798
  113MOL   C11613780   8.183   7.312   9.110  0.0407  0.7180  0.1060
  113MOL  Cl11713781   8.015   7.360   9.167 -0.5436 -0.1493 -0.4534
  113MOL  Cl11813782   8.302   7.427   0.006 -0.1883 -0.0080 -0.1671
  113MOL   C11913783   8.224   7.170   9.165  0.4505  0.0144 -0.2045
  113MOL   H12013784   8.332   7.158   9.151  0.6300 -2.1377  2.4764
  113MOL   H12113785   8.224   7.170   0.094 -0.5828  0.5771 -0.1989
  113MOL   H12213786   8.173   7.085   9.120  3.7029 -1.0985 -1.9551
  114MOL     C113787   6.016   0.036   0.337 -0.2893 -0.3787  0.3286
  114MOL    Cl213788   5.937   9.116   0.211  0.3806 -0.1869 -0.2801
  114MOL    Cl313789   6.159   9.117   0.378 -0.1304 -0.3947 -0.1470
  114MOL     C413790   6.059   0.179   0.285 -0.4468 -0.2742  0.5626
  114MOL     H513791   6.157   0.157   0.242 -0.4882  0.0257  0.3173
  114MOL     H613792   6.002   0.218   0.200 -1.8677 -0.3223  1.4810
  114MOL     H713793   5.948   0.057   0.419  1.0985  1.6882  1.0034
  114MOL     C813794   6.071   0.294   0.387  0.0051 -0.2412  0.1437
  114MOL    Cl913795   6.120   0.225   0.541 -0.3598  0.2773  0.1966
  114MOL   Cl1013796   5.901   0.357   0.423 -0.2141 -0.4667 -0.0063
  114MOL    C1113797   6.162   0.410   0.338  0.7411  0.1632  0.3386
  114MOL    H1213798   6.260   0.366   0.319  0.6596 -0.5609  1.6148
  114MOL    H1313799   6.128   0.446   0.240  2.0104 -0.9624 -0.5309
  114MOL    C1413800   6.192   0.536   0.422 -0.7051 -0.5397 -0.0069
  114MOL   Cl1513801   6.275   0.491   0.571 -0.2504  0.4108  0.0250
  114MOL   Cl1613802   6.049   0.629   0.471 -0.5145 -0.4541 -0.3674
  114MOL    C1713803   6.271   0.646   0.349  0.6393  0.7231 -0.4944
  114MOL    H1813804   6.208   0.687   0.270 -0.6983  0.4017  0.4029
  114MOL    H1913805   6.297   0.721   0.423 -1.4148 -0.2903  1.2948
  114MOL    C2013806   6.408   0.607   0.275  0.1186 -0.1836  0.0574
  114MOL   Cl2113807   6.354   0.544   0.120 -0.2205  0.0892 -0.1740
  114MOL   Cl2213808   6.508   0.484   0.356  0.2161 -0.0743  0.0025
  114MOL    C2313809   6.494   0.740   0.237  0.4081 -0.2945 -0.5109
  114MOL    H2413810   6.576   0.705   0.174  1.1303  0.0838  0.2084
  114MOL    H2513811   6.434   0.804   0.173  0.7878 -0.4361 -1.0098
  114MOL    C2613812   6.559   0.827   0.349  0.7849 -0.4456 -0.5907
  114MOL   Cl2713813   6.587   0.729   0.498  0.0124 -0.5740 -0.3475
  114MOL   Cl2813814   6.434   0.952   0.402 -0.1958 -0.7180 -0.4164
  114MOL    C2913815   6.693   0.893   0.304  0.0019 -0.0577 -0.5031
  114MOL    H3013816   6.756   0.901   0.393 -1.4657  1.5190  0.4338
  114MOL    H3113817   6.741   0.819   0.240 -0.0567 -1.7526  1.3458
  114MOL    C3213818   6.693   1.026   0.225  0.3253  0.0843  0.4753
  114MOL   Cl3313819   6.590   1.019   0.077  0.1701  0.3282 -0.8013
  114MOL   Cl3413820   6.867   1.033   0.176 -0.0114 -0.5708  0.1452
  114MOL    C3513821   6.663   1.156   0.315  0.0196  0.6883 -0.1984
  114MOL    H3613822   6.554   1.162   0.325  0.0641  3.7468 -1.0872
  114MOL    H3713823   6.699   1.133   0.415  0.7205  0.3003 -0.5375
  114MOL    C3813824   6.696   1.298   0.273  0.2936 -0.0570 -0.0735
  114MOL   Cl3913825   6.670   1.315   0.095 -0.0654 -0.1434  0.1157
  114MOL   Cl4013826   6.870   1.336   0.306  0.0700  0.3342 -0.1473
  114MOL    C4113827   6.609   1.419   0.336  0.0659 -0.0158  0.4939
  114MOL    H4213828   6.647   1.514   0.298  1.0412 -0.3031  0.7281
  114MOL    H4313829   6.503   1.418   0.310 -0.4482  3.1416  2.2041
  114MOL    C4413830   6.592   1.445   0.493  0.4649 -0.4906  0.1523
  114MOL   Cl4513831   6.750   1.478   0.565  0.3170 -0.1495  0.1849
  114MOL   Cl4613832   6.533   1.299   0.564 -0.0784  0.1038 -0.2814
  114MOL    C4713833   6.492   1.558   0.539 -0.2498  0.2367 -0.1374
  114MOL    H4813834   6.389   1.522   0.533 -0.3018 -0.0496  2.1197
  114MOL    H4913835   6.525   1.577   0.642  0.0550 -1.8485  0.1563
  114MOL    C5013836   6.488   1.692   0.462 -0.5982 -0.5185  0.0454
  114MOL   Cl5113837   6.396   1.682   0.305  0.2070  0.0016 -0.5111
  114MOL   Cl5213838   6.644   1.757   0.410  0.1345 -0.5130 -0.0906
  114MOL    C5313839   6.425   1.791   0.554 -0.1617  0.9304 -0.1988
  114MOL    H5413840   6.498   1.842   0.618 -1.3686 -1.4521  3.1978
  114MOL    H5513841   6.394   1.869   0.485 -0.3693 -0.3420 -1.5608
  114MOL    C5613842   6.288   1.768   0.633  0.8214  0.2577  0.5817
  114MOL   Cl5713843   6.304   1.653   0.770  0.6431 -0.1820  0.1141
  114MOL   Cl5813844   6.162   1.716   0.513  0.1467  0.1119 -0.1871
  114MOL    C5913845   6.233   1.897   0.688  0.3282 -0.1206  0.4389
  114MOL    H6013846   6.180   1.950   0.608 -0.2454  2.0812  2.2167
  114MOL    H6113847   6.148   1.874   0.752 -1.6881 -0.5536 -2.3410
  114MOL    C6213848   6.323   1.996   0.761  0.1183  0.4319  0.1374
  114MOL   Cl6313849   6.201   2.101   0.849 -0.0322  0.0772 -0.0562
  114MOL   Cl6413850   6.379   2.105   0.633 -0.1594 -0.2766  0.1367
  114MOL    C6513851   6.431   1.949   0.863  0.9726  0.0885 -0.2910
  114MOL    H6613852   6.370   1.898   0.938  0.6854 -1.4788 -1.5757
  114MOL    H6713853   6.487   1.867   0.819  0.1775  0.0297 -1.2142
  114MOL    C6813854   6.538   2.045   0.937  0.6293  0.3379  0.2867
  114MOL   Cl6913855   6.660   2.090   0.817 -0.1046 -0.5828  0.2091
  114MOL   Cl7013856   6.611   1.945   1.069 -0.7574 -0.0630 -0.1805
  114MOL    C7113857   6.477   2.176   0.996 -0.0662  0.0197  0.9574
  114MOL    H7213858   6.404   2.214   0.925  0.9442 -0.2992 -0.2758
  114MOL    H7313859   6.432   2.146   1.091 -2.0738 -1.2640 -0.3577
  114MOL    C7413860   6.561   2.297   1.048  0.3071 -0.3433  0.7847
  114MOL   Cl7513861   6.609   2.404   0.918  0.3714  0.2905 -0.5239
  114MOL   Cl7613862   6.713   2.239   1.118 -0.0558 -0.0696  0.5046
  114MOL    C7713863   6.497   2.383   1.158 -0.7107  0.4640  0.6712
  114MOL    H7813864   6.510   2.332   1.254 -0.7379  0.3289  0.6041
  114MOL    H7913865   6.562   2.468   1.174  0.9303 -0.6122 -0.1306
  114MOL    C8013866   6.349   2.429   1.144  0.2372 -0.3929  0.4747
  114MOL   Cl8113867   6.225   2.290   1.131  0.0213 -0.4405 -0.2952
  114MOL   Cl8213868   6.326   2.515   0.987  0.1577 -0.0804 -0.3234
  114MOL    C8313869   6.300   2.530   1.252  0.2853 -0.3662  0.3828
  114MOL    H8413870   6.326   2.630   1.219 -0.1473  0.0459  1.2987
  114MOL    H8513871   6.192   2.536   1.237  0.1514 -1.6932  0.7575
  114MOL    C8613872   6.337   2.499   1.405  0.3396  0.4677 -0.4270
  114MOL   Cl8713873   6.506   2.550   1.428  0.4268 -0.7003 -0.4217
  114MOL   Cl8813874   6.314   2.329   1.437  0.0802 -0.2637 -0.2926
  114MOL    C8913875   6.255   2.570   1.516  0.5969 -0.5328  0.2980
  114MOL    H9013876   6.269   2.500   1.598 -0.5128 -2.2828 -0.9718
  114MOL    H9113877   6.300   2.666   1.543 -0.3534  0.2286 -0.7437
  114MOL    C9213878   6.107   2.603   1.493 -0.3043  0.7670 -0.4806
  114MOL   Cl9313879   6.016   2.461   1.439  0.3640 -0.1875 -0.2880
  114MOL   Cl9413880   6.091   2.731   1.366  0.0284 -0.4372  0.1672
  114MOL    C9513881   6.035   2.667   1.617 -0.4514  0.3783 -0.1225
  114MOL    H9613882   6.099   2.742   1.663 -1.3913  0.4019  1.1941
  114MOL    H9713883   5.943   2.711   1.578 -0.8113 -1.9811 -2.0479
  114MOL    C9813884   5.978   2.596   1.743 -0.6156  0.0666 -0.4229
  114MOL   Cl9913885   5.908   2.738   1.838 -0.0185  0.4211  0.4676
  114MOL  Cl10013886   6.117   2.529   1.839  0.4242  0.1227  0.0265
  114MOL   C10113887   5.871   2.483   1.709 -0.4177 -0.1091  0.1783
  114MOL   H10213888   5.808   2.508   1.624 -1.5368  0.2138  1.0912
  114MOL   H10313889   5.909   2.392   1.662 -0.8238  0.6808 -1.7308
  114MOL   C10413890   5.777   2.435   1.822 -0.5196  0.2394 -0.1318
  114MOL  Cl10513891   5.636   2.545   1.825 -0.0440 -0.0312 -0.0166
  114MOL  Cl10613892   5.852   2.447   1.985 -0.6077  0.0739  0.1419
  114MOL   C10713893   5.722   2.287   1.793 -0.0083 -0.2168  0.0769
  114MOL   H10813894   5.616   2.260   1.802 -0.0081  0.3475  2.0541
  114MOL   H10913895   5.742   2.269   1.688  0.6243 -0.6120  0.2627
  114MOL   C11013896   5.777   2.161   1.868  0.2894  0.3582 -0.0154
  114MOL  Cl11113897   5.957   2.148   1.850  0.0535  0.0341  0.0300
  114MOL  Cl11213898   5.705   2.014   1.791 -0.0597 -0.2437 -0.0227
  114MOL   C11313899   5.731   2.164   2.019 -0.1354  0.4525  0.4077
  114MOL   H11413900   5.704   2.263   2.057  3.1109  1.1524  1.0278
  114MOL   H11513901   5.631   2.122   2.008 -0.7946  2.1781 -0.3886
  114MOL   C11613902   5.810   2.068   2.118 -0.3756 -0.3332 -0.0428
  114MOL  Cl11713903   5.981   2.116   2.150 -0.2272 -0.1984  0.1570
  114MOL  Cl11813904   5.794   1.898   2.066  0.0418 -0.0707 -0.2712
  114MOL   C11913905   5.742   2.081   2.254 -0.6988  0.4222  0.2159
  114MOL   H12013906   5.795   2.024   2.331 -0.8819 -1.0763 -0.7424
  114MOL   H12113907   5.752   2.181   2.296  1.1937 -0.6033  2.3526
  114MOL   H12213908   5.642   2.039   2.244 -0.8125  0.6043  0.5797
  115MOL     C113909   0.012   8.796   8.715 -0.1987 -0.3897 -0.4817
  115MOL    Cl213910   0.093   8.939   8.789 -0.2606  0.3875 -0.1308
  115MOL    Cl313911   9.067   8.752   8.824  0.1067  0.1621  0.7516
  115MOL     C413912   9.128   8.827   8.585 -0.1771 -0.2085 -0.0718
  115MOL     H513913   9.040   8.766   8.563 -1.4297  2.2407 -2.1928
  115MOL     H613914   9.088   8.928   8.595  0.9105  0.0596  1.8564
  115MOL     H713915   0.084   8.715   8.709 -0.1939 -0.3364 -1.1546
  115MOL     C813916   0.037   8.832   8.463  0.6956 -0.0100 -0.4108
  115MOL    Cl913917   9.113   8.864   8.324 -0.2836  0.1203 -0.0515
  115MOL   Cl1013918   0.114   8.674   8.445 -0.2235 -0.1595  0.0027
  115MOL    C1113919   0.153   8.935   8.451 -0.6570  0.0171  0.3217
  115MOL    H1213920   0.123   9.030   8.496  0.8707  1.3306 -1.3972
  115MOL    H1313921   0.232   8.907   8.520 -0.6494  3.3316  1.7587
  115MOL    C1413922   0.219   8.975   8.314  0.2751 -0.7474 -0.3679
  115MOL   Cl1513923   0.127   9.118   8.255  0.0003 -0.1552  0.0956
  115MOL   Cl1613924   0.214   8.853   8.190  0.1785  0.0943  0.1190
  115MOL    C1713925   0.355   9.038   8.329  0.1071  0.2795  0.0006
  115MOL    H1813926   0.383   9.075   8.230 -1.8759 -2.9274 -1.8780
  115MOL    H1913927   0.354   9.131   8.386  0.8445  0.4662 -0.2907
  115MOL    C2013928   0.480   8.957   8.391  1.0601  0.1952 -0.2349
  115MOL   Cl2113929   0.484   8.990   8.564 -0.0341  0.1207  0.1291
  115MOL   Cl2213930   0.620   9.031   8.318  0.0587  0.0773  0.3270
  115MOL    C2313931   0.488   8.803   8.349 -0.2329  0.0095 -0.1046
  115MOL    H2413932   0.392   8.755   8.371  0.2075  0.4246  2.9812
  115MOL    H2513933   0.484   8.797   8.241 -0.7661  0.8018 -0.1383
  115MOL    C2613934   0.597   8.706   8.388  0.7648 -0.2685 -0.3431
  115MOL   Cl2713935   0.755   8.762   8.334 -0.0051  0.1225  0.0572
  115MOL   Cl2813936   0.569   8.557   8.299 -0.3772 -0.0320  0.1326
  115MOL    C2913937   0.611   8.669   8.539  0.3442  0.1809  0.1541
  115MOL    H3013938   0.687   8.591   8.542 -1.4075 -1.5157  1.7421
  115MOL    H3113939   0.654   8.756   8.589 -0.7154  0.4223  0.6596
  115MOL    C3213940   0.501   8.609   8.629  0.0389  0.1677  0.2735
  115MOL   Cl3313941   0.421   8.478   8.537  0.1513  0.0198 -0.5303
  115MOL   Cl3413942   0.368   8.716   8.679  0.2413  0.0010 -0.0254
  115MOL    C3513943   0.562   8.541   8.756  0.1006  0.4052  0.0318
  115MOL    H3613944   0.483   8.496   8.817  2.1944  0.1323  2.6753
  115MOL    H3713945   0.616   8.454   8.717  0.7806  1.1787 -0.7540
  115MOL    C3813946   0.644   8.613   8.870 -0.4514 -0.1490 -0.0728
  115MOL   Cl3913947   0.802   8.629   8.800  0.2541  0.4328 -0.0815
  115MOL   Cl4013948   0.661   8.500   9.004  0.1180  0.3217  0.4573
  115MOL    C4113949   0.591   8.754   8.928 -0.0230 -0.8574 -0.4562
  115MOL    H4213950   0.678   8.802   8.972  0.4801 -0.9630 -1.3223
  115MOL    H4313951   0.558   8.811   8.841 -0.0461 -1.2571 -0.7089
  115MOL    C4413952   0.474   8.766   9.038  0.4475 -0.0929  0.6426
  115MOL   Cl4513953   0.336   8.667   8.991  0.3459  0.2115  0.2484
  115MOL   Cl4613954   0.407   8.932   9.043 -0.0384  0.0478 -0.1227
  115MOL    C4713955   0.500   8.714   0.004  0.7469  0.3307  0.1437
  115MOL    H4813956   0.401   8.715   0.050 -0.0791 -0.8699 -1.5479
  115MOL    H4913957   0.520   8.607   0.004  0.1827  0.2229  0.9618
  115MOL    C5013958   0.595   8.788   0.100 -0.4660 -0.6085 -0.0030
  115MOL   Cl5113959   0.772   8.753   0.046 -0.1548  0.1426  0.3204
  115MOL   Cl5213960   0.572   8.675   0.242 -0.0747 -0.2323  0.2418
  115MOL    C5313961   0.567   8.943   0.132  0.0617 -0.0928  0.1634
  115MOL    H5413962   0.597   9.006   0.048  0.5645 -1.4497 -0.6925
  115MOL    H5513963   0.458   8.956   0.126  0.2826  1.1475 -1.6785
  115MOL    C5613964   0.618   9.003   0.264 -1.0212  0.1146 -0.4524
  115MOL   Cl5713965   0.626   9.168   0.223 -0.1116 -0.1538  0.1182
  115MOL   Cl5813966   0.783   8.954   0.299  0.1566  0.2899  0.1229
  115MOL    C5913967   0.525   8.972   0.391 -0.5353  0.1567 -0.0012
  115MOL    H6013968   0.422   8.979   0.356 -0.8592 -0.7746  0.7448
  115MOL    H6113969   0.549   8.867   0.410  1.7788  0.7143  0.2909
  115MOL    C6213970   0.531   9.060   0.522 -0.5442 -0.1892  0.4136
  115MOL   Cl6313971   0.693   9.055   0.593 -0.2749 -0.1152  0.0937
  115MOL   Cl6413972   0.418   8.974   0.637 -0.3294  0.3997  0.0919
  115MOL    C6513973   0.490   0.028   0.506  0.1117  0.1264  0.7429
  115MOL    H6613974   0.579   0.063   0.453  1.1571 -2.5176  0.6458
  115MOL    H6713975   0.412   0.029   0.430 -0.0625  0.4260  0.9281
  115MOL    C6813976   0.456   0.118   0.625 -0.3081 -0.7988 -0.5830
  115MOL   Cl6913977   0.299   0.064   0.699  0.1477  0.0449 -0.1946
  115MOL   Cl7013978   0.406   0.282   0.561  0.3056 -0.2833  0.0644
  115MOL    C7113979   0.558   0.142   0.744  0.2623 -0.1204  0.5723
  115MOL    H7213980   0.500   0.152   0.835  0.2543 -2.8812  0.9125
  115MOL    H7313981   0.602   0.045   0.768 -0.1871 -0.4252  0.1722
  115MOL    C7413982   0.672   0.250   0.742  0.2522  0.1135 -0.0382
  115MOL   Cl7513983   0.606   0.409   0.788 -0.1258  0.2036 -0.0711
  115MOL   Cl7613984   0.738   0.266   0.581 -0.1600 -0.0096  0.3150
  115MOL    C7713985   0.781   0.214   0.853 -0.9276 -0.3753 -0.2995
  115MOL    H7813986   0.769   0.295   0.925  1.1923  0.1593 -0.5070
  115MOL    H7913987   0.746   0.125   0.905 -2.8324 -0.8419 -2.2613
  115MOL    C8013988   0.929   0.206   0.812 -0.3375  0.8481  0.4560
  115MOL   Cl8113989   0.996   0.369   0.759  0.1205 -0.4381 -0.4795
  115MOL   Cl8213990   0.963   0.081   0.689 -0.3465 -0.0420  0.4608
  115MOL    C8313991   1.012   0.161   0.941 -0.6570 -0.1035  0.6232
  115MOL    H8413992   0.997   0.054   0.959 -0.6367 -0.3936 -1.0061
  115MOL    H8513993   1.117   0.167   0.911  0.0095  0.0305  2.9037
  115MOL    C8613994   0.997   0.213   1.087  0.3808  0.3728 -0.4458
  115MOL   Cl8713995   0.838   0.175   1.159 -0.0987 -0.0616 -0.3778
  115MOL   Cl8813996   0.988   0.390   1.078 -0.0243 -0.2871 -0.1323
  115MOL    C8913997   1.109   0.184   1.185 -0.1380 -0.0794 -0.5898
  115MOL    H9013998   1.201   0.233   1.153  0.5299 -1.8963 -1.4751
  115MOL    H9113999   1.082   0.239   1.276  2.3832 -0.0341  0.1796
  115MOL    C9214000   1.144   0.037   1.230  0.5261  0.0363 -0.0098
  115MOL   Cl9314001   1.210   9.129   1.086  0.1067 -0.1381  0.0039
  115MOL   Cl9414002   1.005   9.126   1.296  0.1827  0.0817  0.2959
  115MOL    C9514003   1.242   0.022   1.348 -0.5069  0.5044  0.4367
  115MOL    H9614004   1.181   0.030   1.438 -1.1057 -2.1231  0.3045
  115MOL    H9714005   1.274   9.098   1.350  1.0771  0.9771  0.1667
  115MOL    C9814006   1.374   0.107   1.348  0.2752  0.1745 -0.6304
  115MOL   Cl9914007   1.342   0.287   1.364  0.2325 -0.0241  0.3130
  115MOL  Cl10014008   1.468   0.099   1.196 -0.3672  0.0874  0.1523
  115MOL   C10114009   1.475   0.062   1.461  0.0637 -0.7326 -0.5205
  115MOL   H10214010   1.467   9.133   1.466 -2.1531 -0.6103 -0.9030
  115MOL   H10314011   1.573   0.089   1.423  0.5433  1.0216  1.8904
  115MOL   C10414012   1.460   0.114   1.608 -0.3667 -0.0357 -0.0000
  115MOL  Cl10514013   1.572   0.019   1.717  0.1955  0.1073  0.3213
  115MOL  Cl10614014   1.297   0.096   1.682  0.2411  0.1372  0.3376
  115MOL   C10714015   1.497   0.265   1.633  0.0304  1.0023 -0.6808
  115MOL   H10814016   1.408   0.322   1.606  0.0721  0.9424 -0.9532
  115MOL   H10914017   1.506   0.273   1.741  2.5521  0.5673 -0.8230
  115MOL   C11014018   1.635   0.334   1.584 -0.5282 -0.0764  0.5453
  115MOL  Cl11114019   1.658   0.341   1.407 -0.2768  0.0810  0.0973
  115MOL  Cl11214020   1.779   0.241   1.637  0.0695 -0.4408 -0.1443
  115MOL   C11314021   1.642   0.484   1.632 -0.3738  0.0163 -0.7930
  115MOL   H11414022   1.747   0.513   1.629  0.2933 -1.8523  2.3988
  115MOL   H11514023   1.593   0.546   1.557  0.7953 -0.3659 -1.8874
  115MOL   C11614024   1.592   0.522   1.777  0.6476 -0.2196  0.0830
  115MOL  Cl11714025   1.664   0.409   1.896 -0.3762  0.3476  0.0611
  115MOL  Cl11814026   1.411   0.517   1.789 -0.0888 -0.2298 -0.0049
  115MOL   C11914027   1.630   0.660   1.823 -0.2764  0.5711  0.3756
  115MOL   H12014028   1.598   0.739   1.754  1.8153  0.7592 -0.4302
  115MOL   H12114029   1.590   0.678   1.922 -0.2540  0.9461  0.3177
  115MOL   H12214030   1.739   0.669   1.827 -0.1312 -1.3046  1.2802
  116MOL     C114031   0.508   0.395   1.191  0.5436  0.5953 -0.8344
  116MOL    Cl214032   0.676   0.472   1.186 -0.1522 -0.3322  0.1190
  116MOL    Cl314033   0.446   0.396   1.363  0.0519  0.0007  0.0506
  116MOL     C414034   0.416   0.493   1.111 -0.3612  0.4608  0.0044
  116MOL     H514035   0.402   0.577   1.180  2.0741 -1.6494  3.2049
  116MOL     H614036   0.480   0.537   1.034 -1.6771  2.1674 -0.1543
  116MOL     H714037   0.516   0.295   1.149  1.4433  1.4426 -2.7456
  116MOL     C814038   0.275   0.433   1.055 -0.3373 -0.3022  0.0205
  116MOL    Cl914039   0.165   0.392   1.186  0.0192  0.4502  0.0921
  116MOL   Cl1014040   0.313   0.277   0.978  0.1004 -0.2083 -0.3654
  116MOL    C1114041   0.216   0.535   0.953 -0.2727  0.4520 -0.6164
  116MOL    H1214042   0.275   0.532   0.861 -0.4305 -1.8596 -0.6822
  116MOL    H1314043   0.131   0.478   0.916 -0.4833 -0.2943  0.9807
  116MOL    C1414044   0.167   0.677   0.980  0.1984 -0.6368 -0.2604
  116MOL   Cl1514045   0.299   0.768   1.053 -0.2709 -0.2408  0.1492
  116MOL   Cl1614046   0.036   0.659   1.098  0.3699 -0.0287 -0.1398
  116MOL    C1714047   0.114   0.747   0.857 -0.6074  0.3033  0.0811
  116MOL    H1814048   0.073   0.839   0.897  0.7149  0.5734  0.8282
  116MOL    H1914049   0.200   0.775   0.796 -2.1601 -0.0675 -2.3493
  116MOL    C2014050   0.018   0.679   0.757 -0.6580 -0.2257 -0.5135
  116MOL   Cl2114051   0.108   0.557   0.662 -0.1080  0.2102  0.1346
  116MOL   Cl2214052   9.156   0.807   0.641  0.2058  0.3418  0.0508
  116MOL    C2314053   9.062   0.636   0.828  1.1480  0.2727  0.2153
  116MOL    H2414054   9.097   0.542   0.870 -1.0860 -0.4651  0.5047
  116MOL    H2514055   9.036   0.696   0.915  4.1934 -0.4994  1.7033
  116MOL    C2614056   8.941   0.596   0.738  0.2802  0.2469 -0.3790
  116MOL   Cl2714057   8.848   0.475   0.817  0.1885 -0.1084  0.2766
  116MOL   Cl2814058   8.989   0.505   0.593  0.2041 -0.4249  0.0277
  116MOL    C2914059   8.846   0.713   0.691 -0.5926  0.8418 -0.2256
  116MOL    H3014060   8.903   0.760   0.611 -1.5148  1.1942 -0.6807
  116MOL    H3114061   8.768   0.661   0.636 -1.6812 -0.0784  2.1128
  116MOL    C3214062   8.788   0.813   0.795 -0.1751 -0.7672 -0.0983
  116MOL   Cl3314063   8.919   0.915   0.852 -0.1306  0.2815 -0.0160
  116MOL   Cl3414064   8.716   0.727   0.935 -0.5389 -0.0237 -0.3100
  116MOL    C3514065   8.673   0.906   0.746 -0.2680  0.3964 -0.4521
  116MOL    H3614066   8.594   0.833   0.729  0.5267 -0.4995 -0.3735
  116MOL    H3714067   8.659   0.973   0.830 -1.6119  1.3189 -1.3919
  116MOL    C3814068   8.684   0.996   0.617  0.0937 -0.3691 -0.1612
  116MOL   Cl3914069   8.519   1.060   0.586 -0.1461 -0.0697  0.4013
  116MOL   Cl4014070   8.719   0.899   0.476 -0.1219 -0.1356  0.3338
  116MOL    C4114071   8.778   1.120   0.634  1.2163  0.7032 -1.2086
  116MOL    H4214072   8.749   1.166   0.729  0.9119 -0.5372 -0.6925
  116MOL    H4314073   8.873   1.068   0.643  1.0457  0.5069 -0.4656
  116MOL    C4414074   8.799   1.233   0.534  0.4800 -0.7214 -0.0796
  116MOL   Cl4514075   8.646   1.319   0.492  0.5045  0.5753 -0.3055
  116MOL   Cl4614076   8.851   1.170   0.379  0.1026 -0.3776  0.2026
  116MOL    C4714077   8.905   1.345   0.576  0.5336  0.6881  0.0990
  116MOL    H4814078   8.933   1.390   0.481 -0.0827 -0.2131 -0.5178
  116MOL    H4914079   8.864   1.429   0.632 -2.6313  0.2906 -1.5292
  116MOL    C5014080   9.032   1.300   0.653  0.4171 -0.2234 -0.4046
  116MOL   Cl5114081   9.099   1.158   0.572  0.4393 -0.4581  0.4524
  116MOL   Cl5214082   8.991   1.241   0.814 -0.3406 -0.0371  0.1813
  116MOL    C5314083   9.144   1.411   0.654 -0.1638 -0.4938  0.2221
  116MOL    H5414084   0.040   1.384   0.727  1.0080 -0.2846 -0.9172
  116MOL    H5514085   0.012   1.398   0.558 -1.7710 -1.4140 -0.4852
  116MOL    C5614086   9.119   1.559   0.694 -0.1623 -0.0509 -0.6053
  116MOL   Cl5714087   9.013   1.552   0.839  0.2230 -0.1059 -0.0933
  116MOL   Cl5814088   9.016   1.636   0.567 -0.2037  0.0690  0.1472
  116MOL    C5914089   0.061   1.645   0.735  0.1988 -0.3540 -0.0764
  116MOL    H6014090   0.025   1.743   0.765  3.0766  1.3973 -2.1700
  116MOL    H6114091   0.103   1.598   0.825  1.0953  2.1474  0.8422
  116MOL    C6214092   0.186   1.655   0.638  0.6140  0.6162 -0.3006
  116MOL   Cl6314093   0.128   1.715   0.484 -0.0506  0.0842  0.2628
  116MOL   Cl6414094   0.258   1.496   0.621 -0.0478 -0.2459 -0.1417
  116MOL    C6514095   0.301   1.743   0.691  0.6855  0.2196 -0.4039
  116MOL    H6614096   0.341   1.702   0.783 -1.2482 -0.5674  0.1178
  116MOL    H6714097   0.386   1.733   0.623  1.9509  1.2505  1.0121
  116MOL    C6814098   0.276   1.893   0.723  0.2496 -0.5538 -0.2027
  116MOL   Cl6914099   0.315   1.922   0.900 -0.0848  0.7166 -0.0545
  116MOL   Cl7014100   0.106   1.956   0.698  0.3066  0.1633 -0.2954
  116MOL    C7114101   0.363   1.985   0.633  0.1616 -1.0290  0.6255
  116MOL    H7214102   0.467   1.956   0.649  1.3833  2.6521 -0.3433
  116MOL    H7314103   0.347   1.957   0.528 -0.9363  0.2696  0.4341
  116MOL    C7414104   0.349   2.140   0.625 -0.1422  0.5635 -0.3357
  116MOL   Cl7514105   0.203   2.186   0.544  0.2917  0.2708  0.1227
  116MOL   Cl7614106   0.503   2.185   0.542 -0.1858  0.4565  0.4178
  116MOL    C7714107   0.358   2.220   0.765  0.6727 -0.4486 -0.4605
  116MOL    H7814108   0.270   2.198   0.824  1.0985  0.8724  0.6781
  116MOL    H7914109   0.444   2.180   0.819  1.9344  1.0675 -1.2964
  116MOL    C8014110   0.357   2.375   0.779  0.3391  0.2391  0.3305
  116MOL   Cl8114111   0.525   2.429   0.754  0.0949  0.1835 -0.2863
  116MOL   Cl8214112   0.344   2.414   0.951 -0.1290 -0.0232  0.5179
  116MOL    C8314113   0.251   2.456   0.697 -0.0196 -0.2492 -0.2547
  116MOL    H8414114   0.275   2.436   0.593  1.5327  0.7938 -0.1253
  116MOL    H8514115   0.155   2.406   0.705  0.2419 -0.4001  2.6834
  116MOL    C8614116   0.219   2.605   0.720  0.6145  0.1458  0.9356
  116MOL   Cl8714117   0.106   2.607   0.857  0.5971 -0.2690  0.0428
  116MOL   Cl8814118   0.112   2.660   0.585 -0.0536  0.4284  0.3143
  116MOL    C8914119   0.342   2.700   0.755  0.0300  0.3008  0.8064
  116MOL    H9014120   0.312   2.773   0.831  1.8242  0.4588  1.3732
  116MOL    H9114121   0.418   2.647   0.812 -1.5463 -0.8434  1.8993
  116MOL    C9214122   0.402   2.787   0.639  0.1211 -0.2412  0.3548
  116MOL   Cl9314123   0.292   2.920   0.613  0.2351  0.1250 -0.1459
  116MOL   Cl9414124   0.411   2.683   0.490  0.1810 -0.8949  0.1190
  116MOL    C9514125   0.543   2.844   0.676  0.4499  0.0651 -1.0467
  116MOL    H9614126   0.539   2.896   0.772 -0.0105 -0.2712 -0.8806
  116MOL    H9714127   0.604   2.759   0.708 -0.9337 -0.6539 -0.2777
  116MOL    C9814128   0.626   2.944   0.587  0.4625 -1.2273 -1.0479
  116MOL   Cl9914129   0.774   2.961   0.674 -0.0114  0.2125  0.0531
  116MOL  Cl10014130   0.543   3.103   0.593  0.4940 -0.2019 -0.2263
  116MOL   C10114131   0.651   2.900   0.442  0.3289 -0.3089  0.7548
  116MOL   H10214132   0.709   2.808   0.450  0.1447 -0.4491  0.4898
  116MOL   H10314133   0.560   2.862   0.395 -0.3135 -1.5813  2.9568
  116MOL   C10414134   0.727   2.987   0.337  0.9453 -0.5184  0.4969
  116MOL  Cl10514135   0.623   3.126   0.285  0.2673  0.1413  0.1156
  116MOL  Cl10614136   0.760   2.874   0.196  0.1093 -0.2619 -0.3400
  116MOL   C10714137   0.859   3.057   0.391 -0.0468 -0.6035  0.2892
  116MOL   H10814138   0.826   3.128   0.468  1.1921  0.6234 -0.2730
  116MOL   H10914139   0.919   2.980   0.440 -1.9460 -1.3486  1.5009
  116MOL   C11014140   0.950   3.133   0.297 -0.5439  0.2407 -0.1274
  116MOL  Cl11114141   0.868   3.270   0.213 -0.0052  0.3856 -0.1559
  116MOL  Cl11214142   1.015   3.027   0.168 -0.2031 -0.0709 -0.1757
  116MOL   C11314143   1.070   3.195   0.367 -0.1953  0.5404 -0.3273
  116MOL   H11414144   1.135   3.243   0.294 -0.4237  0.5244 -0.5385
  116MOL   H11514145   1.049   3.283   0.429 -0.2052  1.2046 -1.2592
  116MOL   C11614146   1.164   3.113   0.454  0.1930  0.0955 -1.1066
  116MOL  Cl11714147   1.096   3.107   0.616 -0.2300 -0.3689 -0.1911
  116MOL  Cl11814148   1.315   3.200   0.463 -0.1271 -0.0405 -0.1919
  116MOL   C11914149   1.208   2.965   0.411  0.7354 -0.2013 -0.3041
  116MOL   H12014150   1.276   2.935   0.491 -1.0441  1.2983  1.8484
  116MOL   H12114151   1.118   2.904   0.403 -0.9616  1.7439  2.5369
  116MOL   H12214152   1.246   2.972   0.309 -0.8172 -0.9198 -0.9498
  117MOL     C114153   8.752   9.103   2.759  0.1914  0.3345  0.4012
  117MOL    Cl214154   8.804   9.133   2.921 -0.2315 -0.0468 -0.0178
  117MOL    Cl314155   8.573   9.101   2.746 -0.0344  0.4520  0.2800
  117MOL     C414156   8.828   0.020   2.664 -0.7961 -0.2810  0.7104
  117MOL     H514157   8.808   0.126   2.682  2.0041  0.3759  0.2483
  117MOL     H614158   8.935   0.017   2.687 -0.5687 -1.6172 -0.5020
  117MOL     H714159   8.789   9.002   2.746  1.2856  0.8740 -0.8741
  117MOL     C814160   8.835   9.174   2.508  0.2115 -0.2695 -0.4475
  117MOL    Cl914161   8.850   8.995   2.491 -0.2143  0.1292 -0.1891
  117MOL   Cl1014162   8.972   0.072   2.429  0.1091 -0.3419 -0.3037
  117MOL    C1114163   8.707   0.039   2.432  0.5752  0.0510  0.6533
  117MOL    H1214164   8.718   0.005   2.328 -0.5409  3.1250 -0.5196
  117MOL    H1314165   8.624   9.160   2.471 -1.3085  2.7087  0.7944
  117MOL    C1414166   8.657   0.192   2.421  0.2686  0.5960  0.0540
  117MOL   Cl1514167   8.784   0.290   2.342 -0.2397  0.0646  0.6417
  117MOL   Cl1614168   8.625   0.279   2.578  0.2482 -0.1745 -0.3807
  117MOL    C1714169   8.524   0.223   2.347  0.0030 -0.6054 -0.4632
  117MOL    H1814170   8.439   0.204   2.413 -0.6739 -2.3271 -1.7952
  117MOL    H1914171   8.515   0.331   2.340  1.3555 -0.4296  0.3114
  117MOL    C2014172   8.490   0.168   2.210 -0.1354 -0.3921 -0.0053
  117MOL   Cl2114173   8.432   0.001   2.234 -0.8857 -0.0148 -0.0860
  117MOL   Cl2214174   8.638   0.166   2.103 -0.4775  0.2166  0.0314
  117MOL    C2314175   8.381   0.237   2.127 -0.4432  0.4591  0.1244
  117MOL    H2414176   8.429   0.320   2.075  1.2084 -0.3316  0.3538
  117MOL    H2514177   8.358   0.174   2.041 -0.9656  0.3762  0.3209
  117MOL    C2614178   8.246   0.277   2.192  0.7276 -0.0928 -0.5810
  117MOL   Cl2714179   8.274   0.424   2.288  0.1114 -0.3571 -0.1366
  117MOL   Cl2814180   8.174   0.144   2.299 -0.2654  0.1607  0.0816
  117MOL    C2914181   8.139   0.300   2.084 -0.3809  0.1656  0.0522
  117MOL    H3014182   8.129   0.206   2.030 -1.0890 -0.3915  1.1231
  117MOL    H3114183   8.043   0.299   2.136 -0.9224  0.7059 -0.9257
  117MOL    C3214184   8.124   0.428   1.998 -0.5966  0.2153 -0.9533
  117MOL   Cl3314185   8.276   0.484   1.922  0.4375 -0.3046  0.3789
  117MOL   Cl3414186   8.069   0.568   2.095 -0.4652  0.4957  0.1000
  117MOL    C3514187   8.013   0.410   1.889 -0.0972 -0.2876  0.4008
  117MOL    H3614188   7.912   0.410   1.930 -0.5089  1.1725 -0.5826
  117MOL    H3714189   8.008   0.507   1.839 -0.7521  0.1148  1.2359
  117MOL    C3814190   8.017   0.284   1.790  0.4788  0.3782 -0.1349
  117MOL   Cl3914191   7.915   0.159   1.867 -0.1499  0.3506 -0.0681
  117MOL   Cl4014192   8.177   0.214   1.766 -0.0779  0.0529  0.0514
  117MOL    C4114193   7.950   0.313   1.653  0.2962 -0.5443 -0.2936
  117MOL    H4214194   7.920   0.224   1.599 -0.2842  0.6243 -1.9339
  117MOL    H4314195   7.860   0.373   1.658  1.0073  0.4313  1.4090
  117MOL    C4414196   8.036   0.389   1.545  0.8789  0.1125 -0.1866
  117MOL   Cl4514197   8.147   0.516   1.623 -0.1162  0.5090  0.6281
  117MOL   Cl4614198   7.917   0.479   1.445 -0.2320  0.1817 -0.3985
  117MOL    C4714199   8.109   0.293   1.448 -0.9754  0.4761  0.4502
  117MOL    H4814200   8.142   0.211   1.511  2.4352  0.2776 -1.4661
  117MOL    H4914201   8.030   0.253   1.384 -0.7390  1.7800 -0.6717
  117MOL    C5014202   8.224   0.351   1.355  0.4771  0.0295  0.0105
  117MOL   Cl5114203   8.265   0.202   1.269 -0.1434 -0.2598 -0.2643
  117MOL   Cl5214204   8.377   0.387   1.439  0.0062 -0.1016  0.2601
  117MOL    C5314205   8.183   0.465   1.262 -0.2236 -0.2212  0.4606
  117MOL    H5414206   8.093   0.439   1.206  0.3929  2.2882 -1.7598
  117MOL    H5514207   8.139   0.544   1.323  1.0725  0.3337  0.6778
  117MOL    C5614208   8.287   0.534   1.164  0.6723 -0.9242 -0.3158
  117MOL   Cl5714209   8.366   0.410   1.073  0.0678  0.3364 -0.0216
  117MOL   Cl5814210   8.419   0.626   1.252 -0.1485 -0.6226  0.0221
  117MOL    C5914211   8.223   0.643   1.063 -0.1192  0.5697 -0.4268
  117MOL    H6014212   8.298   0.696   1.004  1.3261 -0.8340  0.0976
  117MOL    H6114213   8.176   0.573   0.994 -1.4995  0.6357  0.4314
  117MOL    C6214214   8.113   0.745   1.110 -0.4587  0.3731 -0.3824
  117MOL   Cl6314215   8.165   0.802   1.266  0.3597  0.2649  0.2081
  117MOL   Cl6414216   7.951   0.680   1.118  0.0868 -0.1610  0.1121
  117MOL    C6514217   8.111   0.866   1.011 -0.1147  0.4022 -0.3450
  117MOL    H6614218   8.024   0.921   1.044 -0.6925  0.4995 -1.9599
  117MOL    H6714219   8.200   0.926   1.029 -0.7612  1.0930  0.5161
  117MOL    C6814220   8.082   0.839   0.854 -0.3449  0.4030  0.2848
  117MOL   Cl6914221   7.970   0.711   0.826 -0.4910  0.1399 -0.3050
  117MOL   Cl7014222   8.229   0.788   0.766  0.3178  0.3839  0.3719
  117MOL    C7114223   8.019   0.962   0.777 -0.2461  0.1907 -0.2705
  117MOL    H7214224   8.009   0.927   0.674  2.4463 -1.4946  0.0099
  117MOL    H7314225   7.916   0.971   0.814 -0.8052  0.6504 -1.8844
  117MOL    C7414226   8.091   1.099   0.788  0.1596  1.2331  0.2036
  117MOL   Cl7514227   8.267   1.096   0.801 -0.2344 -0.2248  0.7106
  117MOL   Cl7614228   8.014   1.187   0.931 -0.1234  0.3368  0.4967
  117MOL    C7714229   8.072   1.192   0.659 -1.0795 -0.2901 -0.8766
  117MOL    H7814230   8.116   1.285   0.695  2.2088 -0.9306 -3.0124
  117MOL    H7914231   8.145   1.158   0.587 -0.8199  1.6159 -1.5569
  117MOL    C8014232   7.942   1.212   0.583 -0.5630  0.7730  0.4892
  117MOL   Cl8114233   7.789   1.199   0.678 -0.0619 -0.2997  0.3044
  117MOL   Cl8214234   7.914   1.084   0.461  0.1206 -0.5391 -0.0088
  117MOL    C8314235   7.940   1.353   0.516  0.0008 -0.7804 -0.1256
  117MOL    H8414236   7.838   1.357   0.478  0.0976  0.9095 -0.2091
  117MOL    H8514237   7.931   1.422   0.600 -1.4222 -0.6661 -0.3529
  117MOL    C8614238   8.036   1.408   0.404 -0.4793 -0.0588 -0.1855
  117MOL   Cl8714239   8.023   1.297   0.263 -0.0303 -0.0751  0.1672
  117MOL   Cl8814240   8.208   1.399   0.457  0.3726 -0.4650  0.1496
  117MOL    C8914241   8.009   1.550   0.348  0.9361 -0.3633  0.7107
  117MOL    H9014242   8.094   1.585   0.289  1.8208  1.6573  3.1307
  117MOL    H9114243   7.922   1.535   0.283  0.3977  0.0354  1.3357
  117MOL    C9214244   7.981   1.672   0.442 -0.0032 -0.0632  0.2868
  117MOL   Cl9314245   8.123   1.680   0.550 -0.1817 -0.5832 -0.0822
  117MOL   Cl9414246   7.831   1.658   0.538 -0.4111 -0.3848  0.0004
  117MOL    C9514247   7.971   1.809   0.366  0.2176 -0.1999 -0.1649
  117MOL    H9614248   7.942   1.882   0.443  0.2593  0.7228 -1.0138
  117MOL    H9714249   8.070   1.841   0.332  0.0357  0.1145 -0.4063
  117MOL    C9814250   7.877   1.831   0.245  0.8786  0.9975  0.4823
  117MOL   Cl9914251   7.954   1.749   0.108  0.2778  0.2092 -0.0845
  117MOL  Cl10014252   7.889   2.007   0.214 -0.2356 -0.0428  0.0454
  117MOL   C10114253   7.729   1.778   0.267  0.2380  0.7942  0.1048
  117MOL   H10214254   7.733   1.670   0.284 -1.7857  0.7563  0.5173
  117MOL   H10314255   7.677   1.822   0.352 -1.0986 -1.4919  0.5280
  117MOL   C10414256   7.617   1.794   0.160 -0.1613  0.2176 -0.2706
  117MOL  Cl10514257   7.476   1.706   0.223 -0.5602 -0.1427 -0.2918
  117MOL  Cl10614258   7.661   1.707   0.016  0.2564 -0.1353 -0.1167
  117MOL   C10714259   7.584   1.941   0.122 -0.0097  0.1182  0.2787
  117MOL   H10814260   7.588   1.998   0.215  0.7979  1.4318 -0.5452
  117MOL   H10914261   7.660   1.990   0.062 -1.3430  1.6422 -0.1856
  117MOL   C11014262   7.441   1.978   0.067  0.6393 -0.1691 -0.2599
  117MOL  Cl11114263   7.310   1.962   0.189  0.6099 -0.0931 -0.1563
  117MOL  Cl11214264   7.406   1.861   9.118 -0.0483 -0.0999  0.4718
  117MOL   C11314265   7.424   2.121   9.171 -0.7059  0.2521 -0.7325
  117MOL   H11414266   7.499   2.123   9.092  0.7877  2.3777  0.7036
  117MOL   H11514267   7.326   2.135   9.126 -0.1315  0.7788 -1.8402
  117MOL   C11614268   7.466   2.253   0.080 -0.4045  0.0732  0.3317
  117MOL  Cl11714269   7.623   2.243   0.166 -0.1229 -0.2914 -0.1662
  117MOL  Cl11814270   7.337   2.275   0.203  0.1239 -0.2952  0.0864
  117MOL   C11914271   7.470   2.377   9.173  0.3853  0.2579 -0.1208
  117MOL   H12014272   7.368   2.392   9.136 -0.5462 -1.1613  1.7748
  117MOL   H12114273   7.495   2.465   0.052  0.9353 -0.4290  0.6706
  117MOL   H12214274   7.535   2.364   9.087 -1.0974 -1.5926 -1.0091
  118MOL     C114275   5.135   8.221   8.033 -0.1469 -0.5527 -0.0940
  118MOL    Cl214276   5.209   8.252   8.185  0.0325  0.0898 -0.0627
  118MOL    Cl314277   4.985   8.135   8.065  0.1677 -0.0349 -0.1048
  118MOL     C414278   5.103   8.360   7.961 -0.1848 -0.9974 -0.4392
  118MOL     H514279   5.015   8.345   7.899  1.5749  0.0505 -3.3229
  118MOL     H614280   5.062   8.426   8.037 -0.7117  0.9426 -2.3604
  118MOL     H714281   5.207   8.160   7.978 -1.6215 -2.3317 -0.1124
  118MOL     C814282   5.213   8.439   7.885 -0.5397 -0.4373 -0.7592
  118MOL    Cl914283   5.240   8.343   7.741 -0.1402 -0.0661  0.2871
  118MOL   Cl1014284   5.364   8.428   7.973  0.1974 -0.0988  0.2071
  118MOL    C1114285   5.186   8.591   7.861  0.1167  0.3443  0.1280
  118MOL    H1214286   5.201   8.658   7.945  1.4432  0.2641 -0.0340
  118MOL    H1314287   5.268   8.629   7.800  1.4521 -0.3513  1.4631
  118MOL    C1414288   5.050   8.652   7.805  0.2048  0.4654 -0.4286
  118MOL   Cl1514289   4.919   8.604   7.908 -0.0736  0.0009  0.2313
  118MOL   Cl1614290   5.023   8.594   7.635 -0.3660  0.1039  0.2388
  118MOL    C1714291   5.038   8.801   7.800  0.1740 -0.1565 -0.3879
  118MOL    H1814292   4.938   8.818   7.759 -1.2818 -1.7973  2.3124
  118MOL    H1914293   5.037   8.833   7.904  1.8493 -0.1868 -0.3609
  118MOL    C2014294   5.156   8.889   7.744  1.0382 -0.6832 -0.3648
  118MOL   Cl2114295   5.234   8.807   7.603 -0.2906 -0.5821  0.1746
  118MOL   Cl2214296   5.292   8.912   7.858 -0.2279 -0.1250 -0.3061
  118MOL    C2314297   5.114   9.026   7.690 -0.2315 -0.0761  0.8887
  118MOL    H2414298   5.200   9.065   7.636  0.1298  0.1608  1.6303
  118MOL    H2514299   5.033   9.007   7.619 -1.1097 -1.1898  2.1742
  118MOL    C2614300   5.072   9.144   7.781  1.0050 -0.2379  0.3749
  118MOL   Cl2714301   5.218   0.038   7.852 -0.2050 -0.8516 -0.2773
  118MOL   Cl2814302   4.966   9.096   7.914 -0.0445  0.1161 -0.4591
  118MOL    C2914303   5.012   0.088   7.713  0.4841  0.1073  0.3943
  118MOL    H3014304   4.977   0.145   7.800 -0.9071 -1.9966  1.2422
  118MOL    H3114305   5.094   0.143   7.666 -1.2757  0.7212 -2.0791
  118MOL    C3214306   4.898   0.079   7.605  0.1850  0.1164 -0.6366
  118MOL   Cl3314307   4.772   9.130   7.642 -0.1803 -0.2570 -0.1599
  118MOL   Cl3414308   4.977   0.047   7.454  0.4342 -0.1287 -0.0026
  118MOL    C3514309   4.810   0.207   7.586  0.9303  0.2238 -0.0443
  118MOL    H3614310   4.755   0.182   7.495  3.4034  0.6942 -1.7168
  118MOL    H3714311   4.744   0.209   7.673  2.5214  0.1599  1.1979
  118MOL    C3814312   4.873   0.344   7.564 -0.2051  0.0924 -1.2734
  118MOL   Cl3914313   4.920   0.396   7.726  0.2645 -0.0521 -0.2509
  118MOL   Cl4014314   4.747   0.447   7.501  0.1370 -0.0529 -0.6540
  118MOL    C4114315   4.996   0.349   7.473  0.7107 -0.1844  0.2906
  118MOL    H4214316   5.081   0.315   7.531  0.4384  0.8597  1.3287
  118MOL    H4314317   4.970   0.291   7.384  0.6503 -0.5109  0.5212
  118MOL    C4414318   5.039   0.493   7.398  0.0850 -0.2913 -0.1626
  118MOL   Cl4514319   4.934   0.508   7.248 -0.1578  0.4596 -0.5728
  118MOL   Cl4614320   5.209   0.447   7.339 -0.0905  0.0829  0.1002
  118MOL    C4714321   5.044   0.617   7.493  0.0226 -0.0910  0.1627
  118MOL    H4814322   4.953   0.623   7.554  0.4935 -0.6943  0.9397
  118MOL    H4914323   5.110   0.602   7.579  0.2309  1.9072  0.3731
  118MOL    C5014324   5.072   0.764   7.443 -0.4667 -0.0798  0.3055
  118MOL   Cl5114325   5.065   0.858   7.594  0.0650  0.5267  0.2598
  118MOL   Cl5214326   4.937   0.811   7.338  0.0498  0.1994  0.2002
  118MOL    C5314327   5.205   0.777   7.378  0.3498 -0.5700 -0.1522
  118MOL    H5414328   5.260   0.718   7.450  0.7860 -1.3546 -1.1130
  118MOL    H5514329   5.199   0.714   7.289  1.0685  0.7377 -1.1434
  118MOL    C5614330   5.270   0.908   7.341  0.4473 -0.6767 -0.1248
  118MOL   Cl5714331   5.386   0.864   7.215 -0.1185 -0.1319 -0.2860
  118MOL   Cl5814332   5.365   0.959   7.483 -0.3081 -0.0885  0.1804
  118MOL    C5914333   5.174   1.020   7.298 -0.6013 -0.3474 -0.7405
  118MOL    H6014334   5.116   0.976   7.217 -2.3051 -0.0203  0.2918
  118MOL    H6114335   5.098   1.042   7.372 -0.2615  0.4735 -0.6324
  118MOL    C6214336   5.217   1.162   7.237  0.2194  0.3923 -0.1061
  118MOL   Cl6314337   5.311   1.133   7.089 -0.4905  0.0027  0.0643
  118MOL   Cl6414338   5.325   1.245   7.349 -0.2334 -0.0227  0.0247
  118MOL    C6514339   5.094   1.259   7.193  0.5091 -0.0735  0.3315
  118MOL    H6614340   5.150   1.346   7.157 -0.0352  0.6675  1.2448
  118MOL    H6714341   5.057   1.232   7.095 -0.0593  0.8481  0.2889
  118MOL    C6814342   4.977   1.288   7.291  0.8088  1.9250  0.3232
  118MOL   Cl6914343   5.042   1.321   7.453  0.2207 -0.3073  0.2791
  118MOL   Cl7014344   4.873   1.144   7.294  0.0600  0.0562  0.1446
  118MOL    C7114345   4.890   1.407   7.252  0.3930 -0.3857 -0.1961
  118MOL    H7214346   4.830   1.381   7.165  1.1476 -0.0107 -0.8346
  118MOL    H7314347   4.816   1.424   7.330  0.7377 -2.2115  0.5555
  118MOL    C7414348   4.949   1.539   7.207 -0.1633  0.4456 -0.7832
  118MOL   Cl7514349   4.819   1.656   7.237  0.1130 -0.2984  0.0042
  118MOL   Cl7614350   4.976   1.521   7.030  0.0770 -0.0617 -0.1051
  118MOL    C7714351   5.077   1.598   7.278  0.0401  0.1731  0.3730
  118MOL    H7814352   5.049   1.636   7.376  2.0800  3.2245 -0.1440
  118MOL    H7914353   5.138   1.516   7.314  0.7187  0.5558  0.1021
  118MOL    C8014354   5.173   1.702   7.213 -0.7722 -0.7994  0.2638
  118MOL   Cl8114355   5.261   1.617   7.082  0.0592  0.1009  0.5037
  118MOL   Cl8214356   5.292   1.755   7.329 -0.1071 -0.1516  0.1205
  118MOL    C8314357   5.096   1.835   7.163 -0.1041  0.1978  0.1304
  118MOL    H8414358   5.010   1.795   7.109  0.6340  0.2300 -1.0725
  118MOL    H8514359   5.064   1.879   7.258 -0.5545 -1.3375  0.7238
  118MOL    C8614360   5.161   1.940   7.073 -0.6565  0.6698 -0.2277
  118MOL   Cl8714361   5.199   1.875   6.915  0.2807 -0.2085 -0.0022
  118MOL   Cl8814362   5.317   1.996   7.131 -0.2302  0.3489 -0.0326
  118MOL    C8914363   5.074   2.065   7.052  0.0519 -0.0675 -0.0883
  118MOL    H9014364   5.144   2.141   7.017 -0.7089  0.0417 -1.4081
  118MOL    H9114365   5.003   2.053   6.969  1.1932  1.9033 -1.3888
  118MOL    C9214366   5.001   2.135   7.173 -0.0882 -0.1775  0.0812
  118MOL   Cl9314367   5.102   2.136   7.325  0.0312 -0.0823  0.2088
  118MOL   Cl9414368   4.861   2.046   7.213  0.2321  0.2379 -0.2374
  118MOL    C9514369   4.944   2.281   7.146  0.6218 -0.1437 -0.4218
  118MOL    H9614370   4.879   2.304   7.230 -1.7289 -3.1766 -1.3364
  118MOL    H9714371   5.027   2.352   7.150  2.1753 -1.5648 -4.9115
  118MOL    C9814372   4.874   2.323   7.008 -0.0001  0.2163  0.2043
  118MOL   Cl9914373   4.741   2.211   6.963 -0.3577 -0.0354 -0.0158
  118MOL  Cl10014374   4.993   2.308   6.875  0.0850  0.0475 -0.1840
  118MOL   C10114375   4.807   2.468   7.006 -0.1371 -0.6245  0.1194
  118MOL   H10214376   4.887   2.541   6.991 -0.0716 -1.0226 -1.6427
  118MOL   H10314377   4.744   2.469   6.917 -1.7647  0.2270  1.2584
  118MOL   C10414378   4.714   2.516   7.127  0.0352  0.1125  0.3484
  118MOL  Cl10514379   4.815   2.558   7.263 -0.0497 -0.1066 -0.0533
  118MOL  Cl10614380   4.620   2.376   7.186  0.2403 -0.1871  0.0464
  118MOL   C10714381   4.606   2.628   7.102  0.6381  0.7107 -0.2105
  118MOL   H10814382   4.519   2.578   7.060  0.3449  0.0916  1.0912
  118MOL   H10914383   4.578   2.665   7.201  2.3375  1.1782  0.1130
  118MOL   C11014384   4.647   2.757   7.024  0.0443  0.2256 -0.1152
  118MOL  Cl11114385   4.708   2.720   6.867 -0.1120 -0.0377  0.0103
  118MOL  Cl11214386   4.782   2.840   7.108  0.3911 -0.3063  0.0707
  118MOL   C11314387   4.533   2.861   7.008  0.5153 -0.5109 -0.3560
  118MOL   H11414388   4.572   2.948   6.955  0.4617  0.0327  0.4962
  118MOL   H11514389   4.466   2.808   6.939 -1.6469  1.0122  0.5098
  118MOL   C11614390   4.450   2.916   7.128 -0.6805 -0.6354  0.3328
  118MOL  Cl11714391   4.340   2.794   7.192  0.2894 -0.6190  0.6719
  118MOL  Cl11814392   4.352   3.049   7.059 -0.2547 -0.3517  0.1842
  118MOL   C11914393   4.532   2.972   7.241 -0.4494 -0.1100 -0.6986
  118MOL   H12014394   4.467   3.017   7.316 -0.7473 -0.1834 -0.9091
  118MOL   H12114395   4.595   2.894   7.283 -0.8716 -0.1958 -0.2266
  118MOL   H12214396   4.606   3.044   7.205 -1.2193  0.6143 -0.8563
  119MOL     C114397   7.006   7.526   4.092 -0.0135 -0.0182  0.2407
  119MOL    Cl214398   7.109   7.432   4.204 -0.0820 -0.3899  0.3164
  119MOL    Cl314399   7.095   7.573   3.943  0.3085 -0.5519 -0.4043
  119MOL     C414400   6.875   7.454   4.061 -0.2368 -0.1584 -0.6488
  119MOL     H514401   6.830   7.481   3.966  1.6345  1.1965 -1.1742
  119MOL     H614402   6.882   7.346   4.072 -3.8344 -0.2021  2.2216
  119MOL     H714403   6.984   7.620   4.142 -0.8637 -0.1002  0.0260
  119MOL     C814404   6.757   7.516   4.142 -0.5099 -0.1187 -0.8073
  119MOL    Cl914405   6.612   7.420   4.109  0.1832 -0.3227  0.1186
  119MOL   Cl1014406   6.726   7.690   4.105 -0.3114  0.2206 -0.0300
  119MOL    C1114407   6.777   7.495   4.298  0.4904  0.7318  0.9568
  119MOL    H1214408   6.758   7.390   4.320  3.0524  0.5247  2.4122
  119MOL    H1314409   6.881   7.508   4.329 -0.1403  1.0239  3.0289
  119MOL    C1414410   6.691   7.581   4.408 -1.0926  0.5064  0.4221
  119MOL   Cl1514411   6.764   7.753   4.397 -0.1246 -0.0426 -0.0375
  119MOL   Cl1614412   6.731   7.501   4.557 -0.3086  0.2290  0.0724
  119MOL    C1714413   6.537   7.572   4.385  0.0872 -0.2833 -0.1609
  119MOL    H1814414   6.515   7.622   4.291 -1.1363 -0.4769  0.0187
  119MOL    H1914415   6.504   7.469   4.394 -2.8417  0.7589  1.7268
  119MOL    C2014416   6.438   7.628   4.495  0.2276  0.5339  0.3955
  119MOL   Cl2114417   6.498   7.780   4.581  0.0258  0.2254 -0.7162
  119MOL   Cl2214418   6.433   7.509   4.635 -0.2418 -0.0420  0.0626
  119MOL    C2314419   6.288   7.641   4.449 -0.5265  0.1285  0.3778
  119MOL    H2414420   6.226   7.552   4.438 -1.2226  0.8464 -1.8027
  119MOL    H2514421   6.237   7.683   4.536 -1.9287 -2.5259  0.8610
  119MOL    C2614422   6.246   7.739   4.333  0.0025 -0.3646  0.2289
  119MOL   Cl2714423   6.268   7.638   4.184 -0.0193 -0.0730 -0.1169
  119MOL   Cl2814424   6.358   7.868   4.318 -0.0964  0.1378 -0.0510
  119MOL    C2914425   6.113   7.806   4.339  0.2280  0.5399 -0.3707
  119MOL    H3014426   6.127   7.894   4.402  0.6291  0.1181  0.1258
  119MOL    H3114427   6.108   7.849   4.239 -0.0018  1.4992  0.0458
  119MOL    C3214428   5.974   7.739   4.379 -0.2936  0.2127 -0.0115
  119MOL   Cl3314429   5.968   7.683   4.554 -0.0842  0.1344  0.3137
  119MOL   Cl3414430   5.957   7.589   4.289 -0.3000  0.3235 -0.0471
  119MOL    C3514431   5.848   7.824   4.342  0.4330 -1.0551 -0.5189
  119MOL    H3614432   5.830   7.828   4.235  4.1391  0.5734 -1.1461
  119MOL    H3714433   5.771   7.757   4.380  1.8160 -1.8740  0.9167
  119MOL    C3814434   5.841   7.972   4.400 -0.9946 -0.5357 -0.2412
  119MOL   Cl3914435   5.948   8.085   4.310 -0.4028 -0.2721 -0.4464
  119MOL   Cl4014436   5.892   7.985   4.573  0.3700  0.1262  0.0741
  119MOL    C4114437   5.694   8.025   4.406  0.2612 -0.2326 -0.5685
  119MOL    H4214438   5.644   7.978   4.491  0.7099 -1.1542 -0.8001
  119MOL    H4314439   5.712   8.129   4.434 -0.6596 -0.6381  1.6285
  119MOL    C4414440   5.603   8.029   4.280  0.4089  0.0458 -0.5519
  119MOL   Cl4514441   5.552   7.875   4.216  0.2387  0.2486 -0.4734
  119MOL   Cl4614442   5.690   8.105   4.147  0.1745 -0.1268  0.0890
  119MOL    C4714443   5.477   8.122   4.284  0.2463 -0.0470 -0.3088
  119MOL    H4814444   5.517   8.223   4.287  0.7338 -0.2424 -0.1461
  119MOL    H4914445   5.437   8.113   4.182 -1.7370  0.8299  0.3600
  119MOL    C5014446   5.373   8.103   4.402 -0.2017  0.7953 -0.6738
  119MOL   Cl5114447   5.442   8.145   4.565 -0.0196 -0.0611 -0.1301
  119MOL   Cl5214448   5.312   7.935   4.404 -0.0094 -0.0824  0.2507
  119MOL    C5314449   5.248   8.196   4.392  0.7387  0.3665  0.0100
  119MOL    H5414450   5.163   8.145   4.437  1.1382  0.9640  1.4679
  119MOL    H5514451   5.275   8.289   4.442  4.6144 -0.0298 -1.1225
  119MOL    C5614452   5.183   8.252   4.257 -0.3611  1.3938 -0.1926
  119MOL   Cl5714453   5.115   8.120   4.164  0.2243  0.0367 -0.1077
  119MOL   Cl5814454   5.293   8.339   4.151 -0.1482  0.4489 -0.4512
  119MOL    C5914455   5.071   8.356   4.285 -0.4329 -0.1872  0.4831
  119MOL    H6014456   5.010   8.326   4.370  0.9781 -2.5720  0.7038
  119MOL    H6114457   5.130   8.437   4.328  0.1942 -0.6331  0.4723
  119MOL    C6214458   4.962   8.397   4.182  0.5876 -0.3969 -0.2928
  119MOL   Cl6314459   4.820   8.295   4.193  0.2539  0.1466  0.1633
  119MOL   Cl6414460   5.017   8.397   4.016 -0.3962  0.5722  0.0512
  119MOL    C6514461   4.909   8.540   4.197  0.0313  0.0180 -0.1598
  119MOL    H6614462   4.987   8.608   4.164 -1.1159  0.8506 -1.1919
  119MOL    H6714463   4.823   8.557   4.133 -0.1971  0.9637  0.3856
  119MOL    C6814464   4.861   8.595   4.338 -0.4235  0.0318 -0.5469
  119MOL   Cl6914465   4.794   8.756   4.293 -0.3697 -0.0539  0.2589
  119MOL   Cl7014466   4.994   8.630   4.446 -0.0344  0.4504 -0.1520
  119MOL    C7114467   4.761   8.504   4.419 -0.4140  0.0838 -0.8460
  119MOL    H7214468   4.677   8.474   4.357  0.7874 -3.2060 -0.9639
  119MOL    H7314469   4.815   8.413   4.441 -2.2065 -0.1001  3.3194
  119MOL    C7414470   4.719   8.543   4.569  0.1925 -0.6785  0.0795
  119MOL   Cl7514471   4.560   8.461   4.581  0.1255  0.3531 -0.5957
  119MOL   Cl7614472   4.691   8.723   4.594 -0.0858 -0.5422  0.2678
  119MOL    C7714473   4.806   8.497   4.688 -0.2392 -0.3438 -0.3620
  119MOL    H7814474   4.893   8.562   4.678 -0.7424  0.1350 -1.6305
  119MOL    H7914475   4.755   8.531   4.779  0.8382  0.0690  0.0951
  119MOL    C8014476   4.868   8.348   4.703 -0.1865 -0.4919 -0.0025
  119MOL   Cl8114477   5.025   8.351   4.622 -0.1239 -0.2010  0.2624
  119MOL   Cl8214478   4.764   8.224   4.626  0.1601  0.3026  0.2209
  119MOL    C8314479   4.899   8.304   4.845  0.0680  0.5706 -0.4682
  119MOL    H8414480   4.986   8.238   4.839 -0.4017 -0.2088  1.0544
  119MOL    H8514481   4.940   8.394   4.891 -0.7619 -0.0956  1.6244
  119MOL    C8614482   4.799   8.242   4.944  0.5978  0.1699  0.8948
  119MOL   Cl8714483   4.759   8.070   4.899  0.1007  0.6885 -0.3594
  119MOL   Cl8814484   4.641   8.324   4.935  0.2966  0.1094 -0.6442
  119MOL    C8914485   4.842   8.251   5.090 -0.0231  0.0204  0.5210
  119MOL    H9014486   4.835   8.356   5.116 -0.7296 -0.4131  2.1055
  119MOL    H9114487   4.765   8.196   5.144  0.0601 -0.4919  0.1247
  119MOL    C9214488   4.973   8.195   5.144  0.2049 -0.1839  0.2276
  119MOL   Cl9314489   5.116   8.287   5.078  0.5273  0.2018 -0.1011
  119MOL   Cl9414490   5.003   8.035   5.086  0.7533  0.2498 -0.0116
  119MOL    C9514491   4.979   8.184   5.299 -0.2728  0.2513 -0.8652
  119MOL    H9614492   4.923   8.099   5.337  2.4981 -1.0798  0.4134
  119MOL    H9714493   5.079   8.152   5.330 -0.6073 -1.0554 -1.1376
  119MOL    C9814494   4.928   8.306   5.376  0.6339  0.4582 -0.1507
  119MOL   Cl9914495   4.751   8.310   5.373 -0.2092 -0.1947 -0.1697
  119MOL  Cl10014496   4.994   8.458   5.314  0.0166  0.1695 -0.0507
  119MOL   C10114497   4.959   8.295   5.534 -0.4413 -0.3519 -0.1933
  119MOL   H10214498   4.931   8.395   5.568  1.4633  0.2429 -0.3244
  119MOL   H10314499   4.890   8.225   5.581  1.0336 -0.5808  1.7071
  119MOL   C10414500   5.095   8.261   5.596  0.0022  0.0955  0.0489
  119MOL  Cl10514501   5.239   8.347   5.523 -0.1386 -0.1549  0.0866
  119MOL  Cl10614502   5.125   8.087   5.581 -0.0563  0.3494 -0.0782
  119MOL   C10714503   5.096   8.300   5.748 -0.7371  0.1150  0.6316
  119MOL   H10814504   5.110   8.408   5.749 -2.1839  0.3062 -0.0414
  119MOL   H10914505   5.001   8.289   5.799 -0.5400 -2.1142  0.5727
  119MOL   C11014506   5.210   8.250   5.852  0.1493  0.0350 -0.0773
  119MOL  Cl11114507   5.222   8.372   5.985 -0.0062  0.3550 -0.2973
  119MOL  Cl11214508   5.373   8.221   5.771  0.1148 -0.2243 -0.1526
  119MOL   C11314509   5.171   8.114   5.914  0.4781 -0.1318 -0.1527
  119MOL   H11414510   5.065   8.108   5.935  0.0836  0.8557 -1.8238
  119MOL   H11514511   5.185   8.031   5.844  0.2891 -1.4119  1.2804
  119MOL   C11614512   5.248   8.056   6.040  0.2302  1.2360 -0.4433
  119MOL  Cl11714513   5.189   7.892   6.055  0.0021  0.2535  0.0270
  119MOL  Cl11814514   5.204   8.134   6.192  0.1306 -0.0478  0.1687
  119MOL   C11914515   5.404   8.059   6.029 -0.2895  0.3866 -0.0278
  119MOL   H12014516   5.436   8.163   6.040 -1.8623  0.8567  0.3072
  119MOL   H12114517   5.442   7.997   6.110  0.4768 -0.3810 -0.9718
  119MOL   H12214518   5.449   8.019   5.938 -0.5600 -2.6896  1.1517
  120MOL     C114519   2.118   6.264   6.592  0.5382  0.6555  0.5371
  120MOL    Cl214520   2.155   6.152   6.731  0.0091  0.1693  0.1345
  120MOL    Cl314521   1.978   6.207   6.502  0.0356  0.1483  0.3703
  120MOL     C414522   2.080   6.414   6.629  0.6061  0.2794 -0.4764
  120MOL     H514523   2.037   6.455   6.538  0.6914 -0.3294 -0.7947
  120MOL     H614524   2.009   6.413   6.712 -2.1273 -1.4328 -2.7585
  120MOL     H714525   2.195   6.261   6.515 -0.4069  3.2030 -0.5517
  120MOL     C814526   2.211   6.493   6.671 -0.4709 -0.1917 -0.2434
  120MOL    Cl914527   2.322   6.496   6.530 -0.2961  0.3090 -0.2322
  120MOL   Cl1014528   2.305   6.417   6.808  0.1652  0.0767  0.1509
  120MOL    C1114529   2.184   6.641   6.707 -0.2444 -0.7194  0.2830
  120MOL    H1214530   2.273   6.693   6.744 -0.0501 -0.2881 -0.7810
  120MOL    H1314531   2.156   6.692   6.615  0.2134 -1.3661 -0.2218
  120MOL    C1414532   2.081   6.688   6.810 -0.6346  0.0974  0.2163
  120MOL   Cl1514533   2.083   6.599   6.957  0.2497  0.2532  0.0539
  120MOL   Cl1614534   1.916   6.673   6.744 -0.5586 -0.1833 -0.1429
  120MOL    C1714535   2.103   6.834   6.860 -0.5356 -0.1230 -0.5901
  120MOL    H1814536   2.033   6.850   6.942 -0.4949 -1.5554 -0.2604
  120MOL    H1914537   2.204   6.825   6.900 -0.7855  2.8832  0.8450
  120MOL    C2014538   2.091   6.962   6.775  0.1848  0.1102  0.1192
  120MOL   Cl2114539   2.218   6.951   6.645 -0.5482 -0.2192  0.0200
  120MOL   Cl2214540   2.142   7.100   6.874  0.0394  0.0403 -0.0509
  120MOL    C2314541   1.950   7.001   6.721 -0.7116 -0.1668 -0.3218
  120MOL    H2414542   1.908   6.907   6.683  0.4667 -0.5359 -0.7258
  120MOL    H2514543   1.875   7.043   6.788  0.3742  1.2413  0.0257
  120MOL    C2614544   1.924   7.099   6.604 -0.7179  0.9065 -0.0113
  120MOL   Cl2714545   1.750   7.150   6.619 -0.1702  0.1980 -0.2512
  120MOL   Cl2814546   1.933   7.008   6.450  0.1625  0.0263 -0.4303
  120MOL    C2914547   2.020   7.230   6.610 -0.1992 -0.3120  0.0673
  120MOL    H3014548   1.969   7.293   6.683  1.7787  0.3635  0.8987
  120MOL    H3114549   2.111   7.210   6.666 -1.3617 -0.6507  1.8971
  120MOL    C3214550   2.045   7.323   6.486 -0.4512  0.5362 -0.3081
  120MOL   Cl3314551   2.097   7.483   6.552  0.1837 -0.5904 -0.4364
  120MOL   Cl3414552   1.886   7.348   6.413  0.0237  0.0200  0.3261
  120MOL    C3514553   2.144   7.271   6.383 -0.1073  0.3613  0.1641
  120MOL    H3614554   2.110   7.169   6.362 -0.1984  1.1649 -3.8890
  120MOL    H3714555   2.116   7.324   6.292  0.5474  1.8533  0.8237
  120MOL    C3814556   2.294   7.279   6.377 -0.1390 -0.5219 -0.0252
  120MOL   Cl3914557   2.336   7.182   6.241 -0.4883  0.0672  0.1332
  120MOL   Cl4014558   2.362   7.199   6.516  0.0424  0.2616 -0.1502
  120MOL    C4114559   2.354   7.422   6.365  0.4543  0.0107  0.7893
  120MOL    H4214560   2.322   7.459   6.268  0.1335 -0.2296  0.8032
  120MOL    H4314561   2.307   7.495   6.431 -0.1130  0.7129 -0.3825
  120MOL    C4414562   2.507   7.452   6.370  0.4775  0.0708  0.3826
  120MOL   Cl4514563   2.551   7.459   6.540 -0.0578  0.1105  0.1712
  120MOL   Cl4614564   2.524   7.621   6.303  0.5088 -0.3043 -0.1133
  120MOL    C4714565   2.595   7.342   6.296  0.5287 -0.0609 -0.4635
  120MOL    H4814566   2.577   7.242   6.334  1.8298  0.7031  2.2635
  120MOL    H4914567   2.548   7.341   6.197  0.0964 -0.2252 -0.2541
  120MOL    C5014568   2.755   7.337   6.285  0.9792  0.3305  0.6142
  120MOL   Cl5114569   2.843   7.320   6.434 -0.0064  0.0462 -0.0305
  120MOL   Cl5214570   2.807   7.497   6.223 -0.3407  0.1220 -0.1043
  120MOL    C5314571   2.817   7.253   6.173  0.4736 -0.3730 -0.4505
  120MOL    H5414572   2.754   7.294   6.094 -0.2727  0.9715  0.8007
  120MOL    H5514573   2.923   7.276   6.180 -0.3514  3.2555  1.6442
  120MOL    C5614574   2.798   7.101   6.150  0.4516 -0.4309 -0.2384
  120MOL   Cl5714575   2.628   7.061   6.117 -0.0378  0.0426 -0.2166
  120MOL   Cl5814576   2.841   7.016   6.298  0.4995 -0.7082 -0.2026
  120MOL    C5914577   2.898   7.049   6.035  0.3091 -0.6888 -0.0769
  120MOL    H6014578   3.000   7.052   6.073  1.4022 -0.0385 -2.9737
  120MOL    H6114579   2.881   6.941   6.036  2.6644 -1.1006  2.0937
  120MOL    C6214580   2.898   7.112   5.887 -0.2164  0.0503  0.3199
  120MOL   Cl6314581   2.939   7.288   5.890 -0.1917  0.4670  0.0768
  120MOL   Cl6414582   2.737   7.096   5.817  0.6139  0.2650  0.1616
  120MOL    C6514583   2.998   7.023   5.805  0.4156 -0.8866  0.3151
  120MOL    H6614584   3.082   7.011   5.873 -0.8740  0.4908  2.1971
  120MOL    H6714585   2.944   6.929   5.796  0.1419 -0.6026 -1.1596
  120MOL    C6814586   3.054   7.084   5.666 -0.1783  0.4881 -0.5078
  120MOL   Cl6914587   3.132   6.948   5.588  0.3685  0.1904 -0.0384
  120MOL   Cl7014588   3.194   7.190   5.703  0.1197  0.3642 -0.2544
  120MOL    C7114589   2.953   7.170   5.583  0.0375  0.3641  0.1507
  120MOL    H7214590   2.857   7.121   5.570 -0.5735  2.2871 -3.0699
  120MOL    H7314591   2.925   7.256   5.644 -1.6043 -2.2855  3.2844
  120MOL    C7414592   2.992   7.228   5.436  0.2845 -1.5512  0.5466
  120MOL   Cl7514593   3.022   7.103   5.325  0.1403 -0.2402 -0.1893
  120MOL   Cl7614594   3.141   7.334   5.442 -0.0715 -0.1780  0.0316
  120MOL    C7714595   2.868   7.305   5.378  0.1255 -0.4813 -0.4682
  120MOL    H7814596   2.896   7.331   5.276  3.2211  1.4358  0.8240
  120MOL    H7914597   2.788   7.236   5.351 -0.0171 -0.1158 -0.9793
  120MOL    C8014598   2.797   7.421   5.451  0.5825 -0.1572  0.7506
  120MOL   Cl8114599   2.913   7.515   5.538 -0.2285 -0.0056 -0.1099
  120MOL   Cl8214600   2.689   7.343   5.561 -0.0455  0.1411 -0.5273
  120MOL    C8314601   2.707   7.516   5.367  0.3538  0.3497 -0.0031
  120MOL    H8414602   2.655   7.585   5.434  1.2229  1.0071  0.0013
  120MOL    H8514603   2.771   7.590   5.319  0.1765  0.1520 -0.5575
  120MOL    C8614604   2.626   7.471   5.245  0.6127  0.2943 -0.5106
  120MOL   Cl8714605   2.546   7.308   5.262  0.1636 -0.0779  0.3691
  120MOL   Cl8814606   2.734   7.467   5.103 -0.0950 -0.0155 -0.1474
  120MOL    C8914607   2.519   7.572   5.195  0.1737 -0.1834 -0.1248
  120MOL    H9014608   2.579   7.656   5.158  0.1783  0.1353  0.6131
  120MOL    H9114609   2.462   7.526   5.114 -3.1738  1.7358  1.0182
  120MOL    C9214610   2.419   7.641   5.295  0.2297  0.4061 -0.0050
  120MOL   Cl9314611   2.501   7.782   5.377  0.0450 -0.3594 -0.4195
  120MOL   Cl9414612   2.368   7.524   5.419 -0.0308  0.2753  0.4806
  120MOL    C9514613   2.295   7.686   5.218  0.2295  0.4505  0.2225
  120MOL    H9614614   2.246   7.597   5.178 -0.3372  0.9875 -0.2897
  120MOL    H9714615   2.228   7.723   5.295  0.5036 -1.3730  1.3438
  120MOL    C9814616   2.301   7.795   5.102 -0.3353 -0.0700  0.0310
  120MOL   Cl9914617   2.388   7.726   4.965 -0.1336  0.0187 -0.1110
  120MOL  Cl10014618   2.413   7.931   5.141 -0.6781  0.1471 -0.2400
  120MOL   C10114619   2.157   7.855   5.056  0.6724  0.2575 -1.0372
  120MOL   H10214620   2.140   7.918   5.143  2.4145 -2.3186  1.2375
  120MOL   H10314621   2.170   7.920   4.969  1.4383  0.8951 -0.4530
  120MOL   C10414622   2.028   7.764   5.051 -0.1750 -0.0273 -0.3807
  120MOL  Cl10514623   1.970   7.711   5.220 -0.2562 -0.0880  0.1678
  120MOL  Cl10614624   2.080   7.618   4.976 -0.0345 -0.1881  0.3641
  120MOL   C10714625   1.905   7.824   4.977  0.3784  0.5755 -0.6164
  120MOL   H10814626   1.923   7.823   4.869 -1.6826  1.4302 -0.9982
  120MOL   H10914627   1.827   7.747   4.973  0.7251  0.1875  0.0169
  120MOL   C11014628   1.837   7.961   5.017 -0.3243 -0.0221  0.0493
  120MOL  Cl11114629   1.926   8.085   4.930 -0.3206  0.2100  0.2002
  120MOL  Cl11214630   1.862   8.011   5.183  0.1955  0.5939 -0.0593
  120MOL   C11314631   1.688   7.979   4.990  0.8764  1.0081  0.0948
  120MOL   H11414632   1.663   8.081   5.019 -2.8995  0.5642 -1.4031
  120MOL   H11514633   1.669   7.983   4.883  2.5713 -0.8841 -0.3159
  120MOL   C11614634   1.578   7.894   5.055  0.0087 -0.7194  0.0197
  120MOL  Cl11714635   1.561   7.735   4.967 -0.0747 -0.2379  0.0298
  120MOL  Cl11814636   1.419   7.967   5.055 -0.0729 -0.1673  0.0254
  120MOL   C11914637   1.604   7.841   5.201 -0.2851 -0.1089 -0.3412
  120MOL   H12014638   1.621   7.928   5.263  1.4746 -1.3848  1.0262
  120MOL   H12114639   1.521   7.776   5.229  0.2896 -2.0279 -2.8955
  120MOL   H12214640   1.695   7.785   5.225  0.0225  0.3390 -0.4505
  121MOL     C114641   1.440   1.791   1.493 -0.3997 -0.0590 -0.1593
  121MOL    Cl214642   1.406   1.628   1.549 -0.0325  0.1279 -0.5304
  121MOL    Cl314643   1.410   1.799   1.313  0.0496 -0.2662  0.0399
  121MOL     C414644   1.359   1.887   1.579  0.1907 -0.9533 -0.6769
  121MOL     H514645   1.253   1.867   1.566 -0.1085  0.0770  0.1173
  121MOL     H614646   1.382   1.869   1.685  2.6133  2.2263 -0.5746
  121MOL     H714647   1.545   1.797   1.522 -0.0592 -0.5841 -1.2318
  121MOL     C814648   1.387   2.042   1.556  0.8550  0.2189  0.0254
  121MOL    Cl914649   1.383   2.096   1.389  0.4043 -0.2328 -0.1312
  121MOL   Cl1014650   1.558   2.062   1.606  0.0148  0.1913 -0.0115
  121MOL    C1114651   1.291   2.125   1.652  0.0356  0.1563 -0.5226
  121MOL    H1214652   1.187   2.096   1.640  0.1248  0.2638 -1.6591
  121MOL    H1314653   1.306   2.081   1.750 -0.4255 -1.5593 -1.2084
  121MOL    C1414654   1.294   2.280   1.646  0.1814 -0.3587  0.5427
  121MOL   Cl1514655   1.217   2.339   1.797 -0.1409 -0.0151  0.2438
  121MOL   Cl1614656   1.195   2.330   1.502  0.2145 -0.0454  0.3441
  121MOL    C1714657   1.444   2.349   1.626  0.0607  0.7450 -0.2560
  121MOL    H1814658   1.510   2.324   1.710 -1.7580 -0.3019  0.9056
  121MOL    H1914659   1.491   2.305   1.538  0.8968  2.6229 -0.7755
  121MOL    C2014660   1.468   2.509   1.614 -0.0954 -0.5016  0.3816
  121MOL   Cl2114661   1.640   2.541   1.655 -0.1432 -0.0349  0.1954
  121MOL   Cl2214662   1.390   2.602   1.747 -0.2198  0.1003 -0.0903
  121MOL    C2314663   1.420   2.562   1.470  0.0964  0.4071  0.0014
  121MOL    H2414664   1.432   2.481   1.398 -0.8524  1.7430 -1.6839
  121MOL    H2514665   1.314   2.577   1.491  0.2049  2.3397 -0.7827
  121MOL    C2614666   1.467   2.694   1.415  0.5051 -0.2921 -0.2241
  121MOL   Cl2714667   1.639   2.677   1.374  0.2202 -0.1293  0.0562
  121MOL   Cl2814668   1.451   2.840   1.527 -0.2435  0.1139  0.5651
  121MOL    C2914669   1.404   2.732   1.277 -0.5678  0.0052  0.8337
  121MOL    H3014670   1.431   2.836   1.260 -0.8210  0.0550  0.7392
  121MOL    H3114671   1.452   2.681   1.193 -4.6212 -2.4371 -0.1414
  121MOL    C3214672   1.253   2.723   1.258  0.2320 -0.2551 -0.3495
  121MOL   Cl3314673   1.159   2.804   1.383 -0.3477 -0.4722 -0.2702
  121MOL   Cl3414674   1.208   2.553   1.253  0.5685  0.3487 -0.2998
  121MOL    C3514675   1.214   2.767   1.111 -0.4267 -0.3017  0.3488
  121MOL    H3614676   1.276   2.705   1.046  1.5634  0.5694  1.3576
  121MOL    H3714677   1.110   2.737   1.099 -0.2118 -0.9394  0.0472
  121MOL    C3814678   1.240   2.908   1.054 -0.5793 -0.4210  0.3579
  121MOL   Cl3914679   1.159   2.901   0.895 -0.0928  0.6926  0.1190
  121MOL   Cl4014680   1.415   2.942   1.032 -0.0907  0.2872  0.0769
  121MOL    C4114681   1.170   3.016   1.146 -0.3962 -0.2520 -0.2666
  121MOL    H4214682   1.077   2.976   1.187  0.2912  0.6896  2.3636
  121MOL    H4314683   1.238   3.023   1.231  0.0896  0.0811 -0.6807
  121MOL    C4414684   1.152   3.165   1.091  0.1351  0.0525 -0.4907
  121MOL   Cl4514685   1.146   3.277   1.230 -0.2467 -0.5043 -0.1350
  121MOL   Cl4614686   0.985   3.150   1.009 -0.4330  0.2572  0.1670
  121MOL    C4714687   1.257   3.223   0.989 -0.6418  0.2278 -0.2380
  121MOL    H4814688   1.358   3.212   1.028 -0.7791  0.8275  0.2942
  121MOL    H4914689   1.258   3.148   0.910 -1.9127 -3.0507  2.7281
  121MOL    C5014690   1.257   3.362   0.923 -0.9032 -0.3542  0.9185
  121MOL   Cl5114691   1.367   3.341   0.780 -0.0662  0.2290  0.0287
  121MOL   Cl5214692   1.348   3.480   1.026 -0.4145 -0.3248 -0.3323
  121MOL    C5314693   1.126   3.414   0.873 -0.5796 -0.4862 -0.3108
  121MOL    H5414694   1.070   3.334   0.823 -2.2179 -0.0382  0.7527
  121MOL    H5514695   1.077   3.421   0.970  1.4972 -0.6211  0.7644
  121MOL    C5614696   1.111   3.542   0.787  1.0614  0.7349  0.5462
  121MOL   Cl5714697   1.186   3.683   0.861 -0.1123 -0.2247 -0.0120
  121MOL   Cl5814698   0.932   3.551   0.778 -0.0142 -0.0837 -0.4971
  121MOL    C5914699   1.175   3.533   0.644  0.2560 -0.3217 -0.2315
  121MOL    H6014700   1.279   3.565   0.646  0.0635  0.2623  0.2443
  121MOL    H6114701   1.187   3.428   0.616 -2.1309 -1.1821  1.8603
  121MOL    C6214702   1.097   3.601   0.523 -0.0536  0.1577  0.3862
  121MOL   Cl6314703   0.949   3.515   0.479  0.2238  0.2645 -0.2053
  121MOL   Cl6414704   1.200   3.556   0.383 -0.5176 -0.1184  0.4091
  121MOL    C6514705   1.068   3.755   0.531 -0.8551  0.1230  0.4494
  121MOL    H6614706   1.040   3.791   0.630  1.5325  0.2540  1.1156
  121MOL    H6714707   1.165   3.805   0.526  0.4655 -2.2154  1.7837
  121MOL    C6814708   0.979   3.823   0.422 -0.1306  0.3813 -0.1463
  121MOL   Cl6914709   1.045   3.989   0.417 -0.0064  0.3868  0.3237
  121MOL   Cl7014710   0.827   3.839   0.510  0.4607 -0.2261  0.1311
  121MOL    C7114711   0.977   3.763   0.284  0.3493 -0.5434 -0.0049
  121MOL    H7214712   1.080   3.735   0.262  0.0035 -0.6923 -1.4657
  121MOL    H7314713   0.931   3.664   0.293  3.1629 -1.8767  0.1011
  121MOL    C7414714   0.923   3.841   0.164 -0.3722 -0.0225  0.2082
  121MOL   Cl7514715   1.049   3.958   0.088  0.2200 -0.1587 -0.1370
  121MOL   Cl7614716   0.784   3.944   0.199 -0.3087  0.0305 -0.1521
  121MOL    C7714717   0.868   3.746   0.056 -0.1631  1.5506  0.2734
  121MOL    H7814718   0.787   3.683   0.092  0.8642  0.4080  0.6316
  121MOL    H7914719   0.811   3.806   9.166 -1.1850 -0.0555 -0.2881
  121MOL    C8014720   0.956   3.646   9.151  0.0714 -0.9525 -0.2760
  121MOL   Cl8114721   0.841   3.557   9.064 -0.1266 -0.6456  0.2264
  121MOL   Cl8214722   1.039   3.540   0.090 -0.0302 -0.0596  0.2202
  121MOL    C8314723   1.054   3.711   9.051  0.6568  0.2070  0.1363
  121MOL    H8414724   1.000   3.793   9.004 -0.0515 -1.0377 -1.2734
  121MOL    H8514725   1.126   3.753   9.121 -1.1174 -0.8035  2.6636
  121MOL    C8614726   1.131   3.634   8.939  0.1364  0.0824  0.4044
  121MOL   Cl8714727   1.013   3.581   8.816  0.0280  0.1460  0.0640
  121MOL   Cl8814728   1.223   3.489   9.008  0.4388  0.5820 -0.3075
  121MOL    C8914729   1.229   3.729   8.856 -0.1199  0.1725 -0.4410
  121MOL    H9014730   1.287   3.677   8.780 -0.2292  1.5517 -1.4960
  121MOL    H9114731   1.177   3.802   8.794 -0.9684  0.0111  0.0852
  121MOL    C9214732   1.335   3.823   8.923  0.1921 -0.6899 -1.0392
  121MOL   Cl9314733   1.244   3.961   9.003  0.2762 -0.2579  0.1486
  121MOL   Cl9414734   1.445   3.900   8.806 -0.1370  0.2640  0.0500
  121MOL    C9514735   1.414   3.737   9.036  0.3401 -0.3503 -0.3675
  121MOL    H9614736   1.340   3.723   9.115 -0.8599 -1.7583 -1.7145
  121MOL    H9714737   1.442   3.637   9.004 -0.5665 -0.2050 -1.6484
  121MOL    C9814738   1.544   3.807   9.098 -0.8362  0.0498  0.3446
  121MOL   Cl9914739   1.522   3.982   9.147  0.1741 -0.0220 -0.2478
  121MOL  Cl10014740   1.683   3.806   8.989  0.3571 -0.0752  0.0370
  121MOL   C10114741   1.606   3.732   0.036 -0.2640  0.0003  0.0307
  121MOL   H10214742   1.668   3.647   0.008  0.6636  0.3039  1.1114
  121MOL   H10314743   1.664   3.814   0.077  0.3983 -1.7737  2.7654
  121MOL   C10414744   1.512   3.678   0.157 -0.3347  0.3283  0.7256
  121MOL  Cl10514745   1.427   3.528   0.099  0.2169 -0.4849 -0.4880
  121MOL  Cl10614746   1.390   3.803   0.208 -0.2098 -0.2929  0.1759
  121MOL   C10714747   1.580   3.626   0.281  0.1476 -0.0361 -0.4755
  121MOL   H10814748   1.498   3.611   0.351  0.7164  0.7673  0.3786
  121MOL   H10914749   1.619   3.531   0.243 -0.9658 -0.3677 -0.8115
  121MOL   C11014750   1.695   3.696   0.356 -0.1967 -0.6315  0.2045
  121MOL  Cl11114751   1.659   3.869   0.393  0.0818 -0.0612  0.2690
  121MOL  Cl11214752   1.833   3.706   0.249  0.0120  0.0288 -0.0616
  121MOL   C11314753   1.743   3.625   0.491  0.1428  0.3294  0.2683
  121MOL   H11414754   1.797   3.538   0.455 -0.2101 -1.2027  3.3011
  121MOL   H11514755   1.830   3.673   0.535  0.7758 -1.7166  1.2672
  121MOL   C11614756   1.649   3.570   0.593 -0.3351 -0.0120 -0.5999
  121MOL  Cl11714757   1.590   3.417   0.541 -0.3566  0.4086  0.2233
  121MOL  Cl11814758   1.511   3.676   0.628 -0.0269  0.3834 -0.7079
  121MOL   C11914759   1.727   3.553   0.729  0.2214 -0.3186  0.0348
  121MOL   H12014760   1.660   3.533   0.813 -1.2714  2.3443 -0.4719
  121MOL   H12114761   1.811   3.484   0.727  2.1341  1.8649  2.2215
  121MOL   H12214762   1.773   3.649   0.751  0.0036 -0.1189 -0.3920
  122MOL     C114763   3.238   3.048   5.429 -0.1632  1.2200 -0.8075
  122MOL    Cl214764   3.145   2.917   5.343  0.3688  0.1984 -0.2089
  122MOL    Cl314765   3.162   3.207   5.401  0.2663 -0.1169 -0.0972
  122MOL     C414766   3.243   3.011   5.579  0.5508  0.0535  0.4359
  122MOL     H514767   3.142   3.005   5.622  0.0835 -0.3666 -0.7006
  122MOL     H614768   3.280   2.908   5.581  0.5061  0.0137 -0.8006
  122MOL     H714769   3.341   3.048   5.392 -0.0274 -1.6969 -0.5700
  122MOL     C814770   3.327   3.100   5.675 -0.5349  0.5615 -0.0497
  122MOL    Cl914771   3.496   3.121   5.608 -0.0002  0.5275  0.1010
  122MOL   Cl1014772   3.343   2.999   5.817 -0.0395 -0.3478  0.0810
  122MOL    C1114773   3.275   3.244   5.710  0.0512  0.7943  0.4390
  122MOL    H1214774   3.295   3.310   5.626 -2.1751  0.9992  0.0238
  122MOL    H1314775   3.167   3.248   5.692 -0.0765  2.4613  1.4902
  122MOL    C1414776   3.298   3.313   5.852  0.2152  0.0118  0.5467
  122MOL   Cl1514777   3.189   3.241   5.970 -0.2052  0.0884 -0.1994
  122MOL   Cl1614778   3.242   3.480   5.828 -0.1575  0.2626 -0.0281
  122MOL    C1714779   3.444   3.305   5.898  0.0549 -0.4781 -0.6506
  122MOL    H1814780   3.481   3.203   5.900  1.2891 -0.0881 -1.8924
  122MOL    H1914781   3.504   3.365   5.828  3.6421  0.9942  3.4498
  122MOL    C2014782   3.484   3.357   6.037  0.1689  0.4784 -0.0270
  122MOL   Cl2114783   3.449   3.235   6.164 -0.2982 -0.1767  0.0627
  122MOL   Cl2214784   3.402   3.509   6.090  0.3734  0.2872  0.2819
  122MOL    C2314785   3.631   3.405   6.037 -0.2067  0.6274 -0.5393
  122MOL    H2414786   3.634   3.492   5.971  0.3243  0.6830 -0.4464
  122MOL    H2514787   3.651   3.446   6.136 -1.9951 -0.6757  0.4002
  122MOL    C2614788   3.749   3.305   6.012  0.4743 -0.0086  0.3124
  122MOL   Cl2714789   3.736   3.258   5.839  0.3111 -0.1531 -0.0643
  122MOL   Cl2814790   3.742   3.159   6.109  0.1981 -0.0476 -0.0721
  122MOL    C2914791   3.884   3.371   6.055  0.4795 -0.3638 -0.8669
  122MOL    H3014792   3.877   3.480   6.050 -0.6525 -0.4338 -1.0630
  122MOL    H3114793   3.891   3.355   6.162  0.1888 -1.2512 -0.9786
  122MOL    C3214794   4.017   3.331   5.988  0.2416  0.5473  0.3522
  122MOL   Cl3314795   4.129   3.412   6.102 -0.3108 -0.2094 -0.0810
  122MOL   Cl3414796   4.046   3.403   5.831 -0.1894  0.1202 -0.2470
  122MOL    C3514797   4.049   3.177   5.995 -0.8041  0.8215 -0.2924
  122MOL    H3614798   4.062   3.138   6.096  0.8538  0.2144 -0.7244
  122MOL    H3714799   3.955   3.124   5.978  0.1684 -1.3184  0.7699
  122MOL    C3814800   4.157   3.107   5.900 -0.2499 -0.7329 -0.0591
  122MOL   Cl3914801   4.212   2.960   5.988 -0.0525  0.0143 -0.1582
  122MOL   Cl4014802   4.297   3.212   5.884 -0.1537  0.0510  0.1110
  122MOL    C4114803   4.094   3.067   5.756 -0.3293  0.1793 -0.0969
  122MOL    H4214804   4.014   3.000   5.791 -0.3988  0.3371  0.0454
  122MOL    H4314805   4.036   3.145   5.706 -0.1981 -1.3197 -2.6388
  122MOL    C4414806   4.168   2.992   5.643 -0.6995 -0.1211 -0.3287
  122MOL   Cl4514807   4.023   2.951   5.532 -0.1222  0.1589  0.3944
  122MOL   Cl4614808   4.242   2.840   5.691 -0.3966 -0.3289  0.4703
  122MOL    C4714809   4.270   3.088   5.566  0.7549 -0.0038  0.1431
  122MOL    H4814810   4.210   3.176   5.540  2.6658  1.6238  1.1697
  122MOL    H4914811   4.348   3.110   5.638  0.1472  0.7505  0.5814
  122MOL    C5014812   4.341   3.042   5.432  0.7598  0.2565  0.2249
  122MOL   Cl5114813   4.446   3.170   5.387  0.0468  0.1070  0.0058
  122MOL   Cl5214814   4.209   3.042   5.303  0.2407 -0.2503 -0.0343
  122MOL    C5314815   4.421   2.908   5.433  0.1323  0.1464 -0.3601
  122MOL    H5414816   4.465   2.897   5.532 -2.0467  1.8424  0.8435
  122MOL    H5514817   4.350   2.826   5.427 -0.1436  0.2710  1.1113
  122MOL    C5614818   4.540   2.873   5.328 -0.0839  0.5634  0.0354
  122MOL   Cl5714819   4.490   2.938   5.163  0.5710  0.5321  0.2228
  122MOL   Cl5814820   4.550   2.699   5.311  0.0737 -0.2339  0.0818
  122MOL    C5914821   4.687   2.928   5.357 -0.7352 -0.0678  0.4520
  122MOL    H6014822   4.743   2.871   5.282 -0.9583  0.9698 -0.5259
  122MOL    H6114823   4.689   3.030   5.317 -0.1920  0.6375  2.2306
  122MOL    C6214824   4.756   2.926   5.497  0.0123 -0.2221  0.2506
  122MOL   Cl6314825   4.694   2.787   5.596 -0.5066 -0.0095 -0.1776
  122MOL   Cl6414826   4.707   3.068   5.586  0.2446  0.1131  0.1337
  122MOL    C6514827   4.907   2.914   5.466 -0.3671 -0.1339  0.0581
  122MOL    H6614828   4.926   2.811   5.433  1.7233  0.7998 -1.7699
  122MOL    H6714829   4.920   2.982   5.382 -2.1963 -1.0875 -1.0143
  122MOL    C6814830   5.014   2.945   5.583  0.2379  0.0838  0.4958
  122MOL   Cl6914831   5.032   3.128   5.620 -0.1643  0.3125  0.1738
  122MOL   Cl7014832   5.164   2.874   5.514 -0.1314  0.5410 -0.3295
  122MOL    C7114833   4.973   2.863   5.715 -0.3738  0.8849  0.7980
  122MOL    H7214834   4.878   2.897   5.756 -1.1385  0.4076 -0.5486
  122MOL    H7314835   4.967   2.757   5.691  0.6673  0.8253  0.7770
  122MOL    C7414836   5.060   2.873   5.850 -0.1445 -0.3884  0.1765
  122MOL   Cl7514837   4.976   2.754   5.954 -0.0097 -0.0419 -0.4826
  122MOL   Cl7614838   5.036   3.037   5.916 -0.2839  0.1132  0.4365
  122MOL    C7714839   5.207   2.838   5.828 -0.0953  0.5238 -0.3645
  122MOL    H7814840   5.217   2.767   5.746  0.3055  0.5928 -0.3750
  122MOL    H7914841   5.240   2.930   5.780  2.0460 -0.3045 -0.5016
  122MOL    C8014842   5.313   2.815   5.939 -0.6062 -0.2778  0.2596
  122MOL   Cl8114843   5.295   2.647   5.990 -0.1301  0.2500 -0.4018
  122MOL   Cl8214844   5.287   2.920   6.078  0.0874  0.1304 -0.2577
  122MOL    C8314845   5.464   2.830   5.902 -0.6881 -0.0093  0.1940
  122MOL    H8414846   5.515   2.824   5.998  0.6301 -1.2507 -0.5608
  122MOL    H8514847   5.491   2.739   5.847 -1.0518 -0.0803  0.1282
  122MOL    C8614848   5.520   2.954   5.828 -0.8660  0.4225  0.2120
  122MOL   Cl8714849   5.477   2.949   5.657 -0.1446 -0.2685  0.0637
  122MOL   Cl8814850   5.700   2.927   5.843  0.2815 -0.6189  0.2873
  122MOL    C8914851   5.473   3.091   5.896 -0.2842 -0.0186  1.0011
  122MOL    H9014852   5.366   3.101   5.876 -0.0588  0.8764  0.2243
  122MOL    H9114853   5.489   3.070   6.002 -0.9794 -2.0444  0.7437
  122MOL    C9214854   5.536   3.221   5.858  0.0083  0.5554  0.0536
  122MOL   Cl9314855   5.525   3.260   5.682  0.1738 -0.1304  0.1032
  122MOL   Cl9414856   5.708   3.226   5.908  0.3864 -0.1313  0.4168
  122MOL    C9514857   5.476   3.339   5.942  0.0738 -0.0833 -0.1376
  122MOL    H9614858   5.477   3.311   6.047  0.4533 -0.1323 -0.1525
  122MOL    H9714859   5.545   3.422   5.925 -0.0770 -0.1543 -1.1372
  122MOL    C9814860   5.328   3.397   5.930  0.0322 -0.2635 -0.1386
  122MOL   Cl9914861   5.343   3.553   6.012 -0.0713  0.0745 -0.0766
  122MOL  Cl10014862   5.221   3.297   6.026 -0.4935 -0.4647 -0.5190
  122MOL   C10114863   5.275   3.415   5.785 -0.3757 -0.1837 -0.0606
  122MOL   H10214864   5.351   3.467   5.726  0.1683 -1.0083 -0.0928
  122MOL   H10314865   5.277   3.312   5.750 -0.9467 -0.2024 -0.0416
  122MOL   C10414866   5.142   3.493   5.745  0.0095 -0.0272 -0.1938
  122MOL  Cl10514867   5.120   3.452   5.570  0.5338  0.4440  0.0625
  122MOL  Cl10614868   5.171   3.671   5.770 -0.1271  0.1640 -0.2524
  122MOL   C10714869   5.021   3.443   5.818  0.0743  0.0929 -0.1973
  122MOL   H10814870   5.035   3.335   5.811 -0.7176 -0.0722  0.7340
  122MOL   H10914871   5.045   3.471   5.920 -0.6037 -0.1802  0.0370
  122MOL   C11014872   4.869   3.488   5.795  0.0850  0.3923 -0.4229
  122MOL  Cl11114873   4.859   3.661   5.842  0.4985 -0.3029 -0.4699
  122MOL  Cl11214874   4.779   3.402   5.923  0.0876  0.2845  0.0260
  122MOL   C11314875   4.802   3.461   5.656  0.2786 -0.3555  0.1601
  122MOL   H11414876   4.853   3.526   5.585 -0.2942 -0.7713 -0.6290
  122MOL   H11514877   4.835   3.364   5.619  0.5807  0.9373 -3.1053
  122MOL   C11614878   4.651   3.488   5.616 -0.1741  0.0347 -0.2587
  122MOL  Cl11714879   4.562   3.365   5.694  0.2319 -0.0554 -0.2336
  122MOL  Cl11814880   4.643   3.472   5.444 -0.0102  0.2134  0.3454
  122MOL   C11914881   4.594   3.625   5.654 -0.1609  0.3259  0.2533
  122MOL   H12014882   4.492   3.634   5.618  0.1369  0.5214 -0.5649
  122MOL   H12114883   4.592   3.641   5.761 -2.2775  1.8593  0.0182
  122MOL   H12214884   4.655   3.706   5.612 -2.1600  0.9980 -1.4433
  123MOL     C114885   8.465   0.952   2.556  0.5731  0.7825  0.5773
  123MOL    Cl214886   8.529   1.012   2.713  0.7114 -0.0482  0.5629
  123MOL    Cl314887   8.443   1.081   2.437 -0.2380  0.1790 -0.5366
  123MOL     C414888   8.555   0.833   2.499 -0.0581  1.0142  0.6917
  123MOL     H514889   8.650   0.873   2.466  0.3480 -0.0629  0.5448
  123MOL     H614890   8.584   0.774   2.586  0.1827 -0.1133 -0.1364
  123MOL     H714891   8.366   0.920   2.590  0.2545  0.8989 -0.2216
  123MOL     C814892   8.478   0.729   2.410 -0.4115  0.1386  0.1612
  123MOL    Cl914893   8.341   0.666   2.515 -0.1033 -0.1776 -0.6355
  123MOL   Cl1014894   8.591   0.603   2.356 -0.0083 -0.0608  0.0091
  123MOL    C1114895   8.409   0.782   2.286 -0.2869  0.0423  0.3071
  123MOL    H1214896   8.350   0.699   2.246 -0.0188 -0.2401  0.4905
  123MOL    H1314897   8.331   0.853   2.315 -2.0054 -2.6725  2.6791
  123MOL    C1414898   8.494   0.838   2.165 -0.4985  0.3136  0.0245
  123MOL   Cl1514899   8.559   0.704   2.066 -0.0282  0.0639  0.1022
  123MOL   Cl1614900   8.625   0.947   2.218  0.0072 -0.1096 -0.4254
  123MOL    C1714901   8.393   0.924   2.077  0.4271  0.4438  0.0523
  123MOL    H1814902   8.295   0.878   2.068  0.0943  1.2149 -0.2882
  123MOL    H1914903   8.365   1.002   2.148  0.5925  2.0842 -1.6537
  123MOL    C2014904   8.420   0.979   1.933  0.5674  0.2858 -0.9552
  123MOL   Cl2114905   8.581   1.064   1.924 -0.0939  0.1631  0.1588
  123MOL   Cl2214906   8.284   1.100   1.917 -0.0530  0.1503 -0.0190
  123MOL    C2314907   8.401   0.877   1.810  1.2584  0.7875  0.2044
  123MOL    H2414908   8.452   0.786   1.841 -1.2936 -0.4490  0.8631
  123MOL    H2514909   8.294   0.858   1.803  1.1974  1.1367  0.1629
  123MOL    C2614910   8.449   0.913   1.662  0.2408 -0.1413  0.3879
  123MOL   Cl2714911   8.395   0.766   1.572 -0.0982  0.0050 -0.0011
  123MOL   Cl2814912   8.625   0.921   1.638  0.0538  0.0728 -0.0252
  123MOL    C2914913   8.370   1.038   1.613  0.2436 -0.6835 -0.4241
  123MOL    H3014914   8.265   1.012   1.605  0.0288  0.2431 -0.6374
  123MOL    H3114915   8.368   1.119   1.687 -2.1749 -0.0100 -1.1824
  123MOL    C3214916   8.404   1.120   1.480  0.3165  0.5192  0.4448
  123MOL   Cl3314917   8.563   1.187   1.506 -0.0374  0.0791 -0.2897
  123MOL   Cl3414918   8.275   1.246   1.475  0.1557  0.0629  0.3071
  123MOL    C3514919   8.418   1.031   1.351  0.6760  0.0405  0.1338
  123MOL    H3614920   8.502   0.962   1.355 -0.5063 -1.4187  0.6820
  123MOL    H3714921   8.333   0.963   1.352 -1.1840  2.2483 -1.7701
  123MOL    C3814922   8.414   1.099   1.208 -0.8474  0.8087 -0.2037
  123MOL   Cl3914923   8.246   1.144   1.168 -0.0106  0.1124  0.1623
  123MOL   Cl4014924   8.461   0.978   1.088  0.0210  0.5166  0.1453
  123MOL    C4114925   8.510   1.223   1.194  0.6849  0.0367  0.1243
  123MOL    H4214926   8.478   1.290   1.274 -1.8935  0.1860 -0.9611
  123MOL    H4314927   8.608   1.188   1.227  1.2228  1.1879 -0.2457
  123MOL    C4414928   8.522   1.315   1.067  0.0280  0.4884  0.5760
  123MOL   Cl4514929   8.569   1.215   0.925  0.1364 -0.2059 -0.6971
  123MOL   Cl4614930   8.672   1.400   1.114  0.4742 -0.0704 -0.1716
  123MOL    C4714931   8.404   1.412   1.044  0.2468 -0.4407 -1.2489
  123MOL    H4814932   8.312   1.354   1.033  0.5027 -1.0810 -0.0445
  123MOL    H4914933   8.385   1.471   1.134  2.4091  0.2435 -1.2317
  123MOL    C5014934   8.411   1.512   0.925  0.7178 -0.8662  0.1423
  123MOL   Cl5114935   8.272   1.621   0.955 -0.0841  0.1584  0.0136
  123MOL   Cl5214936   8.356   1.423   0.776 -0.0350  0.2381 -0.1504
  123MOL    C5314937   8.545   1.586   0.909 -0.0656  0.0522  1.0042
  123MOL    H5414938   8.574   1.627   1.006  0.0898 -1.4330  1.6148
  123MOL    H5514939   8.616   1.511   0.873  0.7097  0.7148  1.1471
  123MOL    C5614940   8.558   1.712   0.812 -0.6631  0.4432  0.3102
  123MOL   Cl5714941   8.736   1.748   0.811 -0.0103  0.1357 -0.0968
  123MOL   Cl5814942   8.479   1.854   0.889  0.4155 -0.0172 -0.4001
  123MOL    C5914943   8.511   1.681   0.662  0.4889 -0.2933 -0.2293
  123MOL    H6014944   8.546   1.584   0.627  1.5811  0.5928 -1.6431
  123MOL    H6114945   8.402   1.678   0.660  0.4935 -1.9881  1.0119
  123MOL    C6214946   8.554   1.770   0.547  0.4987 -0.4876 -0.7009
  123MOL   Cl6314947   8.728   1.757   0.513  0.4221 -0.2132 -0.0765
  123MOL   Cl6414948   8.537   1.942   0.590 -0.0276 -0.5559  0.4879
  123MOL    C6514949   8.472   1.737   0.418 -0.9526 -0.0717  0.1464
  123MOL    H6614950   8.481   1.629   0.413 -0.5045  0.0074 -0.7277
  123MOL    H6714951   8.369   1.763   0.442 -0.2607 -0.0852  3.3537
  123MOL    C6814952   8.490   1.802   0.279 -0.0980 -0.2692 -0.4737
  123MOL   Cl6914953   8.424   1.971   0.289  0.3830  0.3585  0.3975
  123MOL   Cl7014954   8.374   1.710   0.174 -0.2044  0.0286  0.4509
  123MOL    C7114955   8.631   1.810   0.213 -0.2679  0.3941  0.3588
  123MOL    H7214956   8.620   1.892   0.142  1.8979  0.8598  0.5513
  123MOL    H7314957   8.694   1.853   0.291  2.0201 -1.5432 -0.3825
  123MOL    C7414958   8.696   1.686   0.143  0.1886  0.8400  0.3938
  123MOL   Cl7514959   8.608   1.653   9.166  0.0521  0.0497  0.0486
  123MOL   Cl7614960   8.677   1.546   0.252  0.1944  0.0304 -0.5435
  123MOL    C7714961   8.844   1.714   0.109  0.2249 -0.0488 -0.1701
  123MOL    H7814962   8.853   1.809   0.055 -1.9633  0.3029  0.0584
  123MOL    H7914963   8.900   1.732   0.200  0.9228 -0.8569 -0.4268
  123MOL    C8014964   8.939   1.616   0.036  0.4263  0.4160  0.6225
  123MOL   Cl8114965   8.886   1.606   9.042  0.1457 -0.1069  0.0210
  123MOL   Cl8214966   8.938   1.460   0.122  0.3673  0.4136 -0.0960
  123MOL    C8314967   9.081   1.664   0.047  0.1110  0.4336  0.1281
  123MOL    H8414968   9.085   1.764   0.004  0.4544  0.6642  0.6931
  123MOL    H8514969   9.103   1.691   0.150 -0.4224  1.1845  0.0508
  123MOL    C8614970   0.032   1.596   9.175  0.2228  0.0597  0.5293
  123MOL   Cl8714971   0.001   1.535   9.010  0.0255 -0.2233 -0.3877
  123MOL   Cl8814972   0.067   1.458   0.101 -0.4394 -0.1569 -0.0682
  123MOL    C8914973   0.143   1.705   9.173 -0.0157 -0.3527 -0.1908
  123MOL    H9014974   0.137   1.772   9.088  0.1108 -0.9634 -0.6866
  123MOL    H9114975   0.140   1.772   0.079 -2.0253  0.7961 -1.1278
  123MOL    C9214976   0.299   1.668   0.002 -0.3218  0.5712  0.4778
  123MOL   Cl9314977   0.390   1.808   9.120 -0.5963 -0.2170 -0.1209
  123MOL   Cl9414978   0.326   1.544   9.059  0.0393 -0.1049  0.4388
  123MOL    C9514979   0.347   1.627   0.141 -0.4201  0.7712 -1.0105
  123MOL    H9614980   0.296   1.690   0.213  2.7611 -0.6027  2.6038
  123MOL    H9714981   0.309   1.526   0.158 -1.0055  1.0278 -0.8176
  123MOL    C9814982   0.494   1.616   0.197 -0.2478 -0.0024  0.1091
  123MOL   Cl9914983   0.485   1.515   0.343  0.8105 -0.1317 -0.5036
  123MOL  Cl10014984   0.551   1.782   0.238  0.3678  0.2366 -0.3866
  123MOL   C10114985   0.581   1.544   0.085  0.2519  0.4371  0.2856
  123MOL   H10214986   0.539   1.445   0.065  0.8091 -0.0324  1.3683
  123MOL   H10314987   0.574   1.611   9.179  1.2501 -2.6985 -2.3152
  123MOL   C10414988   0.726   1.513   0.111  0.0211 -0.0493  0.3365
  123MOL  Cl10514989   0.733   1.360   0.213  0.4257 -0.1795 -0.4563
  123MOL  Cl10614990   0.819   1.637   0.201  0.0744  0.0018  0.3158
  123MOL   C10714991   0.810   1.482   9.164  0.5149  0.2355  0.1800
  123MOL   H10814992   0.910   1.451   0.014  0.2560 -1.0310 -0.2196
  123MOL   H10914993   0.768   1.386   9.132 -1.5911  0.9384  0.7576
  123MOL   C11014994   0.823   1.587   9.047 -0.3855 -0.0793  0.5139
  123MOL  Cl11114995   0.675   1.569   8.952 -0.1819  0.0431  0.2719
  123MOL  Cl11214996   0.961   1.529   8.954 -0.1492  0.2881  0.0173
  123MOL   C11314997   0.860   1.725   9.091 -0.1309 -1.1680 -0.4291
  123MOL   H11414998   0.782   1.765   9.156 -1.9726 -2.2679 -1.9187
  123MOL   H11514999   0.948   1.708   9.152 -0.9661  0.3546  1.2524
  123MOL   C11615000   0.891   1.839   8.991  0.3852 -0.0972 -0.5285
  123MOL  Cl11715001   0.809   1.993   9.052  0.1228  0.4361  0.1706
  123MOL  Cl11815002   0.818   1.815   8.827  0.1027  0.5562  0.3098
  123MOL   C11915003   1.038   1.871   8.958  0.4675 -0.0428 -0.2602
  123MOL   H12015004   1.048   1.945   8.879 -0.8555 -0.3075 -0.6738
  123MOL   H12115005   1.091   1.913   9.044 -0.4448 -1.3271  0.9383
  123MOL   H12215006   1.093   1.779   8.941  1.0462  0.1300  0.5940
  124MOL     C115007   3.363   3.128   0.203  0.0525 -0.5550  0.2977
  124MOL    Cl215008   3.398   3.240   0.333 -0.0453 -0.0192  0.0816
  124MOL    Cl315009   3.192   3.076   0.224  0.1106  0.0539 -0.0025
  124MOL     C415010   3.394   3.209   0.073 -0.1662 -0.8203  0.8701
  124MOL     H515011   3.331   3.298   0.081 -0.9860 -1.2823 -0.2820
  124MOL     H615012   3.497   3.241   0.084 -0.8479  2.4837 -1.5847
  124MOL     H715013   3.426   3.040   0.202  0.6147 -0.1556 -0.4056
  124MOL     C815014   3.377   3.139   9.127 -0.1412  0.5395  0.3294
  124MOL    Cl915015   3.213   3.077   9.104  0.6880 -0.4828 -0.0583
  124MOL   Cl1015016   3.487   2.995   9.128  0.2647  0.2441 -0.4042
  124MOL    C1115017   3.418   3.206   8.997 -0.0116  1.3407 -0.3691
  124MOL    H1215018   3.527   3.197   8.993 -0.2483 -1.7575 -0.3406
  124MOL    H1315019   3.386   3.134   8.923  0.5118 -1.3075  1.9075
  124MOL    C1415020   3.369   3.353   8.969  1.0227  0.3636 -0.0513
  124MOL   Cl1515021   3.473   3.466   9.047 -0.6202 -0.2656  0.1231
  124MOL   Cl1615022   3.208   3.383   9.028  0.5811  0.3590  0.0036
  124MOL    C1715023   3.352   3.383   8.814 -0.8404 -0.0730 -0.0430
  124MOL    H1815024   3.299   3.299   8.768  2.3889 -1.6294 -1.1117
  124MOL    H1915025   3.303   3.479   8.799  0.9962  0.6714 -1.3602
  124MOL    C2015026   3.468   3.374   8.716 -0.2150 -0.4712 -1.2745
  124MOL   Cl2115027   3.554   3.220   8.726 -0.2548 -0.1447  0.2514
  124MOL   Cl2215028   3.582   3.508   8.759  0.0247  0.2086 -0.3356
  124MOL    C2315029   3.428   3.399   8.564  0.2373 -0.0946 -1.0305
  124MOL    H2415030   3.405   3.505   8.555 -2.2006 -0.5638 -0.6950
  124MOL    H2515031   3.524   3.383   8.515  0.6451  1.3578 -0.7237
  124MOL    C2615032   3.340   3.312   8.482  0.2361 -0.2022 -1.1250
  124MOL   Cl2715033   3.170   3.349   8.527  0.1155 -0.1468 -0.2508
  124MOL   Cl2815034   3.355   3.136   8.506  0.3287 -0.0959 -0.2123
  124MOL    C2915035   3.360   3.345   8.334  0.2186  0.1826  0.1021
  124MOL    H3015036   3.287   3.282   8.282 -0.8410  0.9628  0.6148
  124MOL    H3115037   3.324   3.447   8.319 -0.7920 -0.2006 -0.1559
  124MOL    C3215038   3.492   3.354   8.242  0.1610 -1.1673  0.6765
  124MOL   Cl3315039   3.590   3.489   8.310  0.1705 -0.0125  0.1934
  124MOL   Cl3415040   3.441   3.407   8.073  0.3387 -0.0981 -0.2388
  124MOL    C3515041   3.582   3.225   8.235  0.2494  0.1967 -0.5192
  124MOL    H3615042   3.629   3.219   8.333 -0.1865 -1.1097 -0.3804
  124MOL    H3715043   3.516   3.138   8.236  1.0247 -0.4051  1.7663
  124MOL    C3815044   3.689   3.197   8.126  0.1942  0.3298  0.5759
  124MOL   Cl3915045   3.814   3.325   8.133  0.4110  0.2749 -0.2674
  124MOL   Cl4015046   3.627   3.190   7.959 -0.0371  0.0952  0.4745
  124MOL    C4115047   3.747   3.059   8.154  0.5689  0.0177  0.5893
  124MOL    H4215048   3.751   3.042   8.262  1.3328  3.4352  1.1414
  124MOL    H4315049   3.674   2.986   8.117  0.8082  0.4617 -0.7947
  124MOL    C4415050   3.882   3.009   8.085 -0.2990  0.4761  0.0010
  124MOL   Cl4515051   4.013   3.083   8.186 -0.3615 -0.3259  0.0624
  124MOL   Cl4615052   3.912   3.083   7.929  0.0349  0.0417 -0.5923
  124MOL    C4715053   3.919   2.854   8.073 -0.2284  0.4956 -0.9813
  124MOL    H4815054   3.875   2.825   7.977  0.0249 -0.7591 -0.7345
  124MOL    H4915055   4.025   2.850   8.050 -0.1281 -0.3182 -0.3962
  124MOL    C5015056   3.893   2.740   8.176 -0.7365 -0.0769 -0.2072
  124MOL   Cl5115057   3.722   2.739   8.187  0.4032 -0.1008 -0.3107
  124MOL   Cl5215058   3.964   2.779   8.336  0.0120 -0.5802  0.0720
  124MOL    C5315059   3.954   2.604   8.125  0.3693  0.0532 -0.0281
  124MOL    H5415060   3.951   2.609   8.016  1.5679  1.1910 -0.0200
  124MOL    H5515061   4.059   2.606   8.156  0.3326  0.0504  0.0961
  124MOL    C5615062   3.894   2.470   8.157  0.8701 -0.7696  0.2419
  124MOL   Cl5715063   3.739   2.454   8.063  0.4702  0.2338 -0.0888
  124MOL   Cl5815064   3.840   2.450   8.329 -0.0285 -0.2762 -0.0664
  124MOL    C5915065   3.999   2.352   8.135 -0.0582  0.1288  0.0050
  124MOL    H6015066   4.069   2.366   8.217 -0.9059 -0.0217  0.7645
  124MOL    H6115067   3.940   2.261   8.148  1.5794 -0.6864  1.9463
  124MOL    C6215068   4.078   2.325   8.000  0.7963  0.2023  0.3204
  124MOL   Cl6315069   4.185   2.468   7.980  0.1156 -0.1592 -0.1996
  124MOL   Cl6415070   3.978   2.321   7.855  0.3522 -0.1754 -0.0377
  124MOL    C6515071   4.174   2.197   8.004  0.0522  0.1091  0.1463
  124MOL    H6615072   4.245   2.202   7.922 -0.6123  0.1793 -0.4214
  124MOL    H6715073   4.239   2.213   8.091 -1.5164  0.8434  1.2134
  124MOL    C6815074   4.119   2.050   8.026 -0.0092 -0.4543  0.5176
  124MOL   Cl6915075   4.121   2.019   8.200  0.3786 -0.5044 -0.2819
  124MOL   Cl7015076   4.251   1.943   7.954 -0.1862 -0.3360 -0.1043
  124MOL    C7115077   3.982   2.023   7.956  0.2202  0.0616 -0.5932
  124MOL    H7215078   3.912   2.105   7.977 -1.2926 -1.0559 -1.1465
  124MOL    H7315079   4.002   2.011   7.849  0.4220 -2.8713 -0.2624
  124MOL    C7415080   3.898   1.895   7.989  0.6233  0.6629 -0.1268
  124MOL   Cl7515081   3.830   1.921   8.151 -0.2632  0.0630 -0.5706
  124MOL   Cl7615082   4.001   1.747   8.004 -0.4544  0.0573 -0.1223
  124MOL    C7715083   3.793   1.873   7.874 -0.1472  0.2611 -1.0806
  124MOL    H7815084   3.848   1.843   7.785 -0.0775 -1.0840 -0.6052
  124MOL    H7915085   3.742   1.780   7.899 -1.8416  1.1710 -1.0750
  124MOL    C8015086   3.674   1.976   7.843  0.1776  0.5651 -0.1509
  124MOL   Cl8115087   3.574   1.892   7.725 -0.2335  0.0585  0.0094
  124MOL   Cl8215088   3.733   2.120   7.756  0.0382 -0.3952 -0.5559
  124MOL    C8315089   3.577   2.024   7.964 -0.8073 -0.2524 -0.4139
  124MOL    H8415090   3.646   2.071   8.034 -0.9326 -1.1872  0.3470
  124MOL    H8515091   3.520   2.109   7.928 -2.1867 -1.1866 -0.4809
  124MOL    C8615092   3.477   1.935   8.046  0.3533 -0.1694 -0.4564
  124MOL   Cl8715093   3.534   1.765   8.043 -0.3564 -0.0965  0.0266
  124MOL   Cl8815094   3.313   1.936   7.962 -0.1709  0.2223  0.3830
  124MOL    C8915095   3.454   1.968   8.201 -0.8713 -0.1049 -0.4017
  124MOL    H9015096   3.387   1.894   8.242  0.1061 -0.7646  0.0201
  124MOL    H9115097   3.547   1.945   8.253 -1.5371 -0.2791  0.7305
  124MOL    C9215098   3.394   2.104   8.255  0.2404 -0.5011 -0.1879
  124MOL   Cl9315099   3.234   2.124   8.169  0.2280 -0.1914  0.0035
  124MOL   Cl9415100   3.500   2.231   8.212 -0.3550 -0.4763 -0.0570
  124MOL    C9515101   3.344   2.117   8.403 -0.1233  0.1955  0.1629
  124MOL    H9615102   3.311   2.221   8.416 -0.6339  0.2239 -1.2681
  124MOL    H9715103   3.256   2.053   8.415  0.2339 -0.5956 -1.4092
  124MOL    C9815104   3.445   2.079   8.520 -0.3773 -0.4174  0.4856
  124MOL   Cl9915105   3.451   1.902   8.542  0.2343 -0.3064  0.0243
  124MOL  Cl10015106   3.389   2.155   8.677  0.6735  0.0303  0.3115
  124MOL   C10115107   3.595   2.135   8.496 -0.6116  0.2092 -0.1539
  124MOL   H10215108   3.636   2.069   8.420 -1.0408  0.7133 -0.8387
  124MOL   H10315109   3.593   2.236   8.453 -0.6524  0.9424  1.5427
  124MOL   C10415110   3.701   2.130   8.613 -0.1811 -0.1091 -0.2695
  124MOL  Cl10515111   3.671   2.263   8.720 -0.2311  0.0679  0.3937
  124MOL  Cl10615112   3.846   2.172   8.519  0.2342 -0.0277 -0.5637
  124MOL   C10715113   3.730   2.000   8.692 -0.0514  0.1082  0.1448
  124MOL   H10815114   3.664   2.019   8.777  2.3589  1.4729  1.7522
  124MOL   H10915115   3.677   1.910   8.659 -1.3890  0.7911  0.3894
  124MOL   C11015116   3.872   1.961   8.750  0.3933 -0.6600  0.4869
  124MOL  Cl11115117   3.834   1.868   8.895 -0.7786 -0.1858 -0.4813
  124MOL  Cl11215118   3.948   2.106   8.811  0.2531 -0.3360  0.0356
  124MOL   C11315119   3.963   1.884   8.649 -0.9568 -0.2894  0.4810
  124MOL   H11415120   4.003   1.956   8.578  0.5337 -1.1029  0.4648
  124MOL   H11515121   4.050   1.847   8.704 -0.5411  1.8368  1.2675
  124MOL   C11615122   3.915   1.759   8.575 -0.8571 -0.5007  0.1158
  124MOL  Cl11715123   4.051   1.696   8.482 -0.0667 -0.2735  0.5517
  124MOL  Cl11815124   3.788   1.807   8.458  0.0664  0.3461 -0.0643
  124MOL   C11915125   3.846   1.653   8.655 -0.5252 -0.4268 -0.5822
  124MOL   H12015126   3.822   1.565   8.596  0.7942 -0.6707 -0.7520
  124MOL   H12115127   3.889   1.624   8.751  0.4872  2.3199 -0.1530
  124MOL   H12215128   3.748   1.698   8.673  0.5002  1.2564  0.9843
  125MOL     C115129   6.402   6.716   5.637 -0.1613 -0.8945  0.1868
  125MOL    Cl215130   6.458   6.548   5.650  0.3044 -0.1214 -0.1213
  125MOL    Cl315131   6.248   6.707   5.553  0.0175 -0.0788 -0.0653
  125MOL     C415132   6.391   6.780   5.777  0.4399  0.4306  0.0679
  125MOL     H515133   6.296   6.831   5.793  0.2714 -0.0926  0.7938
  125MOL     H615134   6.379   6.698   5.848  1.8190  0.0881 -0.0936
  125MOL     H715135   6.471   6.769   5.571  0.3520 -3.0689 -1.0641
  125MOL     C815136   6.507   6.864   5.838 -0.3100  0.1294 -0.2535
  125MOL    Cl915137   6.651   6.765   5.821  0.2622  0.1534  0.4045
  125MOL   Cl1015138   6.484   6.885   6.010  0.2612 -0.1470  0.1859
  125MOL    C1115139   6.547   7.004   5.774 -0.3110  0.0144 -0.3111
  125MOL    H1215140   6.621   7.053   5.837 -1.7749  2.3572 -0.3605
  125MOL    H1315141   6.593   6.989   5.677  1.7756  2.4808  0.2429
  125MOL    C1415142   6.435   7.110   5.750  0.3023 -0.4391 -0.5425
  125MOL   Cl1515143   6.342   7.135   5.903 -0.3640 -0.0415  0.1098
  125MOL   Cl1615144   6.323   7.050   5.633  0.0308 -0.3512 -0.0324
  125MOL    C1715145   6.475   7.255   5.692 -0.5546 -0.2033 -0.6682
  125MOL    H1815146   6.480   7.244   5.584  0.0845 -0.6024 -0.6001
  125MOL    H1915147   6.386   7.313   5.715  0.2777  0.8088  0.0875
  125MOL    C2015148   6.598   7.331   5.747  0.3801  0.8276 -0.3941
  125MOL   Cl2115149   6.738   7.241   5.670 -0.0342 -0.1939 -0.4635
  125MOL   Cl2215150   6.611   7.328   5.928  0.2935 -0.1185  0.1063
  125MOL    C2315151   6.615   7.474   5.688  0.4504  0.6716  0.2694
  125MOL    H2415152   6.694   7.520   5.747  1.4662 -1.3260  0.4777
  125MOL    H2515153   6.663   7.457   5.592 -0.5834 -2.6905  0.2990
  125MOL    C2615154   6.482   7.561   5.682 -0.1523 -0.5985  0.1937
  125MOL   Cl2715155   6.375   7.535   5.823 -0.4313  0.2055 -0.0946
  125MOL   Cl2815156   6.391   7.518   5.528  0.2503 -0.3712 -0.3104
  125MOL    C2915157   6.508   7.714   5.673 -0.1176  0.2386 -0.3908
  125MOL    H3015158   6.584   7.720   5.595  0.6828 -0.6564  0.3102
  125MOL    H3115159   6.425   7.778   5.645 -1.9374 -1.3603  1.2456
  125MOL    C3215160   6.564   7.798   5.789  0.1728 -1.1306  0.6009
  125MOL   Cl3315161   6.598   7.958   5.705 -0.5007  0.0052  0.0693
  125MOL   Cl3415162   6.707   7.735   5.864 -0.0996  0.0274  0.0365
  125MOL    C3515163   6.454   7.823   5.904  0.1665 -0.1434 -0.2085
  125MOL    H3615164   6.356   7.815   5.857 -0.0191 -2.5067  0.4936
  125MOL    H3715165   6.455   7.740   5.975 -2.0224 -0.1303 -0.1278
  125MOL    C3815166   6.454   7.955   5.984 -0.3768  0.6429  0.2985
  125MOL   Cl3915167   6.332   7.931   6.114  0.0067 -0.0636  0.2097
  125MOL   Cl4015168   6.380   8.087   5.897  0.4101 -0.4456  0.2568
  125MOL    C4115169   6.577   8.003   6.054  0.6816  0.3596 -0.3644
  125MOL    H4215170   6.639   7.918   6.082  0.2461  0.0175 -0.4286
  125MOL    H4315171   6.640   8.042   5.973  0.1316 -0.6315 -1.2793
  125MOL    C4415172   6.569   8.096   6.183  0.1827  0.7376  0.5053
  125MOL   Cl4515173   6.738   8.162   6.198  0.0360 -0.1508  0.3588
  125MOL   Cl4615174   6.554   7.998   6.326  0.5390  0.3729 -0.1192
  125MOL    C4715175   6.463   8.216   6.173 -0.5424 -0.7076  0.5455
  125MOL    H4815176   6.464   8.256   6.072  0.0434 -2.1984 -0.0539
  125MOL    H4915177   6.358   8.187   6.184 -0.7755  0.0261  0.2503
  125MOL    C5015178   6.475   8.347   6.259 -0.8784  0.6238 -0.3493
  125MOL   Cl5115179   6.322   8.438   6.253 -0.2173  0.3543  0.3279
  125MOL   Cl5215180   6.606   8.449   6.190 -0.0739  0.4999 -0.3034
  125MOL    C5315181   6.496   8.322   6.414 -0.2121 -0.4392  0.3211
  125MOL    H5415182   6.431   8.236   6.430 -1.2325  0.4403  1.0507
  125MOL    H5515183   6.600   8.297   6.430  0.0250  1.5051  2.0293
  125MOL    C5615184   6.471   8.437   6.527 -0.3878 -0.4495 -0.4478
  125MOL   Cl5715185   6.540   8.363   6.677 -0.0548  0.1704  0.4628
  125MOL   Cl5815186   6.298   8.472   6.560  0.6996 -0.1338  0.2031
  125MOL    C5915187   6.544   8.575   6.485 -0.2516  0.1692 -0.2064
  125MOL    H6015188   6.622   8.542   6.416 -0.7986 -0.5138 -0.5087
  125MOL    H6115189   6.471   8.621   6.419 -0.1557 -0.3492 -0.6773
  125MOL    C6215190   6.576   8.685   6.590 -0.0944  0.3833 -0.7025
  125MOL   Cl6315191   6.701   8.634   6.709  0.3184  0.1533  0.2441
  125MOL   Cl6415192   6.427   8.724   6.675  0.0111 -0.4781 -0.1410
  125MOL    C6515193   6.625   8.816   6.537 -0.4955  0.6966  0.3198
  125MOL    H6615194   6.534   8.869   6.509 -1.2306 -0.8873 -0.2944
  125MOL    H6715195   6.659   8.869   6.626  0.0940  0.5811  0.1716
  125MOL    C6815196   6.725   8.831   6.416  0.3829  0.2626 -0.7264
  125MOL   Cl6915197   6.622   8.794   6.284  0.1218 -0.3876  0.4359
  125MOL   Cl7015198   6.859   8.712   6.436  0.2078  0.0828 -0.1072
  125MOL    C7115199   6.784   8.973   6.410  0.2287  0.1113  0.5996
  125MOL    H7215200   6.700   9.043   6.415  1.4730  1.6689  0.0525
  125MOL    H7315201   6.827   8.989   6.509  0.1923 -0.2202  0.6675
  125MOL    C7415202   6.889   9.026   6.308  0.3556 -0.7222  0.9817
  125MOL   Cl7515203   7.043   8.962   6.370  0.0313 -0.0170 -0.3836
  125MOL   Cl7615204   6.892   0.026   6.334  0.0267 -0.0361 -0.1812
  125MOL    C7715205   6.866   8.978   6.166  0.2000 -0.3670 -0.7649
  125MOL    H7815206   6.872   8.870   6.152 -0.8331 -0.8873  2.5360
  125MOL    H7915207   6.758   8.991   6.161  0.4059  1.1750 -1.4209
  125MOL    C8015208   6.931   9.041   6.038  0.0325 -0.0907 -0.3015
  125MOL   Cl8115209   7.100   9.095   6.057  0.2539 -0.1547  0.0524
  125MOL   Cl8215210   6.839   0.007   6.003  0.5298 -0.1263 -0.4311
  125MOL    C8315211   6.905   8.948   5.914  0.1810  0.5330  0.1446
  125MOL    H8415212   6.799   8.926   5.911 -0.0354  1.6056 -0.1476
  125MOL    H8515213   6.921   9.009   5.825  1.1657  0.9479  0.5880
  125MOL    C8615214   7.008   8.827   5.898  0.2360 -0.1900  0.3476
  125MOL   Cl8715215   7.069   8.759   6.049  0.4338  0.4877  0.1885
  125MOL   Cl8815216   7.153   8.907   5.823  0.0923  0.3535 -0.2818
  125MOL    C8915217   6.941   8.711   5.813 -0.5953 -0.5128  0.5479
  125MOL    H9015218   6.895   8.767   5.732  1.7133  1.1144  0.3210
  125MOL    H9115219   7.020   8.651   5.765 -2.3586 -1.2435 -1.5180
  125MOL    C9215220   6.845   8.611   5.878 -0.4288  0.0729  0.0823
  125MOL   Cl9315221   6.746   8.548   5.749 -0.1495  0.2465 -0.4138
  125MOL   Cl9415222   6.731   8.686   5.986  0.2341  0.0505 -0.1456
  125MOL    C9515223   6.903   8.479   5.949  0.3688 -0.4297  0.2098
  125MOL    H9615224   6.951   8.502   6.043 -1.7461  0.4382  1.1175
  125MOL    H9715225   6.814   8.418   5.965  0.8207 -0.6992  1.7478
  125MOL    C9815226   7.016   8.387   5.889 -0.1681  0.3759 -0.3206
  125MOL   Cl9915227   7.028   8.262   6.009 -0.4723  0.1481  0.5228
  125MOL  Cl10015228   7.166   8.486   5.882  0.0371 -0.4884 -0.0186
  125MOL   C10115229   6.982   8.333   5.744  0.2390  0.3496 -0.3463
  125MOL   H10215230   6.878   8.301   5.744  0.5089 -0.6148  1.2265
  125MOL   H10315231   6.997   8.418   5.678 -1.1771  2.3790  1.8644
  125MOL   C10415232   7.056   8.208   5.685  0.1011  0.1356 -0.3916
  125MOL  Cl10515233   6.961   8.062   5.702  0.1367 -0.0249  0.2317
  125MOL  Cl10615234   7.215   8.188   5.771  0.0076  0.2936 -0.0816
  125MOL   C10715235   7.100   8.216   5.533  0.2186  0.3879  0.1581
  125MOL   H10815236   7.190   8.276   5.533  0.7280 -0.3431 -0.8534
  125MOL   H10915237   7.127   8.115   5.502 -0.4054  1.1361 -3.0952
  125MOL   C11015238   7.008   8.265   5.417 -0.6598  0.5029  0.4781
  125MOL  Cl11115239   7.003   8.436   5.418 -0.2833 -0.0199 -0.4608
  125MOL  Cl11215240   6.839   8.199   5.434  0.0349 -0.3794 -0.4325
  125MOL   C11315241   7.067   8.214   5.284 -0.8586  0.1087  0.9179
  125MOL   H11415242   7.024   8.118   5.258 -2.4684  0.6654  1.5001
  125MOL   H11515243   7.010   8.269   5.209 -0.4141  0.2324  0.6674
  125MOL   C11615244   7.220   8.208   5.251 -0.4489  0.4679  0.7263
  125MOL  Cl11715245   7.305   8.065   5.317  0.0279 -0.2327 -0.2926
  125MOL  Cl11815246   7.296   8.367   5.298 -0.2842 -0.3076 -0.1568
  125MOL   C11915247   7.226   8.208   5.094 -0.0022  0.1906 -0.0060
  125MOL   H12015248   7.167   8.125   5.056  1.0045 -0.6904  0.3226
  125MOL   H12115249   7.193   8.300   5.045  0.3899  0.4980  0.3006
  125MOL   H12215250   7.329   8.185   5.066 -0.9516 -1.4489 -2.3022
  126MOL     C115251   7.429   5.431   2.732 -1.0725  0.1017 -0.1513
  126MOL    Cl215252   7.457   5.442   2.560  0.2449 -0.2527 -0.2066
  126MOL    Cl315253   7.377   5.267   2.767 -0.0532  0.2026 -0.4318
  126MOL     C415254   7.559   5.444   2.821  0.8829  0.2521 -0.6557
  126MOL     H515255   7.538   5.409   2.922 -0.0858  0.9186 -0.6167
  126MOL     H615256   7.631   5.365   2.800 -1.6151 -2.4075  0.3559
  126MOL     H715257   7.355   5.498   2.775 -1.9912 -0.8651 -0.2109
  126MOL     C815258   7.619   5.591   2.821 -0.3294  0.2086  0.0684
  126MOL    Cl915259   7.727   5.618   2.673 -0.1270 -0.3051  0.2205
  126MOL   Cl1015260   7.721   5.590   2.966 -0.1109 -0.0832  0.5055
  126MOL    C1115261   7.517   5.714   2.843  0.3118 -0.0804  0.6666
  126MOL    H1215262   7.426   5.683   2.791  1.0749 -0.9945 -0.1532
  126MOL    H1315263   7.494   5.720   2.950  1.0370 -1.0301  0.8829
  126MOL    C1415264   7.556   5.853   2.797  0.1773 -0.4955  0.0143
  126MOL   Cl1515265   7.536   5.854   2.622  0.1870  0.5564 -0.1298
  126MOL   Cl1615266   7.728   5.902   2.848  0.5649 -0.2210  0.2497
  126MOL    C1715267   7.463   5.966   2.855  0.0961 -0.5557 -0.2264
  126MOL    H1815268   7.519   5.980   2.948 -1.1389 -1.0195  0.5962
  126MOL    H1915269   7.489   6.052   2.794 -0.2150 -0.8424 -0.7673
  126MOL    C2015270   7.308   5.945   2.875  0.3179 -0.1053  0.4274
  126MOL   Cl2115271   7.250   5.815   2.983  0.2906 -0.6115  0.0158
  126MOL   Cl2215272   7.233   5.919   2.717 -0.2043 -0.3259 -0.4316
  126MOL    C2315273   7.247   6.080   2.937  0.5248 -0.4319  0.1502
  126MOL    H2415274   7.243   6.152   2.856  2.6885  0.2821  0.6526
  126MOL    H2515275   7.146   6.058   2.973  0.2597 -2.4407 -1.7380
  126MOL    C2615276   7.295   6.150   3.066 -0.1749 -0.1415  0.3221
  126MOL   Cl2715277   7.158   6.242   3.138 -0.1410  0.0685 -0.0839
  126MOL   Cl2815278   7.415   6.272   3.015 -0.3925 -0.0582 -0.5671
  126MOL    C2915279   7.344   6.051   3.179  0.1647  0.1681  1.2078
  126MOL    H3015280   7.250   6.000   3.197  1.1704 -1.5713  1.6595
  126MOL    H3115281   7.401   5.974   3.126  1.2331  2.8934 -1.7708
  126MOL    C3215282   7.429   6.081   3.310  0.2537 -0.1078 -0.8361
  126MOL   Cl3315283   7.590   6.140   3.266  0.0938  0.2567  0.1891
  126MOL   Cl3415284   7.456   5.919   3.382  0.1102 -0.1242  0.0830
  126MOL    C3515285   7.358   6.188   3.409  0.1955 -0.0661 -0.4524
  126MOL    H3615286   7.383   6.287   3.370  1.6951 -0.1225  0.3181
  126MOL    H3715287   7.251   6.183   3.394 -0.1095  0.9287  1.2764
  126MOL    C3815288   7.395   6.192   3.560  0.1324  0.0687 -0.5996
  126MOL   Cl3915289   7.320   6.054   3.641 -0.0646  0.3857 -0.0955
  126MOL   Cl4015290   7.303   6.332   3.634 -0.3028  0.0682  0.0576
  126MOL    C4115291   7.552   6.197   3.576 -0.0040  0.2432  0.1744
  126MOL    H4215292   7.581   6.097   3.543 -0.8026  0.5444 -1.4882
  126MOL    H4315293   7.602   6.262   3.504 -0.4176  1.7459  1.2316
  126MOL    C4415294   7.623   6.245   3.699 -0.0811 -0.3383 -0.0238
  126MOL   Cl4515295   7.793   6.177   3.685  0.2161 -0.1595  0.1656
  126MOL   Cl4615296   7.560   6.186   3.849 -0.1475  0.4288 -0.2736
  126MOL    C4715297   7.638   6.401   3.697  0.5846  0.2457  0.1035
  126MOL    H4815298   7.698   6.428   3.611  0.5864 -1.6121 -0.4893
  126MOL    H4915299   7.549   6.432   3.642  1.2729  0.6736 -0.7841
  126MOL    C5015300   7.654   6.487   3.830  0.0715 -0.5441  0.5970
  126MOL   Cl5115301   7.493   6.488   3.913 -0.0378 -0.2507  0.1025
  126MOL   Cl5215302   7.679   6.655   3.777 -0.4986  0.2055  0.1895
  126MOL    C5315303   7.771   6.436   3.924  0.4841 -0.2145 -0.0513
  126MOL    H5415304   7.753   6.477   4.023 -0.5139 -0.1940 -0.2352
  126MOL    H5515305   7.770   6.328   3.931  2.4290 -0.2208  0.1454
  126MOL    C5615306   7.919   6.471   3.891 -0.1402  0.0075 -0.2595
  126MOL   Cl5715307   7.948   6.637   3.954  0.1089  0.1044  0.2370
  126MOL   Cl5815308   7.964   6.456   3.714  0.4617 -0.4031  0.2394
  126MOL    C5915309   8.020   6.373   3.956 -0.0536  0.1112 -0.3917
  126MOL    H6015310   8.016   6.272   3.915  0.3632 -0.4876  1.0121
  126MOL    H6115311   8.118   6.411   3.928 -0.4316  2.8438  1.7704
  126MOL    C6215312   8.047   6.366   4.107 -0.1029 -0.0524  0.5540
  126MOL   Cl6315313   8.159   6.225   4.110  0.1770  0.2518  0.0798
  126MOL   Cl6415314   7.889   6.321   4.191  0.2338 -0.2681  0.3527
  126MOL    C6515315   8.110   6.491   4.176 -0.3643 -0.9676  0.0365
  126MOL    H6615316   8.173   6.550   4.109 -0.9374  2.6285  2.5270
  126MOL    H6715317   8.030   6.564   4.187 -1.1251 -1.2562 -2.8797
  126MOL    C6815318   8.184   6.472   4.308  0.5234  0.3026 -0.6643
  126MOL   Cl6915319   8.191   6.635   4.384  0.0047  0.1084  0.5070
  126MOL   Cl7015320   8.338   6.415   4.263 -0.0964 -0.3140 -0.3234
  126MOL    C7115321   8.122   6.367   4.409 -0.3191 -0.6407 -0.2654
  126MOL    H7215322   8.020   6.403   4.422  1.0015  2.8322  1.0650
  126MOL    H7315323   8.113   6.273   4.355 -1.3260 -1.4328  1.2328
  126MOL    C7415324   8.183   6.318   4.545 -0.0627  0.1992  0.1887
  126MOL   Cl7515325   8.057   6.201   4.604 -0.1141  0.1339  0.0567
  126MOL   Cl7615326   8.203   6.455   4.656  0.1805  0.5168 -0.2291
  126MOL    C7715327   8.322   6.248   4.538  0.4026 -0.1601 -0.0755
  126MOL    H7815328   8.328   6.193   4.444 -1.8890  1.6187 -1.3076
  126MOL    H7915329   8.393   6.330   4.524  0.7841 -0.5151 -0.1995
  126MOL    C8015330   8.384   6.161   4.658  0.2473  0.0129 -0.6220
  126MOL   Cl8115331   8.563   6.164   4.625  0.1017  0.5950 -0.2951
  126MOL   Cl8215332   8.338   5.996   4.629  0.2987 -0.1748 -0.0322
  126MOL    C8315333   8.359   6.214   4.802 -0.2023 -0.4301  0.2026
  126MOL    H8415334   8.412   6.309   4.813 -2.8015  1.2020 -0.7415
  126MOL    H8515335   8.253   6.235   4.815 -0.0046 -0.4994  2.0786
  126MOL    C8615336   8.394   6.124   4.932  0.6193  0.0273 -0.0572
  126MOL   Cl8715337   8.542   6.032   4.896 -0.3209  0.1491  0.3414
  126MOL   Cl8815338   8.259   6.002   4.956 -0.0941  0.5314 -0.1947
  126MOL    C8915339   8.415   6.208   5.060 -0.4134  0.0016 -0.0426
  126MOL    H9015340   8.400   6.130   5.135 -1.6317  0.3870  0.1343
  126MOL    H9115341   8.520   6.237   5.059 -0.2196 -0.6395  0.5803
  126MOL    C9215342   8.314   6.330   5.102 -0.1385  0.4828  0.7489
  126MOL   Cl9315343   8.143   6.268   5.081  0.3520  0.2078  0.4347
  126MOL   Cl9415344   8.327   6.475   4.994  0.2091 -0.1034 -0.0336
  126MOL    C9515345   8.339   6.378   5.245 -0.0881  0.2799  0.5499
  126MOL    H9615346   8.268   6.461   5.250 -2.3858 -1.6888  1.0856
  126MOL    H9715347   8.291   6.300   5.304 -0.4154 -0.1747 -0.3237
  126MOL    C9815348   8.482   6.397   5.305 -0.1562  0.8159 -0.6524
  126MOL   Cl9915349   8.598   6.442   5.183 -0.2017 -0.1721 -0.0998
  126MOL  Cl10015350   8.526   6.238   5.384 -0.1949 -0.5393  0.1952
  126MOL   C10115351   8.490   6.499   5.427 -1.0642 -0.0786  0.0907
  126MOL   H10215352   8.423   6.458   5.503  0.2724  0.2386  1.4627
  126MOL   H10315353   8.592   6.491   5.465 -1.5774 -1.2220  1.2935
  126MOL   C10415354   8.440   6.646   5.418  0.2190 -0.1484 -0.8497
  126MOL  Cl10515355   8.511   6.724   5.562 -0.0974  0.0307 -0.4307
  126MOL  Cl10615356   8.259   6.647   5.435  0.2748  0.3606 -0.7480
  126MOL   C10715357   8.478   6.726   5.295 -0.3751 -0.0073 -0.3899
  126MOL   H10815358   8.470   6.662   5.207  2.6835 -0.4532 -0.4080
  126MOL   H10915359   8.407   6.809   5.292  2.0720  2.2331  1.1563
  126MOL   C11015360   8.611   6.808   5.287  0.0036  0.3879  0.2606
  126MOL  Cl11115361   8.742   6.695   5.339 -0.2819  0.3023  0.5868
  126MOL  Cl11215362   8.598   6.951   5.380  0.4012  0.1187 -0.2574
  126MOL   C11315363   8.639   6.837   5.141  0.4998 -0.0403  0.1877
  126MOL   H11415364   8.739   6.879   5.149  0.1757  0.7000  0.4376
  126MOL   H11515365   8.644   6.747   5.079 -1.2607  0.9811 -1.5241
  126MOL   C11615366   8.544   6.930   5.051  0.3817  0.2523 -0.3137
  126MOL  Cl11715367   8.394   6.834   5.013  0.0364  0.0356 -0.1161
  126MOL  Cl11815368   8.629   6.955   4.897 -0.0842 -0.3814 -0.2736
  126MOL   C11915369   8.511   7.068   5.107 -0.0478  0.4159  0.4745
  126MOL   H12015370   8.606   7.116   5.128 -0.4984  0.6978  1.8496
  126MOL   H12115371   8.455   7.127   5.035 -1.4651 -1.5548 -0.0985
  126MOL   H12215372   8.438   7.062   5.187 -0.6056  2.0036  0.1035
  127MOL     C115373   0.554   6.535   7.579 -0.1782  0.5415  0.7711
  127MOL    Cl215374   0.659   6.665   7.519  0.0631  0.0606 -0.1787
  127MOL    Cl315375   0.637   6.384   7.539 -0.0450  0.1068  0.2659
  127MOL     C415376   0.502   6.554   7.726  0.3810  0.2603 -0.9201
  127MOL     H515377   0.584   6.547   7.797  0.3153 -1.0177 -0.9517
  127MOL     H615378   0.472   6.658   7.727  0.2106  0.2169 -1.4482
  127MOL     H715379   0.475   6.543   7.504  0.1849 -2.0453  0.0453
  127MOL     C815380   0.380   6.471   7.768  0.0976 -0.0636  0.0729
  127MOL    Cl915381   0.413   6.299   7.745  0.4677 -0.1974  0.2108
  127MOL   Cl1015382   0.238   6.512   7.668 -0.0126  0.0383 -0.1481
  127MOL    C1115383   0.340   6.485   7.921  0.3981  0.1978  0.2982
  127MOL    H1215384   0.251   6.422   7.923  1.3470 -1.2713 -1.8765
  127MOL    H1315385   0.411   6.425   7.978  0.4696 -1.0645 -1.1009
  127MOL    C1415386   0.321   6.621   7.989  0.2039  0.5037  0.4419
  127MOL   Cl1515387   0.268   6.758   7.883 -0.0066  0.1345 -0.0638
  127MOL   Cl1615388   0.484   6.669   8.039  0.0030  0.0642 -0.2280
  127MOL    C1715389   0.228   6.632   8.108  0.0913  0.2131 -0.2065
  127MOL    H1815390   0.241   6.726   8.162 -2.1966  0.3772  0.0799
  127MOL    H1915391   0.131   6.634   8.059 -0.3905 -0.4159  0.7176
  127MOL    C2015392   0.225   6.518   8.217  0.0493 -0.5970 -0.0001
  127MOL   Cl2115393   0.389   6.472   8.274 -0.5597  0.0766 -0.2592
  127MOL   Cl2215394   0.145   6.378   8.166  0.3099  0.1927  0.3311
  127MOL    C2315395   0.136   6.567   8.334 -1.1845  0.1605 -0.0068
  127MOL    H2415396   0.049   6.603   8.280 -2.3003 -1.8177  0.4294
  127MOL    H2515397   0.113   6.474   8.386 -1.0644  0.1598  0.0434
  127MOL    C2615398   0.166   6.660   8.457 -0.0800  0.2806  0.2203
  127MOL   Cl2715399   0.256   6.808   8.412  0.0073 -0.2433 -0.0299
  127MOL   Cl2815400   0.287   6.581   8.564  0.0368  0.2240 -0.3956
  127MOL    C2915401   0.033   6.708   8.536 -1.4366 -0.0613 -0.5013
  127MOL    H3015402   0.064   6.769   8.620 -0.0822  1.5225 -2.1096
  127MOL    H3115403   9.169   6.787   8.476  1.6757  0.5592 -2.0905
  127MOL    C3215404   9.112   6.594   8.584  0.9827 -0.3358 -0.0415
  127MOL   Cl3315405   0.021   6.456   8.651  0.0122 -0.2779 -0.0440
  127MOL   Cl3415406   9.014   6.535   8.445 -0.4117  0.6687 -0.6099
  127MOL    C3515407   9.011   6.643   8.689  0.1539  0.1597 -0.0383
  127MOL    H3615408   8.946   6.555   8.689 -0.4532  0.6025  1.3014
  127MOL    H3715409   9.065   6.634   8.783  0.4966 -0.3928 -0.2833
  127MOL    C3815410   8.936   6.779   8.685  0.1387  0.0679 -0.5827
  127MOL   Cl3915411   8.894   6.823   8.520 -0.2188  0.0759 -0.2040
  127MOL   Cl4015412   9.035   6.910   8.755 -0.2363  0.0041 -0.1428
  127MOL    C4115413   8.797   6.772   8.760 -0.1719 -0.2930 -0.3453
  127MOL    H4215414   8.758   6.872   8.741  0.4951  0.2128  0.9194
  127MOL    H4315415   8.735   6.703   8.703 -1.8137  0.4415  0.5346
  127MOL    C4415416   8.771   6.734   8.909  0.4299 -0.2799  0.0136
  127MOL   Cl4515417   8.872   6.836   9.016 -0.0026  0.0158  0.1031
  127MOL   Cl4615418   8.814   6.562   8.932  0.0053  0.4668 -0.2635
  127MOL    C4715419   8.630   6.767   8.962 -0.3221 -0.9531  0.2568
  127MOL    H4815420   8.626   6.735   9.066  1.7364 -1.9184  0.0704
  127MOL    H4915421   8.625   6.876   8.963 -2.9539 -1.0500  0.8722
  127MOL    C5015422   8.498   6.726   8.884 -0.4807  0.8293  0.4956
  127MOL   Cl5115423   8.500   6.552   8.853  0.0290 -0.2006  0.0334
  127MOL   Cl5215424   8.497   6.811   8.724  0.3310 -0.4844 -0.2517
  127MOL    C5315425   8.359   6.760   8.955 -0.9629  0.3987 -0.5722
  127MOL    H5415426   8.321   6.859   8.928 -0.0603  0.7834 -0.4575
  127MOL    H5515427   8.289   6.694   8.905 -0.0648  0.3096 -1.7031
  127MOL    C5615428   8.323   6.744   9.105  0.2404  0.0303 -0.0232
  127MOL   Cl5715429   8.161   6.803   9.129  0.3241  0.3220 -0.2487
  127MOL   Cl5815430   8.415   6.857   0.020  0.1344  0.4531 -0.3108
  127MOL    C5915431   8.345   6.595   9.149 -0.3593 -0.2263  0.4251
  127MOL    H6015432   8.305   6.533   9.068 -1.0859  1.4169 -0.4926
  127MOL    H6115433   8.450   6.578   9.124  0.4894  0.9380  3.0129
  127MOL    C6215434   8.310   6.533   0.106 -0.9939 -0.1852 -0.1489
  127MOL   Cl6315435   8.130   6.543   0.139 -0.3138  0.1125  0.3002
  127MOL   Cl6415436   8.366   6.652   0.232 -0.2642  0.1385  0.0115
  127MOL    C6515437   8.387   6.391   0.133  0.2220 -0.0562  1.0467
  127MOL    H6615438   8.495   6.400   0.148  0.1109  0.4731  1.5719
  127MOL    H6715439   8.347   6.364   0.231  0.0495  0.4348  1.1096
  127MOL    C6815440   8.352   6.257   0.050  0.4256 -0.0239 -0.3868
  127MOL   Cl6915441   8.390   6.286   9.058  0.3086 -0.2175  0.2973
  127MOL   Cl7015442   8.177   6.230   0.069  0.0321  0.2381  0.1365
  127MOL    C7115443   8.415   6.120   0.092  0.0859 -0.7121 -0.6096
  127MOL    H7215444   8.418   6.115   0.201 -1.2165 -1.7450 -0.6065
  127MOL    H7315445   8.351   6.034   0.072  0.1151 -1.2898  1.6864
  127MOL    C7415446   8.564   6.079   0.055 -0.1555 -0.2830  0.2968
  127MOL   Cl7515447   8.663   6.226   0.079 -0.2207 -0.7020  0.1432
  127MOL   Cl7615448   8.585   6.047   9.060  0.0808  0.2226 -0.0622
  127MOL    C7715449   8.619   5.971   0.157 -0.4096 -0.7125  0.1880
  127MOL    H7815450   8.720   5.966   0.117 -0.0809  2.3471  0.5330
  127MOL    H7915451   8.632   6.024   0.251 -3.4505  1.6597 -0.6562
  127MOL    C8015452   8.562   5.825   0.187  0.1104  0.0115 -0.7556
  127MOL   Cl8115453   8.526   5.759   0.028  0.1726 -0.4543  0.3379
  127MOL   Cl8215454   8.411   5.842   0.295 -0.0322  0.4110  0.0010
  127MOL    C8315455   8.661   5.732   0.260 -0.0972 -0.3616 -0.0017
  127MOL    H8415456   8.638   5.627   0.240  0.1382 -0.2653 -0.8106
  127MOL    H8515457   8.756   5.744   0.207 -0.5557 -1.1889 -1.0276
  127MOL    C8615458   8.688   5.744   0.407 -0.0165 -0.0387 -0.1032
  127MOL   Cl8715459   8.656   5.909   0.468 -0.0790  0.0684 -0.0793
  127MOL   Cl8815460   8.860   5.717   0.435 -0.0080 -0.1501  0.1047
  127MOL    C8915461   8.604   5.644   0.496  0.7059 -0.0048 -0.3315
  127MOL    H9015462   8.516   5.690   0.539  0.9951 -0.0589  0.3282
  127MOL    H9115463   8.576   5.554   0.441 -0.8378 -0.6840  1.5393
  127MOL    C9215464   8.654   5.571   0.622 -0.2487  0.1140  1.0397
  127MOL   Cl9315465   8.786   5.454   0.587 -0.3693  0.0876 -0.2104
  127MOL   Cl9415466   8.531   5.467   0.686 -0.6243 -0.6081  0.1253
  127MOL    C9515467   8.699   5.681   0.725 -0.1194 -0.1889 -0.1695
  127MOL    H9615468   8.781   5.736   0.678 -2.3716  3.7062  0.2062
  127MOL    H9715469   8.623   5.758   0.740 -0.0059 -0.4950  2.3093
  127MOL    C9815470   8.740   5.646   0.875 -0.0226 -0.2476 -0.1737
  127MOL   Cl9915471   8.596   5.615   0.968 -0.4560 -0.6109 -0.1709
  127MOL  Cl10015472   8.814   5.793   0.939  0.1190  0.0971  0.4107
  127MOL   C10115473   8.834   5.523   0.888  0.2847  0.4675  0.5088
  127MOL   H10215474   8.778   5.433   0.866  1.0484  0.5788 -2.0553
  127MOL   H10315475   8.903   5.543   0.806  1.1023 -1.7512  0.6323
  127MOL   C10415476   8.921   5.504   1.009 -0.0036  0.0739 -0.3891
  127MOL  Cl10515477   8.973   5.338   0.996  0.4922  0.1619 -0.1866
  127MOL  Cl10615478   8.831   5.501   1.166 -0.0051 -0.5623 -0.3680
  127MOL   C10715479   9.051   5.586   1.016 -0.0654 -0.2363 -0.1887
  127MOL   H10815480   9.112   5.562   0.929  3.3713  0.5748  1.9058
  127MOL   H10915481   9.032   5.692   0.995  0.8034 -0.7274 -3.8666
  127MOL   C11015482   9.149   5.598   1.136 -0.5421 -0.7122  0.5368
  127MOL  Cl11115483   9.072   5.719   1.249  0.4124  0.4533 -0.2618
  127MOL  Cl11215484   0.119   5.671   1.076  0.0468 -0.0604  0.3860
  127MOL   C11315485   9.177   5.463   1.212  0.3459 -0.0507 -0.2597
  127MOL   H11415486   9.088   5.466   1.273  1.2189  0.9796  0.9747
  127MOL   H11515487   9.176   5.384   1.137 -1.1537  0.3631 -0.6909
  127MOL   C11615488   0.124   5.434   1.292  0.1668  0.0313 -0.6298
  127MOL  Cl11715489   0.170   5.567   1.407 -0.3297  0.1146  0.1645
  127MOL  Cl11815490   0.262   5.410   1.188 -0.0750  0.2697  0.0727
  127MOL   C11915491   0.103   5.305   1.368 -0.0220 -0.2639 -0.4503
  127MOL   H12015492   0.192   5.273   1.424 -0.1225  0.6207  0.2321
  127MOL   H12115493   0.021   5.301   1.439  0.5155 -1.2392  0.1373
  127MOL   H12215494   0.088   5.223   1.298  0.5966 -0.8485  0.0830
  128MOL     C115495   8.400   1.446   7.861  0.7045 -0.1261  0.1399
  128MOL    Cl215496   8.533   1.384   7.760  0.0630  0.0629  0.0576
  128MOL    Cl315497   8.375   1.325   7.996  0.2622 -0.2808  0.1616
  128MOL     C415498   8.435   1.587   7.915 -0.0828  0.4673 -0.3768
  128MOL     H515499   8.504   1.576   7.999  1.1292 -0.5928 -1.4973
  128MOL     H615500   8.480   1.641   7.832  1.0493  0.5849  0.2992
  128MOL     H715501   8.313   1.454   7.796  0.2061  0.4094  0.8605
  128MOL     C815502   8.333   1.673   7.971 -0.7613 -0.1294 -0.5578
  128MOL    Cl915503   8.240   1.592   8.101  0.2140 -0.1631  0.0271
  128MOL   Cl1015504   8.224   1.702   7.841 -0.4724 -0.0377  0.2254
  128MOL    C1115505   8.392   1.808   8.042  0.3426  0.3005  0.1265
  128MOL    H1215506   8.303   1.852   8.088  0.3226  0.4475 -0.0543
  128MOL    H1315507   8.461   1.784   8.123  0.0807  0.1444  0.3025
  128MOL    C1415508   8.486   1.905   7.957  0.0676  0.1854 -0.0013
  128MOL   Cl1515509   8.405   1.954   7.807 -0.3308 -0.1995  0.0153
  128MOL   Cl1615510   8.634   1.824   7.917 -0.0783  0.4589  0.1088
  128MOL    C1715511   8.522   2.040   8.019  0.5528  0.1947  0.3847
  128MOL    H1815512   8.602   2.082   7.958 -0.1305 -1.4717 -1.7084
  128MOL    H1915513   8.427   2.094   8.022  0.9245  0.8169  1.3928
  128MOL    C2015514   8.572   2.058   8.165  0.1659  0.0513 -0.3478
  128MOL   Cl2115515   8.432   2.033   8.276  0.2994  0.2212 -0.2249
  128MOL   Cl2215516   8.614   2.235   8.171  0.1659  0.2760  0.2173
  128MOL    C2315517   8.693   1.966   8.211 -0.2675  0.3668 -0.0053
  128MOL    H2415518   8.652   1.872   8.248  0.7127  1.2363  3.4743
  128MOL    H2515519   8.742   1.927   8.122 -1.2984  3.1275 -1.8313
  128MOL    C2615520   8.791   2.019   8.315 -0.4410  0.1666  0.2187
  128MOL   Cl2715521   8.858   1.882   8.395  0.0293  0.0534  0.1093
  128MOL   Cl2815522   8.699   2.096   8.446  0.0550  0.0673  0.0190
  128MOL    C2915523   8.907   2.116   8.276  0.0871 -0.4558  0.6887
  128MOL    H3015524   8.856   2.211   8.265  1.4335  0.3395  1.2247
  128MOL    H3115525   8.971   2.133   8.363  1.0115 -0.2154 -0.0288
  128MOL    C3215526   8.979   2.100   8.138 -0.1515 -0.2646  0.2419
  128MOL   Cl3315527   8.877   2.122   7.995 -0.1446 -0.0953 -0.1877
  128MOL   Cl3415528   9.035   1.936   8.135  0.0239 -0.3345  0.0973
  128MOL    C3515529   9.116   2.175   8.129  0.1841  0.1112 -0.3146
  128MOL    H3615530   9.165   2.146   8.222  0.8213 -2.6774 -1.4871
  128MOL    H3715531   9.160   2.129   8.041  0.0230 -0.1331 -0.2659
  128MOL    C3815532   9.119   2.328   8.105  0.1027  0.5079  0.7688
  128MOL   Cl3915533   9.016   2.419   8.218  0.1758 -0.0605 -0.4885
  128MOL   Cl4015534   9.054   2.365   7.940  0.2063  0.0917 -0.2641
  128MOL    C4115535   0.088   2.387   8.108 -1.0892  0.4278  0.5922
  128MOL    H4215536   0.128   2.364   8.010  0.4483  0.1520  1.2799
  128MOL    H4315537   0.084   2.496   8.109 -1.3427  0.4147  1.6918
  128MOL    C4415538   0.204   2.347   8.210  0.2147  0.1341  0.6091
  128MOL   Cl4515539   0.281   2.188   8.194  0.3330  0.2380 -0.0493
  128MOL   Cl4615540   0.137   2.358   8.372 -0.0806  0.0499 -0.0803
  128MOL    C4715541   0.317   2.449   8.216  0.1528 -0.3068 -0.4660
  128MOL    H4815542   0.268   2.540   8.253 -0.1185  0.2120 -2.0535
  128MOL    H4915543   0.373   2.411   8.301 -0.5114  1.4098  0.7724
  128MOL    C5015544   0.416   2.485   8.112 -0.2228 -0.0773 -0.2810
  128MOL   Cl5115545   0.328   2.560   7.977  0.1017 -0.3568  0.2055
  128MOL   Cl5215546   0.499   2.341   8.055 -0.0674  0.0718 -0.0263
  128MOL    C5315547   0.530   2.590   8.139  0.5612  0.1937  0.5674
  128MOL    H5415548   0.597   2.594   8.053  0.3443  0.5627  0.4143
  128MOL    H5515549   0.489   2.692   8.139 -0.9392 -0.3859 -0.5193
  128MOL    C5615550   0.615   2.574   8.271 -0.1248  0.1473  0.4237
  128MOL   Cl5715551   0.680   2.410   8.289  0.3719 -0.0253 -0.0035
  128MOL   Cl5815552   0.512   2.619   8.416 -0.4860 -0.0539  0.0067
  128MOL    C5915553   0.738   2.665   8.272 -0.4934 -0.1173  0.1316
  128MOL    H6015554   0.699   2.765   8.289  1.0060  0.7701 -1.3873
  128MOL    H6115555   0.791   2.644   8.365  0.6756 -0.8002 -0.6741
  128MOL    C6215556   0.844   2.668   8.150 -0.5016  0.3910 -0.4651
  128MOL   Cl6315557   0.980   2.756   8.221  0.1292  0.0038 -0.3929
  128MOL   Cl6415558   0.775   2.779   8.017  0.3668 -0.0959 -0.5996
  128MOL    C6515559   0.890   2.525   8.091 -0.5694  0.1088  0.2115
  128MOL    H6615560   0.900   2.451   8.171 -1.0404  1.5123  1.5977
  128MOL    H6715561   0.794   2.497   8.048 -1.0437  3.6402 -1.2392
  128MOL    C6815562   1.015   2.519   7.996  0.2483  0.5780 -0.4043
  128MOL   Cl6915563   1.166   2.537   8.083 -0.1790  0.0222 -0.1497
  128MOL   Cl7015564   1.006   2.639   7.865 -0.2573  0.0461 -0.1068
  128MOL    C7115565   1.022   2.378   7.916  0.1701  0.3164 -0.1259
  128MOL    H7215566   0.945   2.385   7.840  0.2592  1.0492 -0.1493
  128MOL    H7315567   1.115   2.378   7.858  1.9779 -0.6542  2.6510
  128MOL    C7415568   1.007   2.243   7.979 -0.3044 -0.3421 -0.7030
  128MOL   Cl7515569   0.847   2.214   8.043  0.1847 -0.2428 -0.0185
  128MOL   Cl7615570   1.115   2.237   8.117 -0.0097 -0.1186  0.1852
  128MOL    C7715571   1.041   2.125   7.881 -1.0380  0.1517 -0.2226
  128MOL    H7815572   1.150   2.114   7.880 -1.0047  0.4830 -0.2657
  128MOL    H7915573   1.013   2.040   7.945  0.4252 -0.9628 -1.0142
  128MOL    C8015574   0.985   2.104   7.736  0.5794  0.0516 -0.3694
  128MOL   Cl8115575   0.809   2.136   7.751 -0.4762 -0.1806 -0.0471
  128MOL   Cl8215576   0.997   1.933   7.690  0.2833  0.4127 -0.0933
  128MOL    C8315577   1.038   2.200   7.629 -0.6538 -0.0663  0.0339
  128MOL    H8415578   0.993   2.299   7.636 -0.7756 -0.1606  0.6325
  128MOL    H8515579   1.144   2.222   7.643 -0.5806 -0.0100 -0.5939
  128MOL    C8615580   1.038   2.168   7.474 -0.7895 -0.0537  0.2109
  128MOL   Cl8715581   0.870   2.145   7.431 -0.0783  0.0367  0.1932
  128MOL   Cl8815582   1.143   2.023   7.445  0.0090 -0.0440 -0.1378
  128MOL    C8915583   1.086   2.284   7.370 -0.4158 -0.1927  0.3364
  128MOL    H9015584   1.089   2.242   7.269 -0.8047 -3.3053  1.5664
  128MOL    H9115585   1.002   2.351   7.348  2.5558  3.4243 -0.3713
  128MOL    C9215586   1.200   2.389   7.407 -0.2258 -0.0455 -0.5273
  128MOL   Cl9315587   1.347   2.296   7.451 -0.3297 -0.0428 -0.0659
  128MOL   Cl9415588   1.161   2.489   7.551 -0.2846 -0.0801 -0.5731
  128MOL    C9515589   1.230   2.497   7.298  1.1851  0.4297 -0.2553
  128MOL    H9615590   1.133   2.535   7.266  1.0119 -1.7373 -2.4661
  128MOL    H9715591   1.294   2.576   7.338  1.2377  0.1226  0.2754
  128MOL    C9815592   1.300   2.471   7.160  0.0845  0.2500  0.0212
  128MOL   Cl9915593   1.243   2.319   7.083  0.4824 -0.0966 -0.1517
  128MOL  Cl10015594   1.475   2.434   7.197  0.1236 -0.3706 -0.1303
  128MOL   C10115595   1.304   2.587   7.055  0.0217 -0.4932 -0.1319
  128MOL   H10215596   1.366   2.665   7.098  0.0688 -0.5131 -0.1634
  128MOL   H10315597   1.359   2.550   6.969  0.9173  1.1965 -0.3075
  128MOL   C10415598   1.169   2.660   7.012 -0.5571 -0.2041 -0.3229
  128MOL  Cl10515599   1.237   2.778   6.891  0.1992  0.0538 -0.6238
  128MOL  Cl10615600   1.107   2.761   7.144 -0.2950 -0.1485  0.2029
  128MOL   C10715601   1.064   2.568   6.948  0.2526  0.7312 -0.5656
  128MOL   H10815602   1.126   2.508   6.882  0.7385 -0.5607  1.0318
  128MOL   H10915603   1.034   2.500   7.028  1.0035 -0.1684 -1.0318
  128MOL   C11015604   0.941   2.618   6.869 -0.2856  0.0894 -0.3007
  128MOL  Cl11115605   0.988   2.652   6.707 -0.1844  0.0761 -0.1514
  128MOL  Cl11215606   0.855   2.756   6.940  0.1351  0.0720 -0.2565
  128MOL   C11315607   0.826   2.509   6.860  0.1812 -0.2405  0.0716
  128MOL   H11415608   0.872   2.413   6.841 -0.0839 -0.6028  1.2149
  128MOL   H11515609   0.786   2.499   6.961 -0.3727  0.9356 -0.0240
  128MOL   C11615610   0.696   2.517   6.769 -0.1172 -0.4563 -0.3533
  128MOL  Cl11715611   0.588   2.389   6.828  0.2940 -0.4143  0.0182
  128MOL  Cl11815612   0.725   2.473   6.601  0.6784  0.4745 -0.0368
  128MOL   C11915613   0.629   2.652   6.773  0.2602  0.6539 -0.1535
  128MOL   H12015614   0.691   2.727   6.725  0.6413 -0.3473 -1.2457
  128MOL   H12115615   0.538   2.642   6.713  0.3967  0.0229 -0.2669
  128MOL   H12215616   0.603   2.685   6.873  3.2821 -0.3424  1.0153
  129MOL     C115617   8.569   2.572   1.440 -0.5651 -0.0738  0.0628
  129MOL    Cl215618   8.399   2.568   1.501  0.2165 -0.1079 -0.3027
  129MOL    Cl315619   8.577   2.720   1.337  0.0627 -0.2033 -0.6826
  129MOL     C415620   8.662   2.599   1.557  0.2584 -0.6310  0.3905
  129MOL     H515621   8.759   2.636   1.523 -0.9006  1.0889 -1.1430
  129MOL     H615622   8.639   2.686   1.619  0.0161 -1.7925  1.9428
  129MOL     H715623   8.597   2.479   1.391  3.5953  1.4405 -0.6244
  129MOL     C815624   8.684   2.484   1.657 -0.2432 -0.2817  0.6544
  129MOL    Cl915625   8.802   2.541   1.780  0.0032 -0.3525  0.1537
  129MOL   Cl1015626   8.775   2.360   1.576 -0.1721  0.0261  0.2033
  129MOL    C1115627   8.556   2.419   1.713 -0.4982 -0.5769  0.1395
  129MOL    H1215628   8.499   2.512   1.716 -0.1939 -0.3287 -1.1838
  129MOL    H1315629   8.510   2.360   1.633  0.2101  1.3945 -1.7664
  129MOL    C1415630   8.553   2.344   1.848 -0.3008  0.2442  0.8380
  129MOL   Cl1515631   8.389   2.281   1.859 -0.3713 -0.1074  0.1521
  129MOL   Cl1615632   8.579   2.461   1.982 -0.2356 -0.1500  0.0918
  129MOL    C1715633   8.662   2.229   1.852  0.2182 -0.0908 -0.5662
  129MOL    H1815634   8.652   2.176   1.757 -0.0834 -1.7582  0.3734
  129MOL    H1915635   8.759   2.276   1.840  0.4765 -0.0479  1.4872
  129MOL    C2015636   8.661   2.102   1.955  0.0229 -0.3374  0.4981
  129MOL   Cl2115637   8.819   2.020   1.943  0.0790 -0.1220 -0.3349
  129MOL   Cl2215638   8.522   1.997   1.905 -0.5213  0.1227  0.3138
  129MOL    C2315639   8.639   2.155   2.097 -0.4210  0.1369  0.5601
  129MOL    H2415640   8.721   2.224   2.118 -0.0138  0.3451 -1.5103
  129MOL    H2515641   8.555   2.224   2.090 -1.6330 -1.2096  1.6904
  129MOL    C2615642   8.616   2.067   2.225 -0.8351  0.0662  0.5384
  129MOL   Cl2715643   8.642   2.166   2.366  0.0014  0.0859  0.0553
  129MOL   Cl2815644   8.748   1.940   2.243  0.3959 -0.4390  0.0045
  129MOL    C2915645   8.471   2.004   2.233  0.0610 -0.2107  0.2474
  129MOL    H3015646   8.396   2.074   2.195 -1.0699 -1.0915  0.8085
  129MOL    H3115647   8.474   1.930   2.154  1.5078  0.6838 -0.5573
  129MOL    C3215648   8.410   1.938   2.357 -0.2581 -0.1693  0.5486
  129MOL   Cl3315649   8.340   2.067   2.466  0.1734 -0.2544  0.3639
  129MOL   Cl3415650   8.521   1.843   2.443 -0.5019  0.2957  0.1308
  129MOL    C3515651   8.287   1.852   2.324 -0.7464 -0.0720 -0.1498
  129MOL    H3615652   8.252   1.814   2.420 -1.3230  1.1012  0.1078
  129MOL    H3715653   8.204   1.916   2.295  0.9761  2.6792  0.8636
  129MOL    C3815654   8.288   1.736   2.222  0.0367 -0.2106 -0.4181
  129MOL   Cl3915655   8.295   1.787   2.053  0.2885 -0.0694  0.3464
  129MOL   Cl4015656   8.128   1.661   2.250  0.0600  0.4727  0.1862
  129MOL    C4115657   8.399   1.637   2.257  0.0131 -0.5350  0.3438
  129MOL    H4215658   8.495   1.684   2.234  0.0926 -1.5822 -1.5197
  129MOL    H4315659   8.407   1.622   2.364  1.0986 -2.8680 -0.0233
  129MOL    C4415660   8.411   1.492   2.190 -0.5263  0.2467 -0.1263
  129MOL   Cl4515661   8.273   1.391   2.242 -0.4349 -0.1693 -0.1349
  129MOL   Cl4615662   8.553   1.410   2.261 -0.4986 -0.1658  0.0710
  129MOL    C4715663   8.431   1.481   2.041 -0.4313  0.8258  0.5415
  129MOL    H4815664   8.415   1.375   2.022 -1.3793  0.9530  0.5913
  129MOL    H4915665   8.344   1.528   1.995  0.0347 -0.5040 -1.7891
  129MOL    C5015666   8.560   1.524   1.963  0.0631  0.1989 -0.0766
  129MOL   Cl5115667   8.603   1.690   2.006  0.0988  0.4860  0.3736
  129MOL   Cl5215668   8.521   1.536   1.798 -0.2108 -0.0795 -0.0166
  129MOL    C5315669   8.679   1.426   1.974 -0.1490 -0.3448  0.0437
  129MOL    H5415670   8.719   1.441   2.074 -1.3032 -0.1883  0.4922
  129MOL    H5515671   8.632   1.328   1.968 -0.2568 -0.2525 -0.7878
  129MOL    C5615672   8.805   1.421   1.886 -0.1213 -0.3595 -0.0041
  129MOL   Cl5715673   8.875   1.584   1.879 -0.0947  0.2430 -0.0145
  129MOL   Cl5815674   8.770   1.369   1.727  0.2043 -0.5362  0.2089
  129MOL    C5915675   8.921   1.327   1.939  0.1807  0.5392  0.1110
  129MOL    H6015676   8.905   1.222   1.912  1.8496 -0.6124  3.3600
  129MOL    H6115677   9.016   1.349   1.891  0.1998 -0.7978 -0.4929
  129MOL    C6215678   8.960   1.318   2.089  0.3039  0.1474 -0.3239
  129MOL   Cl6315679   8.831   1.219   2.169  0.4237 -0.2943 -0.2182
  129MOL   Cl6415680   8.971   1.478   2.179 -0.0256 -0.3087  0.3745
  129MOL    C6515681   9.090   1.236   2.117  1.3685  0.4735 -0.2850
  129MOL    H6615682   9.088   1.214   2.223 -1.6588 -1.6218 -0.7065
  129MOL    H6715683   9.076   1.132   2.088  1.6590  0.1164  0.8330
  129MOL    C6815684   0.045   1.275   2.057  0.7169  0.0084 -0.2475
  129MOL   Cl6915685   0.054   1.456   2.000  0.3066  0.0241  0.3085
  129MOL   Cl7015686   0.063   1.179   1.908  0.1669  0.3144 -0.3153
  129MOL    C7115687   0.167   1.245   2.154  0.1253  0.6312  0.1027
  129MOL    H7215688   0.139   1.274   2.256  0.2346 -0.2153  0.3809
  129MOL    H7315689   0.177   1.136   2.148  0.8889  0.5586  2.2275
  129MOL    C7415690   0.310   1.300   2.139 -0.3520  0.2505  0.2397
  129MOL   Cl7515691   0.366   1.273   1.971  0.1088  0.0902 -0.2140
  129MOL   Cl7615692   0.410   1.198   2.241  0.2109  0.2286 -0.1581
  129MOL    C7715693   0.327   1.452   2.171 -0.2241 -0.2425  0.4952
  129MOL    H7815694   0.435   1.468   2.176 -0.0644 -0.9464 -0.5834
  129MOL    H7915695   0.296   1.520   2.092  0.0146 -0.4114  0.2594
  129MOL    C8015696   0.283   1.519   2.306 -0.3337  0.7516 -0.6042
  129MOL   Cl8115697   0.351   1.434   2.455  0.2251 -0.2065  0.0830
  129MOL   Cl8215698   0.112   1.513   2.324  0.2934  0.1312 -0.1812
  129MOL    C8315699   0.326   1.668   2.323  0.7983  0.1983  0.5068
  129MOL    H8415700   0.279   1.696   2.417 -2.2603  1.2173 -1.2543
  129MOL    H8515701   0.434   1.667   2.334  0.9175 -1.5509 -0.6954
  129MOL    C8615702   0.298   1.768   2.206  0.3550 -0.4460  0.3991
  129MOL   Cl8715703   0.425   1.749   2.082  0.0498  0.1532 -0.0535
  129MOL   Cl8815704   0.328   1.916   2.293 -0.1738  0.1709 -0.3853
  129MOL    C8915705   0.155   1.774   2.149 -0.0674 -0.2405 -0.3046
  129MOL    H9015706   0.113   1.674   2.139  1.7042 -0.6705 -4.3378
  129MOL    H9115707   0.094   1.827   2.222 -0.2514  0.3522 -0.8844
  129MOL    C9215708   0.125   1.841   2.012  0.3831  0.0834 -0.2000
  129MOL   Cl9315709   9.132   1.825   2.009  0.1421 -0.2768  0.3357
  129MOL   Cl9415710   0.177   1.742   1.874 -0.3001  0.1990  0.0701
  129MOL    C9515711   0.183   1.983   1.995  0.0866  0.0193 -0.6584
  129MOL    H9615712   0.132   2.044   2.070  0.5638 -0.3692 -0.0095
  129MOL    H9715713   0.287   1.980   2.027  0.2744 -0.1328 -1.2900
  129MOL    C9815714   0.171   2.063   1.859  0.4490  0.2640 -0.1507
  129MOL   Cl9915715   0.301   2.001   1.747 -0.1559  0.2858 -0.1027
  129MOL  Cl10015716   0.213   2.231   1.905 -0.4402  0.4727  0.0114
  129MOL   C10115717   0.033   2.044   1.791  0.2201 -0.1496  0.0201
  129MOL   H10215718   0.031   1.944   1.748 -0.1047  0.0248 -0.3687
  129MOL   H10315719   9.132   2.046   1.864  1.9071  0.9260  1.9061
  129MOL   C10415720   9.151   2.141   1.679 -0.3577  0.8502  0.4940
  129MOL  Cl10515721   9.093   2.289   1.765 -0.0470 -0.0840  0.0500
  129MOL  Cl10615722   9.011   2.053   1.613  0.4580 -0.5660 -0.1371
  129MOL   C10715723   0.083   2.160   1.568 -0.0948 -0.4912  1.1196
  129MOL   H10815724   0.148   2.230   1.620  0.3978 -1.1905  1.4522
  129MOL   H10915725   0.135   2.067   1.546  0.0171  0.3158 -2.3581
  129MOL   C11015726   0.052   2.223   1.430 -0.1819  0.0237  0.0620
  129MOL  Cl11115727   0.217   2.288   1.365  0.3914 -0.0526 -0.0760
  129MOL  Cl11215728   9.127   2.367   1.446 -0.2028 -0.1401 -0.2708
  129MOL   C11315729   9.175   2.120   1.326  0.5772  0.5016  0.2674
  129MOL   H11415730   0.037   2.021   1.345  1.1848  0.6705 -0.1858
  129MOL   H11515731   9.071   2.104   1.354  0.7066 -0.6851  0.1328
  129MOL   C11615732   9.175   2.145   1.173  0.0061  0.0866 -0.0756
  129MOL  Cl11715733   9.053   2.025   1.114  0.4859  0.4646  0.3346
  129MOL  Cl11815734   0.142   2.092   1.098 -0.4167 -0.6478  0.4819
  129MOL   C11915735   9.139   2.286   1.128 -0.2888 -0.3368  1.0952
  129MOL   H12015736   9.055   2.337   1.175 -0.4770  0.0006  0.3988
  129MOL   H12115737   0.047   2.346   1.150  1.3680 -2.9136  1.7062
  129MOL   H12215738   9.129   2.283   1.020  1.0568  1.5978  0.8850
  130MOL     C115739   5.353   7.298   1.237  0.1733  0.7684 -0.2224
  130MOL    Cl215740   5.271   7.314   1.390 -0.2985 -0.0347 -0.0803
  130MOL    Cl315741   5.286   7.149   1.160 -0.2262  0.4752 -0.1871
  130MOL     C415742   5.326   7.417   1.139 -0.3918  0.7342  0.2915
  130MOL     H515743   5.360   7.375   1.044 -0.4554 -0.9468  1.0083
  130MOL     H615744   5.219   7.434   1.126 -0.7717 -0.2056  2.1467
  130MOL     H715745   5.457   7.267   1.249 -0.8565 -2.1688  1.8187
  130MOL     C815746   5.404   7.547   1.164  0.5464 -0.0099 -0.0424
  130MOL    Cl915747   5.337   7.660   1.036  0.1279 -0.4457 -0.1287
  130MOL   Cl1015748   5.578   7.509   1.118  0.1328  0.2476 -0.1851
  130MOL    C1115749   5.392   7.609   1.306 -0.3703 -0.2910  0.0933
  130MOL    H1215750   5.289   7.610   1.342  0.1699  1.6875  1.6962
  130MOL    H1315751   5.429   7.532   1.373  0.1318  0.1094  0.2816
  130MOL    C1415752   5.464   7.737   1.361  0.2990  0.7555  0.3804
  130MOL   Cl1515753   5.427   7.718   1.529 -0.1514  0.1106 -0.0220
  130MOL   Cl1615754   5.387   7.879   1.291  0.3338  0.1641 -0.0207
  130MOL    C1715755   5.616   7.741   1.345 -0.0548  0.2802 -0.5092
  130MOL    H1815756   5.663   7.644   1.354  1.7521  1.1756 -0.1393
  130MOL    H1915757   5.634   7.770   1.242  2.3416 -1.0008 -0.4710
  130MOL    C2015758   5.701   7.833   1.437  0.5396  0.1976  0.1531
  130MOL   Cl2115759   5.612   7.984   1.469 -0.5909 -0.1739  0.2256
  130MOL   Cl2215760   5.853   7.877   1.350 -0.2412 -0.4604 -0.1385
  130MOL    C2315761   5.748   7.774   1.581 -0.0167 -0.2309 -0.2195
  130MOL    H2415762   5.825   7.844   1.612 -0.7206  2.1921 -3.5685
  130MOL    H2515763   5.666   7.783   1.652  0.1212  0.7667 -0.1715
  130MOL    C2615764   5.834   7.642   1.596 -0.0952  0.0609 -0.2436
  130MOL   Cl2715765   5.729   7.501   1.561 -0.1210 -0.1681  0.0266
  130MOL   Cl2815766   5.872   7.647   1.770 -0.0968 -0.2675 -0.1937
  130MOL    C2915767   5.965   7.624   1.512  1.0617 -0.0724  0.1722
  130MOL    H3015768   5.934   7.603   1.409 -1.4425 -0.4990  0.9718
  130MOL    H3115769   6.002   7.725   1.525 -1.3021  0.7233  0.9347
  130MOL    C3215770   6.080   7.528   1.552  0.8164 -0.1226  0.3593
  130MOL   Cl3315771   6.012   7.371   1.594  0.0537  0.1579 -0.2073
  130MOL   Cl3415772   6.160   7.580   1.704  0.4879  0.2551  0.2595
  130MOL    C3515773   6.188   7.505   1.441  0.2668 -0.5273  0.3688
  130MOL    H3615774   6.241   7.410   1.454 -0.0383 -1.0898 -2.2301
  130MOL    H3715775   6.136   7.490   1.346 -0.8831 -0.5656  0.9913
  130MOL    C3815776   6.299   7.610   1.412 -0.2438 -0.2299  0.8517
  130MOL   Cl3915777   6.225   7.769   1.360  0.1857  0.2372 -0.1870
  130MOL   Cl4015778   6.367   7.538   1.269 -0.1003 -0.3057 -0.3528
  130MOL    C4115779   6.415   7.625   1.519 -0.2533  0.2650 -0.4983
  130MOL    H4215780   6.375   7.687   1.599  2.2776  3.1107 -1.3203
  130MOL    H4315781   6.427   7.526   1.562 -1.5159  0.4020  0.2116
  130MOL    C4415782   6.551   7.687   1.480  0.4921 -0.0841  0.5504
  130MOL   Cl4515783   6.638   7.744   1.627  0.4631  0.3464 -0.1787
  130MOL   Cl4615784   6.529   7.835   1.376 -0.3372 -0.1873 -0.2848
  130MOL    C4715785   6.656   7.601   1.406 -0.4946  0.1014 -0.6220
  130MOL    H4815786   6.641   7.601   1.298 -0.9767 -0.8432 -0.5634
  130MOL    H4915787   6.752   7.652   1.416 -1.1192  1.0895  0.4741
  130MOL    C5015788   6.692   7.449   1.445 -0.5460 -0.6644 -0.1029
  130MOL   Cl5115789   6.808   7.392   1.331  0.0068 -0.0833  0.0101
  130MOL   Cl5215790   6.551   7.344   1.418 -0.3027  0.4570  0.0055
  130MOL    C5315791   6.745   7.439   1.593  0.3553  0.3480  0.4861
  130MOL    H5415792   6.818   7.518   1.611  1.2042 -0.3441  0.1407
  130MOL    H5515793   6.657   7.460   1.653  1.2768 -0.0671  2.0037
  130MOL    C5615794   6.809   7.300   1.636  0.1236  0.0894 -0.7606
  130MOL   Cl5715795   6.809   7.300   1.814 -0.2685  0.1816  0.1842
  130MOL   Cl5815796   6.985   7.304   1.587 -0.1096 -0.0326  0.2322
  130MOL    C5915797   6.741   7.169   1.590  0.3108  0.1423  0.5952
  130MOL    H6015798   6.643   7.185   1.636 -0.5484  1.5060 -1.6481
  130MOL    H6115799   6.749   7.163   1.482 -0.5203  0.5428  0.5008
  130MOL    C6215800   6.787   7.024   1.618  0.1522 -0.2162  0.3350
  130MOL   Cl6315801   6.932   6.981   1.532  0.3111  0.0515  0.3579
  130MOL   Cl6415802   6.644   6.935   1.545  0.0142  0.0048  0.2825
  130MOL    C6515803   6.810   6.994   1.765  0.3489 -0.2179 -0.2996
  130MOL    H6615804   6.886   7.057   1.811  1.7715 -1.2002 -1.2505
  130MOL    H6715805   6.722   7.036   1.812  0.5979 -0.1743  0.1353
  130MOL    C6815806   6.840   6.847   1.817  0.6031 -0.3733  0.5218
  130MOL   Cl6915807   6.824   6.854   2.002  0.1215 -0.0192 -0.0420
  130MOL   Cl7015808   7.012   6.827   1.785  0.5510  0.1942  0.0339
  130MOL    C7115809   6.748   6.733   1.760  0.2141 -0.8279 -0.0632
  130MOL    H7215810   6.648   6.769   1.736  0.6362 -0.8612 -1.9820
  130MOL    H7315811   6.780   6.723   1.656 -0.5802 -0.4633 -0.3493
  130MOL    C7415812   6.726   6.598   1.833  0.5112 -0.1172 -0.2426
  130MOL   Cl7515813   6.614   6.613   1.972 -0.3574  0.1925  0.0208
  130MOL   Cl7615814   6.882   6.562   1.900  0.6048  0.3290 -0.0140
  130MOL    C7715815   6.675   6.488   1.737  0.2761 -0.1493 -0.2175
  130MOL    H7815816   6.574   6.507   1.703  0.3511 -0.5745 -0.6892
  130MOL    H7915817   6.735   6.494   1.646  0.2506 -1.3501 -0.3238
  130MOL    C8015818   6.675   6.336   1.771  0.1036  0.5878  0.0745
  130MOL   Cl8115819   6.851   6.285   1.773  0.0955 -0.0171  0.0256
  130MOL   Cl8215820   6.605   6.253   1.631 -0.4715 -0.1834  0.0720
  130MOL    C8315821   6.604   6.302   1.903 -0.1782  0.8871 -0.3729
  130MOL    H8415822   6.656   6.359   1.980 -2.4291  0.3173  1.6426
  130MOL    H8515823   6.507   6.352   1.894 -1.6354 -1.5514  1.2953
  130MOL    C8615824   6.558   6.162   1.945 -0.4835 -0.3802 -0.0737
  130MOL   Cl8715825   6.684   6.040   1.889 -0.2670 -0.0726 -0.1245
  130MOL   Cl8815826   6.407   6.123   1.863 -0.2650  0.2799 -0.0612
  130MOL    C8915827   6.535   6.149   2.099 -0.5801  0.1758  0.4750
  130MOL    H9015828   6.612   6.211   2.145 -0.7778  0.5076  0.3577
  130MOL    H9115829   6.438   6.190   2.127 -1.2692 -0.1481 -1.3470
  130MOL    C9215830   6.524   6.017   2.180 -0.3851 -0.1901  0.0689
  130MOL   Cl9315831   6.459   6.072   2.338 -0.1089 -0.1850 -0.0646
  130MOL   Cl9415832   6.682   5.952   2.210  0.0161  0.1598  0.0266
  130MOL    C9515833   6.435   5.906   2.111  0.2035  0.3512 -0.1276
  130MOL    H9615834   6.335   5.942   2.089 -0.2320 -0.6903  0.0859
  130MOL    H9715835   6.481   5.895   2.013  0.6855  0.4427  0.0881
  130MOL    C9815836   6.414   5.758   2.164 -0.1580 -0.1586  0.4458
  130MOL   Cl9915837   6.562   5.668   2.125 -0.0254 -0.1298  0.2863
  130MOL  Cl10015838   6.286   5.692   2.054 -0.0066 -0.1471 -0.1545
  130MOL   C10115839   6.378   5.756   2.323 -0.8201 -0.3991  0.1745
  130MOL   H10215840   6.459   5.792   2.387 -1.1725  0.8841 -0.0807
  130MOL   H10315841   6.305   5.837   2.334 -0.1227  0.2756 -0.0941
  130MOL   C10415842   6.324   5.629   2.394 -0.0584 -0.0144  0.2458
  130MOL  Cl10515843   6.403   5.485   2.332 -0.2744 -0.0785 -0.4061
  130MOL  Cl10615844   6.146   5.612   2.371 -0.3977 -0.2454 -0.3427
  130MOL   C10715845   6.360   5.632   2.551  0.7636 -0.1665 -0.2330
  130MOL   H10815846   6.469   5.629   2.559  0.6988 -0.7420  0.5008
  130MOL   H10915847   6.327   5.726   2.594  0.5201 -0.9632  1.3582
  130MOL   C11015848   6.328   5.521   2.655  1.0036  0.0155 -0.7464
  130MOL  Cl11115849   6.377   5.598   2.811  0.2327 -0.2928  0.1945
  130MOL  Cl11215850   6.426   5.372   2.624  0.1008 -0.0930 -0.0689
  130MOL   C11315851   6.177   5.494   2.677  0.6093  0.1367 -0.1851
  130MOL   H11415852   6.133   5.592   2.699 -0.7404 -0.7435  1.0575
  130MOL   H11515853   6.137   5.468   2.579 -0.7284 -1.0955  0.6742
  130MOL   C11615854   6.112   5.388   2.785  0.4824 -0.1919  0.4907
  130MOL  Cl11715855   5.946   5.450   2.790  0.4338  0.0552  0.4631
  130MOL  Cl11815856   6.183   5.411   2.947 -0.0235  0.1426  0.0510
  130MOL   C11915857   6.127   5.249   2.727  0.7050  0.5427 -0.0029
  130MOL   H12015858   6.075   5.178   2.793  0.9612  1.2694  0.9870
  130MOL   H12115859   6.084   5.244   2.627  0.9272 -0.3924 -0.0572
  130MOL   H12215860   6.228   5.211   2.718  0.1312 -2.4236  4.2183
  131MOL     C115861   4.598   0.799   7.998  0.2139 -0.3418  0.2899
  131MOL    Cl215862   4.463   0.715   7.909  0.5350 -0.0192 -0.1756
  131MOL    Cl315863   4.567   0.791   8.174 -0.4354  0.2084  0.0400
  131MOL     C415864   4.729   0.730   7.959  0.1813 -0.3096  0.0563
  131MOL     H515865   4.715   0.623   7.975 -2.0122 -0.3127 -1.5725
  131MOL     H615866   4.734   0.744   7.851 -0.7102  1.9854  0.2769
  131MOL     H715867   4.597   0.903   7.965  2.0080 -0.7490 -1.1176
  131MOL     C815868   4.869   0.773   8.017  0.2064 -0.3426  0.0859
  131MOL    Cl915869   4.861   0.950   8.039  0.1659  0.1299 -0.1563
  131MOL   Cl1015870   4.989   0.757   7.894  0.0884  0.2041 -0.1691
  131MOL    C1115871   4.921   0.710   8.153 -0.9253 -0.0289  0.2236
  131MOL    H1215872   5.024   0.743   8.163 -0.7164 -0.1204 -1.5807
  131MOL    H1315873   4.871   0.748   8.242  1.3656 -2.4717  2.6828
  131MOL    C1415874   4.933   0.558   8.181  0.5168  0.2065  0.2321
  131MOL   Cl1515875   4.997   0.469   8.039 -0.2129  0.0295  0.1144
  131MOL   Cl1615876   4.769   0.499   8.223 -0.1349 -0.1025  0.3662
  131MOL    C1715877   5.020   0.522   8.298 -0.4729 -0.0273  0.0925
  131MOL    H1815878   4.992   0.418   8.318  0.4551  0.1912  2.8713
  131MOL    H1915879   5.124   0.521   8.264 -0.9784 -1.2060 -1.4461
  131MOL    C2015880   5.034   0.595   8.442 -0.5743 -0.7113 -0.3416
  131MOL   Cl2115881   4.880   0.598   8.532 -0.0218  0.3410 -0.6437
  131MOL   Cl2215882   5.088   0.768   8.418 -0.0046  0.2515  0.2262
  131MOL    C2315883   5.140   0.520   8.530 -0.2837  0.4322 -0.3614
  131MOL    H2415884   5.128   0.412   8.541  0.5424  0.5797  2.3309
  131MOL    H2515885   5.238   0.544   8.489 -1.2506  2.7352 -1.4335
  131MOL    C2615886   5.160   0.551   8.674 -0.3619 -0.5771  0.1873
  131MOL   Cl2715887   5.324   0.482   8.704 -0.3105  0.3223  0.2677
  131MOL   Cl2815888   5.051   0.455   8.777  0.3489  0.0371 -0.3108
  131MOL    C2915889   5.169   0.704   8.721 -0.4336  0.9173 -0.0958
  131MOL    H3015890   5.236   0.750   8.648  0.2798 -0.0753 -0.0660
  131MOL    H3115891   5.073   0.748   8.692 -0.9145 -1.2542 -1.8727
  131MOL    C3215892   5.189   0.744   8.874 -0.4778 -0.3183 -0.0162
  131MOL   Cl3315893   5.264   0.908   8.880 -0.4712  0.3770  0.3160
  131MOL   Cl3415894   5.307   0.642   8.959  0.0692 -0.1752 -0.1001
  131MOL    C3515895   5.065   0.739   8.962 -0.5040  0.2489  0.1700
  131MOL    H3615896   5.037   0.634   8.963  1.2094 -0.2073  0.9078
  131MOL    H3715897   5.108   0.755   9.061 -0.4389  0.9556  0.0296
  131MOL    C3815898   4.939   0.820   8.935 -0.1099  0.1059  0.0078
  131MOL   Cl3915899   4.839   0.731   8.815 -0.2643  0.0663  0.5668
  131MOL   Cl4015900   4.975   0.991   8.868  0.3525 -0.3058 -0.1541
  131MOL    C4115901   4.869   0.838   9.071  0.0360 -0.1079  0.5907
  131MOL    H4215902   4.894   0.756   9.139  1.0713  0.5875  1.0652
  131MOL    H4315903   4.925   0.923   9.110 -0.3102 -0.0751  1.0156
  131MOL    C4415904   4.717   0.873   9.085 -0.7905 -0.1041  0.3643
  131MOL   Cl4515905   4.693   0.927   0.068 -0.2640  0.2061  0.1570
  131MOL   Cl4615906   4.632   0.709   9.063 -0.3083  0.5210  0.5072
  131MOL    C4715907   4.663   0.986   8.987 -0.6451 -0.6338  0.6548
  131MOL    H4815908   4.738   1.065   8.996 -2.6078  1.6104 -1.6594
  131MOL    H4915909   4.683   0.951   8.885  0.6576 -0.2325  0.7658
  131MOL    C5015910   4.529   1.067   9.000 -0.3177  0.3376 -0.3601
  131MOL   Cl5115911   4.510   1.150   9.157 -0.2717  0.0785  0.1574
  131MOL   Cl5215912   4.403   0.945   8.987 -0.4515  0.4980 -0.1082
  131MOL    C5315913   4.505   1.178   8.895  0.8669 -0.0746 -0.6597
  131MOL    H5415914   4.480   1.115   8.809  1.8216 -1.8333  0.3051
  131MOL    H5515915   4.411   1.224   8.925  2.1174 -0.0519  3.4530
  131MOL    C5615916   4.610   1.283   8.860 -0.4054  0.2532  0.1331
  131MOL   Cl5715917   4.509   1.381   8.753 -0.1776 -0.2748 -0.3110
  131MOL   Cl5815918   4.742   1.209   8.761 -0.4481 -0.4005 -0.0092
  131MOL    C5915919   4.659   1.368   8.986 -0.2099  0.2495  0.7102
  131MOL    H6015920   4.570   1.405   9.036  0.3223  1.8113  0.5071
  131MOL    H6115921   4.707   1.303   9.060 -1.3752  0.7059  1.8724
  131MOL    C6215922   4.762   1.485   8.963  0.4874 -0.4888  0.2707
  131MOL   Cl6315923   4.701   1.608   8.844  0.0150  0.3004  0.1580
  131MOL   Cl6415924   4.914   1.407   8.904  0.3781  0.1003  0.5129
  131MOL    C6515925   4.795   1.558   9.094  0.3596  0.2840 -0.3001
  131MOL    H6615926   4.702   1.607   9.124 -0.1876  0.0558 -1.5739
  131MOL    H6715927   4.810   1.487   9.174 -0.4427  0.5137  0.0586
  131MOL    C6815928   4.896   1.676   9.109 -0.1193 -0.0612 -0.6068
  131MOL   Cl6915929   5.030   1.603   0.027  0.2294 -0.2909 -0.0035
  131MOL   Cl7015930   4.808   1.797   0.028 -0.0315 -0.2091 -0.0317
  131MOL    C7115931   4.953   1.748   8.987  0.3107  0.3297  0.4093
  131MOL    H7215932   5.007   1.662   8.946  2.9768  1.8722  0.5749
  131MOL    H7315933   4.881   1.764   8.907  2.5652 -1.6365 -2.1285
  131MOL    C7415934   5.040   1.880   8.992 -0.6510  0.6227 -0.1831
  131MOL   Cl7515935   4.928   2.010   8.998 -0.0024 -0.0736 -0.0909
  131MOL   Cl7615936   5.106   1.902   8.825  0.0627 -0.2626 -0.0834
  131MOL    C7715937   5.149   1.891   9.100 -0.0972  0.4044  0.1344
  131MOL    H7815938   5.106   1.883   0.019 -0.6043 -0.0370 -0.1185
  131MOL    H7915939   5.217   1.807   9.089  3.4808  3.1501  0.5895
  131MOL    C8015940   5.240   2.010   9.102 -0.2464  0.4336 -0.0342
  131MOL   Cl8115941   5.351   2.021   8.960 -0.2801 -0.3157 -0.0040
  131MOL   Cl8215942   5.355   1.969   0.057  0.0163  0.1332  0.3878
  131MOL    C8315943   5.173   2.148   9.133 -0.2485 -0.0693 -0.2267
  131MOL    H8415944   5.120   2.172   9.041  0.4096  0.5501 -0.4486
  131MOL    H8515945   5.090   2.128   0.020 -1.3438  3.0566 -0.5362
  131MOL    C8615946   5.246   2.282   0.001  0.0895  0.4082  0.1040
  131MOL   Cl8715947   5.245   2.261   0.174 -0.0385  0.5066 -0.2121
  131MOL   Cl8815948   5.123   2.409   9.146 -0.0922 -0.2151 -0.0423
  131MOL    C8915949   5.389   2.317   9.120  0.2815 -0.0167  0.2053
  131MOL    H9015950   5.458   2.237   9.144  0.5266  0.3616  0.7727
  131MOL    H9115951   5.376   2.309   9.012  0.6012  3.8772 -0.2176
  131MOL    C9215952   5.471   2.445   9.151  0.1387  0.1881  1.2695
  131MOL   Cl9315953   5.491   2.450   0.150  0.1851 -0.7359 -0.0673
  131MOL   Cl9415954   5.393   2.591   9.098  0.1921 -0.2469  0.0883
  131MOL    C9515955   5.610   2.443   9.099 -0.2611  0.5590 -0.0361
  131MOL    H9615956   5.651   2.539   9.131 -1.6899  1.3183 -0.4075
  131MOL    H9715957   5.658   2.363   9.155 -0.0919 -0.6002 -1.8139
  131MOL    C9815958   5.660   2.433   8.948  0.1895  0.4246 -0.1266
  131MOL   Cl9915959   5.617   2.262   8.883 -0.3657  0.2073 -0.0208
  131MOL  Cl10015960   5.834   2.447   8.962  0.4378 -0.3298  0.4483
  131MOL   C10115961   5.600   2.544   8.857 -0.7526  0.6207 -0.1324
  131MOL   H10215962   5.492   2.534   8.860 -0.7748  0.4978 -1.2205
  131MOL   H10315963   5.622   2.641   8.901  0.2443  0.4507 -0.2447
  131MOL   C10415964   5.638   2.554   8.705  0.3469 -0.2658  0.0633
  131MOL  Cl10515965   5.574   2.705   8.654  0.2180  0.2198 -0.3080
  131MOL  Cl10615966   5.541   2.433   8.616 -0.1776 -0.1454 -0.2150
  131MOL   C10715967   5.788   2.543   8.670  0.2328 -0.0699 -0.3128
  131MOL   H10815968   5.836   2.597   8.752  0.0606 -0.0957 -0.1954
  131MOL   H10915969   5.816   2.439   8.687  0.2597 -0.2660 -1.5238
  131MOL   C11015970   5.850   2.578   8.535 -0.2952 -0.4398  0.2739
  131MOL  Cl11115971   5.755   2.522   8.400 -0.0568  0.0409 -0.1356
  131MOL  Cl11215972   6.004   2.503   8.523 -0.0917  0.0080 -0.6188
  131MOL   C11315973   5.870   2.729   8.510 -0.3948 -0.5135 -0.0290
  131MOL   H11415974   5.915   2.728   8.410  2.0855 -1.9196  1.0516
  131MOL   H11515975   5.769   2.765   8.490 -0.5297 -0.3721  0.8892
  131MOL   C11615976   5.949   2.824   8.610  0.3314 -0.1084  0.7905
  131MOL  Cl11715977   5.852   2.876   8.749  0.4737 -0.0004  0.1327
  131MOL  Cl11815978   5.996   2.971   8.523 -0.2303 -0.0987  0.0526
  131MOL   C11915979   6.084   2.769   8.662 -0.0161  0.2034 -0.0492
  131MOL   H12015980   6.080   2.682   8.727 -1.1135 -0.8623 -1.5186
  131MOL   H12115981   6.135   2.744   8.569 -1.0560  1.4871 -0.9967
  131MOL   H12215982   6.139   2.848   8.713  0.3122  0.2747 -0.5112
  132MOL     C115983   3.461   4.583   7.140  0.4906 -0.6422  0.2304
  132MOL    Cl215984   3.397   4.588   6.974 -0.2166 -0.0561  0.2567
  132MOL    Cl315985   3.583   4.453   7.153 -0.0090 -0.4970 -0.3254
  132MOL     C415986   3.514   4.727   7.179  0.5829 -0.1398 -0.3834
  132MOL     H515987   3.602   4.750   7.118  0.3617  2.7310  0.3133
  132MOL     H615988   3.438   4.800   7.151  0.5177  0.4602  1.2790
  132MOL     H715989   3.375   4.551   7.200  1.2365 -1.0994  1.0661
  132MOL     C815990   3.533   4.753   7.328 -0.4472  0.7095 -0.0641
  132MOL    Cl915991   3.658   4.642   7.405 -0.0174  0.1272  0.0243
  132MOL   Cl1015992   3.377   4.716   7.408 -0.2662  0.1643  0.3447
  132MOL    C1115993   3.569   4.894   7.380  0.3318 -0.4838 -0.0192
  132MOL    H1215994   3.476   4.951   7.376 -0.0380 -1.0964 -0.1176
  132MOL    H1315995   3.600   4.894   7.485  0.6332  0.9647 -0.0914
  132MOL    C1415996   3.682   4.973   7.306 -0.1013  0.1621 -0.6640
  132MOL   Cl1515997   3.624   5.040   7.151 -0.0153 -0.0970 -0.1595
  132MOL   Cl1615998   3.820   4.869   7.254 -0.1954 -0.1029  0.5795
  132MOL    C1715999   3.761   5.084   7.385 -0.5735 -0.3400  0.7500
  132MOL    H1816000   3.805   5.045   7.477  0.0873 -1.5314 -0.0606
  132MOL    H1916001   3.841   5.112   7.317 -2.6484  2.0262 -0.7860
  132MOL    C2016002   3.682   5.208   7.426  0.1548 -0.2010  0.7837
  132MOL   Cl2116003   3.799   5.271   7.552 -0.0150  0.3496 -0.0995
  132MOL   Cl2216004   3.524   5.181   7.502  0.4627  0.4514  0.2701
  132MOL    C2316005   3.686   5.314   7.313  0.3106 -0.3588 -0.2976
  132MOL    H2416006   3.790   5.343   7.296  0.8387 -1.7203  0.5206
  132MOL    H2516007   3.655   5.267   7.220 -0.8686  0.8452 -0.5148
  132MOL    C2616008   3.600   5.439   7.335  0.2046  0.6949  0.7222
  132MOL   Cl2716009   3.432   5.401   7.291  0.1627 -0.1306 -0.0120
  132MOL   Cl2816010   3.651   5.532   7.207 -0.3942 -0.4233  0.4989
  132MOL    C2916011   3.609   5.517   7.475 -0.8015 -0.7453  0.2197
  132MOL    H3016012   3.559   5.456   7.551 -0.1120  0.6075  1.7735
  132MOL    H3116013   3.714   5.500   7.500 -1.2792  0.0540  2.9184
  132MOL    C3216014   3.591   5.668   7.494  0.4248 -0.6020 -0.4648
  132MOL   Cl3316015   3.430   5.706   7.430  0.2458  0.1472  0.4179
  132MOL   Cl3416016   3.713   5.761   7.399 -0.1052 -0.7076  0.0501
  132MOL    C3516017   3.583   5.705   7.639 -0.0762  0.3457  0.4002
  132MOL    H3616018   3.581   5.814   7.633  0.2658  0.3408  0.1920
  132MOL    H3716019   3.482   5.675   7.668 -0.7330  0.1946 -1.9740
  132MOL    C3816020   3.691   5.660   7.736  0.4468  0.0991 -0.1977
  132MOL   Cl3916021   3.856   5.707   7.682  0.1481  0.3460  0.2294
  132MOL   Cl4016022   3.701   5.487   7.754 -0.1493  0.3197  0.4279
  132MOL    C4116023   3.652   5.717   7.875 -0.0661 -0.2534  0.0358
  132MOL    H4216024   3.591   5.806   7.864  0.1436  0.0972  1.6049
  132MOL    H4316025   3.586   5.641   7.917 -1.0504  1.7131  2.0946
  132MOL    C4416026   3.757   5.734   7.991 -0.0357  0.9063  0.2313
  132MOL   Cl4516027   3.673   5.774   8.149 -0.4006  0.1090  0.0491
  132MOL   Cl4616028   3.857   5.877   7.953 -0.0045 -0.1571 -0.0510
  132MOL    C4716029   3.837   5.603   8.016 -0.0369  0.5856 -0.5384
  132MOL    H4816030   3.777   5.512   8.020  1.4887 -0.4531 -0.8499
  132MOL    H4916031   3.905   5.571   7.937 -0.1706  0.8226 -0.7468
  132MOL    C5016032   3.925   5.576   8.142 -0.2393  0.5848 -0.3346
  132MOL   Cl5116033   4.013   5.424   8.116  0.3611 -0.2907 -0.1226
  132MOL   Cl5216034   3.822   5.552   8.285 -0.2309  0.3979  0.5046
  132MOL    C5316035   4.026   5.688   8.189 -0.1385  1.0612 -0.3579
  132MOL    H5416036   3.982   5.787   8.177 -1.1732  0.6310 -0.1877
  132MOL    H5516037   4.042   5.683   8.296 -1.7737  1.5656 -0.0794
  132MOL    C5616038   4.171   5.699   8.125  0.1560 -0.2312 -0.3318
  132MOL   Cl5716039   4.153   5.669   7.943  0.0636  0.1354  0.4543
  132MOL   Cl5816040   4.283   5.570   8.193  0.2865 -0.0135 -0.0314
  132MOL    C5916041   4.216   5.842   8.148  0.2542  0.0851 -0.0446
  132MOL    H6016042   4.170   5.900   8.068 -0.2002 -0.5716 -0.2546
  132MOL    H6116043   4.186   5.877   8.247 -1.5593 -1.1775 -0.1294
  132MOL    C6216044   4.366   5.895   8.138 -0.0092  0.1092 -0.1781
  132MOL   Cl6316045   4.453   5.805   8.007 -0.1904  0.0738 -0.0689
  132MOL   Cl6416046   4.438   5.874   8.299  0.3879 -0.0446 -0.5070
  132MOL    C6516047   4.372   6.048   8.097 -0.1166 -0.1015 -0.2268
  132MOL    H6616048   4.475   6.080   8.086 -0.6830  1.4222 -1.1751
  132MOL    H6716049   4.342   6.050   7.993  0.2804 -0.9082 -0.3572
  132MOL    C6816050   4.286   6.160   8.168  1.0051 -0.2106  0.5984
  132MOL   Cl6916051   4.116   6.149   8.140 -0.3551  0.1711  0.4202
  132MOL   Cl7016052   4.330   6.316   8.089 -0.0837 -0.3501  0.0257
  132MOL    C7116053   4.321   6.166   8.318 -0.0604 -0.2443 -0.5186
  132MOL    H7216054   4.289   6.072   8.361 -0.7526 -1.0539 -2.7506
  132MOL    H7316055   4.430   6.163   8.316 -0.0487 -0.4413  0.4688
  132MOL    C7416056   4.286   6.289   8.413  0.1975 -0.3761 -0.1624
  132MOL   Cl7516057   4.313   6.220   8.574  0.3593  0.0607  0.2589
  132MOL   Cl7616058   4.115   6.339   8.394 -0.4927  0.1891 -0.1580
  132MOL    C7716059   4.378   6.408   8.381 -0.2146 -0.1005  0.6891
  132MOL    H7816060   4.469   6.351   8.363 -0.0794  0.2454  0.2627
  132MOL    H7916061   4.352   6.466   8.292 -0.8609 -0.7991  0.4083
  132MOL    C8016062   4.413   6.523   8.484  0.2907  0.9504  0.4160
  132MOL   Cl8116063   4.510   6.640   8.389  0.1939  0.0126 -0.3734
  132MOL   Cl8216064   4.518   6.469   8.615  0.0111 -0.4866 -0.1280
  132MOL    C8316065   4.285   6.596   8.536 -0.1097  0.1137 -0.5171
  132MOL    H8416066   4.249   6.656   8.452  0.3975  0.2814 -0.6202
  132MOL    H8516067   4.196   6.537   8.558 -1.2752  2.0533  0.0837
  132MOL    C8616068   4.288   6.679   8.664 -0.0160 -0.4169 -0.6743
  132MOL   Cl8716069   4.438   6.782   8.669 -0.0124  0.5307  0.0841
  132MOL   Cl8816070   4.291   6.566   8.809  0.3128 -0.5407  0.1403
  132MOL    C8916071   4.160   6.769   8.687 -0.4187 -0.4550  0.1450
  132MOL    H9016072   4.115   6.793   8.591 -0.8985 -1.3666  0.1349
  132MOL    H9116073   4.087   6.709   8.741  0.1408  1.5540  3.2579
  132MOL    C9216074   4.167   6.899   8.778 -0.0480  0.3889 -0.4179
  132MOL   Cl9316075   4.248   6.861   8.940 -0.0015 -0.1599  0.2327
  132MOL   Cl9416076   4.001   6.956   8.818 -0.1215  0.1328  0.0979
  132MOL    C9516077   4.237   7.028   8.706  0.3130  0.3006  0.0423
  132MOL    H9616078   4.214   7.104   8.781 -1.3539 -0.0998 -0.0494
  132MOL    H9716079   4.345   7.015   8.716  0.2930  0.4307  0.4162
  132MOL    C9816080   4.203   7.061   8.561  0.6469 -0.3300  0.6686
  132MOL   Cl9916081   4.031   7.056   8.532 -0.1237 -0.1957  0.1356
  132MOL  Cl10016082   4.266   6.945   8.447 -0.3414  0.3364 -0.0112
  132MOL   C10116083   4.253   7.200   8.515  0.2887 -0.8232  0.0906
  132MOL   H10216084   4.241   7.211   8.408  1.8286 -0.4981 -0.0593
  132MOL   H10316085   4.175   7.270   8.544  2.8116  2.1978 -0.0830
  132MOL   C10416086   4.397   7.254   8.565 -0.1539 -0.3880 -0.5807
  132MOL  Cl10516087   4.512   7.120   8.547  0.2605 -0.1178  0.6588
  132MOL  Cl10616088   4.379   7.294   8.738  0.2525  0.0465 -0.0468
  132MOL   C10716089   4.434   7.379   8.484 -0.4397 -0.1473 -0.3248
  132MOL   H10816090   4.452   7.349   8.381 -0.5119 -0.3198 -0.2874
  132MOL   H10916091   4.345   7.441   8.476  0.7626  1.4650 -1.4590
  132MOL   C11016092   4.554   7.473   8.514  0.4538  0.0283  0.6304
  132MOL  Cl11116093   4.491   7.580   8.644 -0.2566  0.2865 -0.2301
  132MOL  Cl11216094   4.585   7.583   8.374 -0.1703 -0.3327 -0.0184
  132MOL   C11316095   4.683   7.400   8.557 -0.1018 -0.4077  0.3836
  132MOL   H11416096   4.665   7.329   8.638  0.3939 -1.8036 -0.7098
  132MOL   H11516097   4.716   7.333   8.478 -1.0970 -1.5325  0.9007
  132MOL   C11616098   4.807   7.481   8.607  0.4480  0.1312  0.5076
  132MOL  Cl11716099   4.946   7.378   8.595 -0.2115 -0.1309 -0.4931
  132MOL  Cl11816100   4.786   7.553   8.774 -0.0590  0.7007 -0.3720
  132MOL   C11916101   4.840   7.606   8.524  0.5128 -0.2962  0.3274
  132MOL   H12016102   4.864   7.590   8.419 -1.0934  0.8036 -0.2220
  132MOL   H12116103   4.755   7.675   8.526  1.5759  1.0378 -0.0176
  132MOL   H12216104   4.923   7.666   8.562 -0.4078  1.2006  0.0321
  133MOL     C116105   0.146   3.369   6.876  0.5438  0.1834  0.5310
  133MOL    Cl216106   0.236   3.473   6.769  0.2338 -0.0350 -0.1526
  133MOL    Cl316107   0.022   3.282   6.774 -0.1728 -0.2161 -0.0170
  133MOL     C416108   0.245   3.276   6.955 -0.1865 -0.1091 -0.1477
  133MOL     H516109   0.305   3.215   6.887  0.4128  2.5530 -2.0728
  133MOL     H616110   0.322   3.343   6.992 -0.9445  1.6865 -1.7121
  133MOL     H716111   0.092   3.436   6.944 -0.4090  0.8165 -0.8215
  133MOL     C816112   0.194   3.191   7.070  1.2372 -0.6058 -0.4917
  133MOL    Cl916113   0.078   3.067   7.029 -0.3990  0.2895 -0.0091
  133MOL   Cl1016114   0.109   3.306   7.186  0.0711  0.1417 -0.2535
  133MOL    C1116115   0.303   3.129   7.163  0.5460  0.2722  0.2249
  133MOL    H1216116   0.360   3.215   7.199  2.2881  0.1978 -2.1866
  133MOL    H1316117   0.248   3.079   7.242  0.5574 -1.2315 -0.7074
  133MOL    C1416118   0.418   3.037   7.101  0.0529  1.1295  0.0591
  133MOL   Cl1516119   0.515   3.125   6.976 -0.2668 -0.0834 -0.1290
  133MOL   Cl1616120   0.358   2.885   7.028  0.2381  0.0872  0.5979
  133MOL    C1716121   0.521   2.996   7.209  0.8276 -0.1071 -0.0865
  133MOL    H1816122   0.586   2.919   7.167  0.8093  1.1307 -2.4782
  133MOL    H1916123   0.590   3.080   7.220  1.3700 -0.6760  0.9230
  133MOL    C2016124   0.482   2.969   7.354 -0.3914  0.0685 -0.1719
  133MOL   Cl2116125   0.355   2.850   7.368  0.1308 -0.1749 -0.1456
  133MOL   Cl2216126   0.415   3.117   7.441 -0.2030  0.4223 -0.2983
  133MOL    C2316127   0.597   2.927   7.446  0.4483  0.1886  0.2060
  133MOL    H2416128   0.665   3.011   7.456  0.0826  0.5035  0.0439
  133MOL    H2516129   0.561   2.912   7.547 -0.5055 -0.7706 -0.2720
  133MOL    C2616130   0.700   2.812   7.421 -0.4412  0.4701  0.5523
  133MOL   Cl2716131   0.797   2.801   7.572  0.1078  0.0070  0.2547
  133MOL   Cl2816132   0.808   2.864   7.286 -0.2550  0.0735  0.0647
  133MOL    C2916133   0.638   2.673   7.389 -0.0186 -0.4961  0.3591
  133MOL    H3016134   0.566   2.646   7.467 -1.7534 -2.7861 -1.9652
  133MOL    H3116135   0.589   2.688   7.293  0.1839 -1.1402  0.1472
  133MOL    C3216136   0.725   2.545   7.371  0.0225 -0.5131  0.0772
  133MOL   Cl3316137   0.815   2.505   7.520  0.1671 -0.2456  0.7061
  133MOL   Cl3416138   0.834   2.569   7.239 -0.0241  0.2470 -0.2928
  133MOL    C3516139   0.642   2.421   7.314 -0.0651 -0.0024 -0.1410
  133MOL    H3616140   0.636   2.445   7.208  1.5224  0.2280 -0.1917
  133MOL    H3716141   0.704   2.332   7.319 -1.4031 -0.9548 -0.3576
  133MOL    C3816142   0.503   2.387   7.376 -0.1254 -0.3755  0.1380
  133MOL   Cl3916143   0.379   2.507   7.319 -0.0232  0.1919  0.0327
  133MOL   Cl4016144   0.527   2.398   7.557 -0.3912  0.1910  0.1575
  133MOL    C4116145   0.473   2.240   7.344  1.2890 -0.9143  0.6967
  133MOL    H4216146   0.544   2.173   7.393  2.5790  0.4565  0.7210
  133MOL    H4316147   0.386   2.218   7.406 -0.2347 -1.5547 -1.5922
  133MOL    C4416148   0.452   2.191   7.193 -0.1761  0.4677  0.3242
  133MOL   Cl4516149   0.610   2.194   7.104  0.0607  0.3290 -0.1480
  133MOL   Cl4616150   0.352   2.305   7.096  0.3979  0.3853  0.1080
  133MOL    C4716151   0.383   2.042   7.200 -0.0157  0.3178 -1.1196
  133MOL    H4816152   0.414   1.991   7.290  0.3326 -0.5090 -1.7059
  133MOL    H4916153   0.277   2.068   7.211 -0.6616 -2.5993  0.0630
  133MOL    C5016154   0.403   1.945   7.078  0.0857  0.4441 -0.1467
  133MOL   Cl5116155   0.287   1.819   7.107 -0.0259 -0.0442 -0.0989
  133MOL   Cl5216156   0.567   1.874   7.103  0.0615 -0.2772  0.3096
  133MOL    C5316157   0.397   2.015   6.939  0.1553 -0.1572  0.3030
  133MOL    H5416158   0.309   2.080   6.939  1.7304  2.0506  0.4031
  133MOL    H5516159   0.487   2.072   6.914 -1.0361  0.7977 -1.9885
  133MOL    C5616160   0.397   1.918   6.807 -0.1946  0.1762  0.6717
  133MOL   Cl5716161   0.428   2.027   6.670 -0.2375 -0.3689  0.2005
  133MOL   Cl5816162   0.237   1.853   6.775 -0.1778  0.0583 -0.2794
  133MOL    C5916163   0.514   1.809   6.806  0.6818  0.5037 -0.0775
  133MOL    H6016164   0.609   1.857   6.827  1.0676 -0.2658 -0.0540
  133MOL    H6116165   0.499   1.746   6.894  1.7662 -1.3621 -1.2066
  133MOL    C6216166   0.532   1.708   6.686 -0.1195 -0.2625 -0.5979
  133MOL   Cl6316167   0.393   1.592   6.686 -0.0569  0.3535  0.3042
  133MOL   Cl6416168   0.662   1.599   6.731 -0.0229 -0.3825 -0.0508
  133MOL    C6516169   0.566   1.766   6.546  0.7312  0.1326  0.0580
  133MOL    H6616170   0.480   1.823   6.512  0.8835 -0.8047 -2.0480
  133MOL    H6716171   0.653   1.832   6.555 -0.4465  1.3909  2.5767
  133MOL    C6816172   0.605   1.684   6.422 -0.2317 -0.2411  0.2997
  133MOL   Cl6916173   0.593   1.821   6.300  0.0303  0.4128  0.2073
  133MOL   Cl7016174   0.491   1.554   6.384 -0.4244  0.2340 -0.2645
  133MOL    C7116175   0.746   1.633   6.422 -0.8360 -0.2942 -0.0742
  133MOL    H7216176   0.810   1.720   6.436 -1.8372  0.3958  0.3366
  133MOL    H7316177   0.771   1.573   6.509 -1.6062 -2.1250 -1.0874
  133MOL    C7416178   0.801   1.556   6.298 -0.1854  0.2161  0.4763
  133MOL   Cl7516179   0.779   1.380   6.334  0.4783  0.2478  0.3493
  133MOL   Cl7616180   0.978   1.576   6.301 -0.0088 -0.2453  0.2260
  133MOL    C7716181   0.742   1.601   6.156 -0.5927 -0.2467 -0.1961
  133MOL    H7816182   0.639   1.566   6.160 -0.4651 -0.5621  0.4934
  133MOL    H7916183   0.754   1.708   6.144  1.6753 -0.6966 -2.2186
  133MOL    C8016184   0.809   1.547   6.027  0.0953 -0.0903 -0.2860
  133MOL   Cl8116185   0.704   1.619   5.902  0.2850  0.1789 -0.1922
  133MOL   Cl8216186   0.782   1.368   6.027  0.0370 -0.0660  0.1252
  133MOL    C8316187   0.957   1.580   5.996 -0.1369  0.1197 -0.8789
  133MOL    H8416188   0.994   1.673   6.038 -0.9643 -0.1501  0.4861
  133MOL    H8516189   1.017   1.503   6.043 -0.8541  0.7668  1.1278
  133MOL    C8616190   1.017   1.597   5.849  0.0060  1.0839 -0.3505
  133MOL   Cl8716191   0.961   1.461   5.756  0.4667 -0.3805  0.0248
  133MOL   Cl8816192   1.196   1.574   5.868  0.1164 -0.5483  0.1111
  133MOL    C8916193   0.980   1.731   5.775  0.0473 -0.3419 -0.2464
  133MOL    H9016194   1.029   1.729   5.678 -0.4958  1.2060 -0.5728
  133MOL    H9116195   0.872   1.736   5.757 -0.1266  1.7933  1.2116
  133MOL    C9216196   1.012   1.871   5.830  0.5012 -0.0924  0.0568
  133MOL   Cl9316197   0.928   1.898   5.979  0.1448  0.3364 -0.1603
  133MOL   Cl9416198   0.937   1.993   5.724 -0.2035  0.5135 -0.1040
  133MOL    C9516199   1.166   1.910   5.841  0.3148  0.0430 -0.2669
  133MOL    H9616200   1.222   1.821   5.866 -0.0288  0.2112  1.1062
  133MOL    H9716201   1.203   1.926   5.739 -1.5152  2.2761 -0.6504
  133MOL    C9816202   1.219   2.027   5.925 -0.5137 -0.2208 -0.2362
  133MOL   Cl9916203   1.396   2.019   5.883  0.2083 -0.4750 -0.3633
  133MOL  Cl10016204   1.199   1.980   6.093  0.1547  0.0070  0.2656
  133MOL   C10116205   1.155   2.164   5.890  0.4202 -0.3293 -0.7652
  133MOL   H10216206   1.174   2.184   5.784  0.7151 -2.4552 -1.1439
  133MOL   H10316207   1.047   2.158   5.903  0.4931  1.7508  0.9718
  133MOL   C10416208   1.198   2.302   5.954 -0.2584 -0.5718  0.0887
  133MOL  Cl10516209   1.094   2.422   5.872  0.2099  0.4618  0.3235
  133MOL  Cl10616210   1.364   2.340   5.908  0.0396  0.5151  0.1889
  133MOL   C10716211   1.176   2.308   6.109  0.9739 -0.0667  0.1861
  133MOL   H10816212   1.080   2.258   6.123 -0.2037  1.2212 -2.8889
  133MOL   H10916213   1.255   2.240   6.141  2.4454  1.6225  0.2091
  133MOL   C11016214   1.160   2.442   6.184 -0.1806  0.2981  0.5406
  133MOL  Cl11116215   1.011   2.530   6.135  0.1564 -0.3504  0.1261
  133MOL  Cl11216216   1.291   2.548   6.133 -0.5994  0.0344 -0.0307
  133MOL   C11316217   1.179   2.432   6.335 -0.8896 -0.0975  0.0560
  133MOL   H11416218   1.286   2.426   6.357 -0.6003 -0.0100 -1.3136
  133MOL   H11516219   1.144   2.527   6.377  1.1398  0.6268  0.1750
  133MOL   C11616220   1.110   2.329   6.415 -0.0702  0.7215 -0.1432
  133MOL  Cl11716221   1.141   2.373   6.586  0.4754 -0.0811  0.3141
  133MOL  Cl11816222   1.173   2.163   6.385  0.2078  0.1377  0.1777
  133MOL   C11916223   0.957   2.336   6.402 -0.3618 -0.0422 -0.2067
  133MOL   H12016224   0.915   2.266   6.474 -0.1405 -3.1983 -2.9962
  133MOL   H12116225   0.911   2.432   6.424 -0.5154 -0.2530  0.3945
  133MOL   H12216226   0.935   2.309   6.299 -0.0927 -2.8745  0.4250
  134MOL     C116227   3.857   1.787   2.611  0.0940 -0.0848 -0.0787
  134MOL    Cl216228   3.717   1.764   2.507 -0.0407  0.0331  0.0605
  134MOL    Cl316229   3.924   1.942   2.557  0.0095  0.1847 -0.2107
  134MOL     C416230   3.816   1.800   2.760  0.0780 -0.6360 -0.5086
  134MOL     H516231   3.912   1.792   2.811 -0.6253 -3.2510  0.4961
  134MOL     H616232   3.785   1.903   2.779 -0.7607 -0.7902 -0.9792
  134MOL     H716233   3.928   1.709   2.587  0.8201  0.8187 -0.8966
  134MOL     C816234   3.732   1.696   2.824  0.0744 -0.0815  0.0103
  134MOL    Cl916235   3.782   1.689   3.000 -0.1256 -0.1836  0.0691
  134MOL   Cl1016236   3.764   1.535   2.750  0.1284 -0.0402  0.0857
  134MOL    C1116237   3.577   1.710   2.815 -0.3139  1.0261 -0.4045
  134MOL    H1216238   3.554   1.740   2.713 -1.5047  0.6362 -0.2562
  134MOL    H1316239   3.534   1.610   2.815  0.2855  0.7466  1.8829
  134MOL    C1416240   3.489   1.789   2.921 -0.1182 -0.1394 -0.4139
  134MOL   Cl1516241   3.567   1.946   2.946 -0.0493  0.1645  0.1917
  134MOL   Cl1616242   3.488   1.699   3.073  0.1747 -0.0083  0.1752
  134MOL    C1716243   3.343   1.808   2.870  0.0120 -0.6523 -0.1228
  134MOL    H1816244   3.348   1.860   2.774  2.0639  3.0749  1.8791
  134MOL    H1916245   3.309   1.709   2.841 -0.3730 -1.1246  1.9140
  134MOL    C2016246   3.236   1.875   2.956  0.2130  0.5053  0.2651
  134MOL   Cl2116247   3.285   2.028   3.027 -0.0270  0.5588  0.1740
  134MOL   Cl2216248   3.188   1.762   3.093  0.0820  0.5945  0.0326
  134MOL    C2316249   3.111   1.924   2.871  0.5652  0.2845 -0.5013
  134MOL    H2416250   3.054   1.991   2.936  1.3861  1.9318 -1.4612
  134MOL    H2516251   3.158   1.972   2.785  1.3703 -1.6942 -1.1791
  134MOL    C2616252   3.008   1.814   2.811 -0.5868 -0.7438  1.0703
  134MOL   Cl2716253   3.084   1.684   2.710 -0.0578  0.0299 -0.3147
  134MOL   Cl2816254   2.917   1.919   2.705 -0.6888 -0.1960 -0.4628
  134MOL    C2916255   2.928   1.751   2.926  0.3148 -0.3611  0.1213
  134MOL    H3016256   2.998   1.673   2.956 -0.8420 -0.9480  1.3207
  134MOL    H3116257   2.928   1.826   3.006  0.8460  1.0783 -1.2035
  134MOL    C3216258   2.787   1.705   2.909  0.1004 -0.6209 -0.3270
  134MOL   Cl3316259   2.775   1.628   2.747  0.1202  0.3070  0.5446
  134MOL   Cl3416260   2.682   1.841   2.918  0.2819  0.0888 -0.1066
  134MOL    C3516261   2.744   1.598   3.008 -0.2246  0.8165  0.4007
  134MOL    H3616262   2.639   1.582   2.982  0.1191  0.1891 -0.6336
  134MOL    H3716263   2.794   1.505   2.983  0.2521  1.0422  0.5134
  134MOL    C3816264   2.748   1.614   3.169 -0.4379  0.7682  0.2243
  134MOL   Cl3916265   2.917   1.610   3.228 -0.0133  0.4685  0.6174
  134MOL   Cl4016266   2.653   1.471   3.234 -0.2144 -0.0390 -0.1785
  134MOL    C4116267   2.678   1.746   3.205 -0.2801 -0.6775  0.2179
  134MOL    H4216268   2.748   1.827   3.184  0.9659 -2.3988 -2.4650
  134MOL    H4316269   2.587   1.766   3.150  0.2856 -1.0505 -0.8653
  134MOL    C4416270   2.653   1.783   3.355  0.2943 -0.0753  0.1010
  134MOL   Cl4516271   2.512   1.687   3.420  0.0567  0.0280 -0.1293
  134MOL   Cl4616272   2.602   1.961   3.356 -0.1400  0.4317 -0.0308
  134MOL    C4716273   2.773   1.754   3.447  0.0119  0.4271  0.3068
  134MOL    H4816274   2.793   1.647   3.455  2.7009  0.5524 -3.1504
  134MOL    H4916275   2.864   1.801   3.408  2.5103 -2.5690  2.2791
  134MOL    C5016276   2.769   1.798   3.597 -0.3863 -0.2430 -0.1130
  134MOL   Cl5116277   2.937   1.772   3.649 -0.4628 -0.3487 -0.3122
  134MOL   Cl5216278   2.682   1.672   3.683 -0.0079  0.3860  0.1631
  134MOL    C5316279   2.710   1.938   3.645 -0.2029  0.3374  0.5285
  134MOL    H5416280   2.612   1.964   3.607 -0.5531 -1.1116  0.4079
  134MOL    H5516281   2.691   1.935   3.753  1.2232  1.2255  0.8349
  134MOL    C5616282   2.799   2.065   3.633 -0.0841  0.0422  0.1629
  134MOL   Cl5716283   2.887   2.076   3.479 -0.2468  0.4516 -0.1681
  134MOL   Cl5816284   2.920   2.086   3.764 -0.2579  0.0965  0.5943
  134MOL    C5916285   2.720   2.199   3.635  0.8116  0.2284 -0.0487
  134MOL    H6016286   2.790   2.282   3.622  1.1894 -0.0030  0.5254
  134MOL    H6116287   2.661   2.198   3.542 -0.6275  0.9194  0.8371
  134MOL    C6216288   2.617   2.229   3.743 -0.2186  0.0746 -0.2370
  134MOL   Cl6316289   2.464   2.141   3.712  0.1902  0.9150  0.3317
  134MOL   Cl6416290   2.575   2.403   3.710 -0.4122  0.2486 -0.0127
  134MOL    C6516291   2.666   2.212   3.892 -0.2621 -0.8777 -0.1852
  134MOL    H6616292   2.716   2.115   3.903 -0.9775 -1.1856  0.3990
  134MOL    H6716293   2.749   2.282   3.901 -0.3749 -0.5275 -1.7047
  134MOL    C6816294   2.567   2.219   4.014  0.3985  0.6110 -0.1756
  134MOL   Cl6916295   2.486   2.059   4.011  0.2349 -0.3300 -0.1559
  134MOL   Cl7016296   2.451   2.337   3.991  0.3990  0.2815  0.1859
  134MOL    C7116297   2.622   2.243   4.157  0.0505  0.0412 -0.0887
  134MOL    H7216298   2.640   2.351   4.152 -1.0129  0.1657 -1.4904
  134MOL    H7316299   2.544   2.238   4.233  0.7780 -0.5672  0.6250
  134MOL    C7416300   2.752   2.182   4.205 -0.4031 -0.5731 -0.3461
  134MOL   Cl7516301   2.778   2.235   4.372  0.1020 -0.0056  0.0254
  134MOL   Cl7616302   2.890   2.237   4.108 -0.1278  0.1307  0.1835
  134MOL    C7716303   2.756   2.025   4.201 -0.8289 -0.3774  0.1198
  134MOL    H7816304   2.657   1.990   4.234  0.9443 -1.4863  4.5974
  134MOL    H7916305   2.765   2.007   4.094  0.4634  2.0147 -0.1922
  134MOL    C8016306   2.865   1.940   4.279 -0.7202 -0.1102 -0.0757
  134MOL   Cl8116307   2.838   1.941   4.455 -0.0122 -0.2355  0.0389
  134MOL   Cl8216308   3.026   1.994   4.261  0.2790  0.0532 -0.0534
  134MOL    C8316309   2.862   1.791   4.248 -0.0962 -0.1335 -0.2821
  134MOL    H8416310   2.958   1.762   4.290  0.4641  4.4450  1.8879
  134MOL    H8516311   2.781   1.744   4.305  0.2135 -1.2140 -0.7167
  134MOL    C8616312   2.857   1.748   4.097  0.2974 -0.4301  0.0218
  134MOL   Cl8716313   2.976   1.840   4.001  0.1002 -0.3503 -0.1473
  134MOL   Cl8816314   2.694   1.766   4.016  0.1494 -0.1646  0.2818
  134MOL    C8916315   2.900   1.600   4.066  0.3248  0.1834  0.4233
  134MOL    H9016316   2.903   1.588   3.958  0.9930  0.3736  0.4182
  134MOL    H9116317   3.006   1.594   4.091  1.1099  1.5262 -2.3186
  134MOL    C9216318   2.819   1.467   4.099  0.0684 -0.3528  0.0878
  134MOL   Cl9316319   2.690   1.445   3.979  0.1900 -0.0974  0.3360
  134MOL   Cl9416320   2.754   1.471   4.266  0.2421 -0.3261 -0.0796
  134MOL    C9516321   2.914   1.338   4.092  0.0359 -0.7517 -0.4191
  134MOL    H9616322   2.985   1.348   4.010  1.4853  0.0183  0.8972
  134MOL    H9716323   2.988   1.353   4.171  0.6495  1.4343 -1.3912
  134MOL    C9816324   2.867   1.184   4.093  0.4353  0.2458 -0.0353
  134MOL   Cl9916325   2.780   1.157   4.254 -0.0499  0.0896 -0.0932
  134MOL  Cl10016326   3.020   1.084   4.096 -0.5291 -0.1084  0.0910
  134MOL   C10116327   2.774   1.134   3.977  0.2943  0.1415 -0.9620
  134MOL   H10216328   2.750   1.031   4.003  4.2861 -0.3975  0.9531
  134MOL   H10316329   2.680   1.186   3.991  0.5969  0.7466 -1.1696
  134MOL   C10416330   2.815   1.126   3.830 -0.5420 -0.0958 -0.1254
  134MOL  Cl10516331   2.913   0.970   3.813 -0.1854 -0.0917 -0.3688
  134MOL  Cl10616332   2.923   1.267   3.786 -0.3398 -0.1640 -0.1253
  134MOL   C10716333   2.681   1.116   3.742 -0.3702  0.5985 -0.2350
  134MOL   H10816334   2.634   1.020   3.762  1.5879 -0.2666  0.3720
  134MOL   H10916335   2.610   1.192   3.775 -0.0621  0.6534  0.3050
  134MOL   C11016336   2.691   1.141   3.586 -0.3716  0.2293  0.6097
  134MOL  Cl11116337   2.684   1.313   3.555  0.0780  0.0227 -0.1433
  134MOL  Cl11216338   2.537   1.075   3.521 -0.0854  0.0780  0.4689
  134MOL   C11316339   2.803   1.057   3.512 -0.0422 -0.1739  0.1051
  134MOL   H11416340   2.895   1.083   3.564  1.0555  0.1842 -1.9519
  134MOL   H11516341   2.784   0.951   3.529  1.0795  0.0032  2.7204
  134MOL   C11616342   2.841   1.093   3.365  0.4240 -0.5124 -0.2273
  134MOL  Cl11716343   2.967   0.974   3.306  0.3868  0.0893 -0.4567
  134MOL  Cl11816344   2.917   1.253   3.358 -0.1019 -0.3451 -0.1943
  134MOL   C11916345   2.729   1.077   3.262  0.2600  0.1774 -0.4527
  134MOL   H12016346   2.766   1.061   3.161  0.7875 -0.0438 -0.2232
  134MOL   H12116347   2.673   0.985   3.280  0.5264  0.1320  0.1507
  134MOL   H12216348   2.650   1.153   3.264  0.3704  0.2846 -0.1001
  135MOL     C116349   2.542   6.907   3.266 -0.5875 -0.1085  0.4291
  135MOL    Cl216350   2.461   6.784   3.358 -0.2298 -0.1074 -0.1846
  135MOL    Cl316351   2.703   6.869   3.208  0.4294 -0.0448  0.1168
  135MOL     C416352   2.451   6.930   3.146  0.0125 -0.1441  0.0733
  135MOL     H516353   2.443   6.832   3.099 -1.8153 -0.5766  1.1996
  135MOL     H616354   2.347   6.944   3.178  0.6552 -0.7377  2.4983
  135MOL     H716355   2.565   6.985   3.339  1.0886  1.0857 -1.3367
  135MOL     C816356   2.491   7.046   3.047  0.1489  0.1205 -0.4956
  135MOL    Cl916357   2.620   6.985   2.937 -0.1042 -0.1597 -0.3656
  135MOL   Cl1016358   2.535   7.186   3.144 -0.1055  0.3014 -0.0452
  135MOL    C1116359   2.373   7.084   2.954  0.0426  0.0284 -0.6889
  135MOL    H1216360   2.348   6.998   2.892  1.0627 -0.2749 -0.6914
  135MOL    H1316361   2.280   7.085   3.011  0.8597  0.1498  0.6767
  135MOL    C1416362   2.371   7.205   2.849 -0.1859  0.4125  0.2209
  135MOL   Cl1516363   2.196   7.211   2.778 -0.1285 -0.1297 -0.5917
  135MOL   Cl1616364   2.460   7.157   2.704  0.1156  0.1829  0.5422
  135MOL    C1716365   2.420   7.342   2.896 -0.0698  0.5261  0.9159
  135MOL    H1816366   2.525   7.337   2.926  1.2705  0.6036 -3.4188
  135MOL    H1916367   2.434   7.400   2.804 -1.1633  0.0275  0.4249
  135MOL    C2016368   2.340   7.435   2.993 -0.8474  0.0239  0.2457
  135MOL   Cl2116369   2.249   7.344   3.115 -0.2781 -0.3660  0.2108
  135MOL   Cl2216370   2.225   7.536   2.904  0.2740 -0.1079  0.3837
  135MOL    C2316371   2.431   7.522   3.083 -0.6242 -0.0173  0.2723
  135MOL    H2416372   2.365   7.548   3.167 -1.6470 -2.1059  0.1600
  135MOL    H2516373   2.509   7.457   3.123  1.4059  1.4520 -1.2628
  135MOL    C2616374   2.485   7.659   3.045  0.1691 -0.8967 -0.9980
  135MOL   Cl2716375   2.352   7.778   3.054  0.7540  0.2041 -0.3780
  135MOL   Cl2816376   2.557   7.679   2.882 -0.0879  0.0102 -0.1780
  135MOL    C2916377   2.590   7.712   3.150 -0.3028 -0.3297  0.3361
  135MOL    H3016378   2.599   7.818   3.126 -1.4015 -0.3373 -0.1269
  135MOL    H3116379   2.531   7.710   3.242 -1.3401  3.2182 -0.1542
  135MOL    C3216380   2.725   7.645   3.179  1.0432 -0.6257  0.3450
  135MOL   Cl3316381   2.686   7.504   3.286 -0.1343 -0.0905 -0.2863
  135MOL   Cl3416382   2.822   7.762   3.289 -0.1138  0.3156  0.0741
  135MOL    C3516383   2.805   7.580   3.054 -0.1630  0.3968  0.0523
  135MOL    H3616384   2.739   7.500   3.021 -4.0807  3.4804  0.1860
  135MOL    H3716385   2.809   7.644   2.966  1.3762 -0.7326 -0.7332
  135MOL    C3816386   2.952   7.538   3.069  0.9079 -0.0996 -0.0842
  135MOL   Cl3916387   2.982   7.442   3.221 -0.4244  0.0392 -0.0491
  135MOL   Cl4016388   3.051   7.684   3.080 -0.2150 -0.0001  0.0544
  135MOL    C4116389   3.012   7.459   2.957  0.2539  0.0970 -0.1853
  135MOL    H4216390   3.034   7.526   2.874  2.4889 -1.6889 -1.0804
  135MOL    H4316391   3.112   7.430   2.988  0.3612 -2.2306 -2.5630
  135MOL    C4416392   2.944   7.334   2.890  0.1580 -0.5441  0.0475
  135MOL   Cl4516393   2.795   7.373   2.798 -0.2460  0.0233 -0.1989
  135MOL   Cl4616394   2.898   7.208   3.010  0.6288 -0.3218 -0.2606
  135MOL    C4716395   3.038   7.260   2.788 -0.0737  0.2869  0.0024
  135MOL    H4816396   3.104   7.195   2.846 -2.3585 -1.0567  1.1755
  135MOL    H4916397   2.969   7.200   2.728  1.6915 -1.9008  0.0837
  135MOL    C5016398   3.124   7.334   2.680 -1.0424  0.1601  0.2467
  135MOL   Cl5116399   3.253   7.415   2.762 -0.3694 -0.3491 -0.0561
  135MOL   Cl5216400   3.014   7.448   2.591 -0.0496  0.2589 -0.4051
  135MOL    C5316401   3.191   7.239   2.574 -0.1970 -0.4751  0.6494
  135MOL    H5416402   3.112   7.177   2.530 -1.1601  0.8510  0.4764
  135MOL    H5516403   3.225   7.297   2.488 -1.1533  0.9081  1.2060
  135MOL    C5616404   3.320   7.151   2.612  1.0059 -0.8498  0.5112
  135MOL   Cl5716405   3.321   7.022   2.490 -0.1037  0.3984 -0.1796
  135MOL   Cl5816406   3.299   7.067   2.764  0.0266 -0.2534 -0.0601
  135MOL    C5916407   3.451   7.233   2.607  0.5541 -0.4523 -0.4162
  135MOL    H6016408   3.420   7.319   2.549  0.2044 -1.1729 -1.3171
  135MOL    H6116409   3.465   7.270   2.708  0.9482  0.5465 -0.8360
  135MOL    C6216410   3.591   7.172   2.559 -0.2395  0.4181 -0.1531
  135MOL   Cl6316411   3.717   7.297   2.600  0.3616 -0.1211  0.0929
  135MOL   Cl6416412   3.582   7.158   2.379  0.2385  0.2059  0.2178
  135MOL    C6516413   3.635   7.033   2.620 -0.0024 -0.0767  0.3830
  135MOL    H6616414   3.551   6.967   2.601  0.2781 -0.1808 -0.5243
  135MOL    H6716415   3.720   6.999   2.560  0.8876  2.0977  0.3649
  135MOL    C6816416   3.669   7.003   2.771 -0.0312 -0.1502 -0.3613
  135MOL   Cl6916417   3.584   7.109   2.886 -0.0106  0.1953 -0.2737
  135MOL   Cl7016418   3.841   7.042   2.792 -0.1176  0.3150 -0.3481
  135MOL    C7116419   3.646   6.857   2.817  0.3089  0.4758 -0.6705
  135MOL    H7216420   3.687   6.855   2.917  1.3428 -1.4392 -1.0977
  135MOL    H7316421   3.538   6.847   2.832  0.7208 -1.1901  1.3300
  135MOL    C7416422   3.683   6.733   2.726  0.2966 -0.1895  0.5452
  135MOL   Cl7516423   3.853   6.746   2.674 -0.4662 -0.2498  0.1524
  135MOL   Cl7616424   3.600   6.731   2.569  0.2790  0.0394 -0.0285
  135MOL    C7716425   3.654   6.595   2.781 -0.2554  0.2194 -0.6390
  135MOL    H7816426   3.547   6.596   2.801 -0.3174  1.6398 -1.0580
  135MOL    H7916427   3.679   6.524   2.702 -0.9340  1.5000 -2.0305
  135MOL    C8016428   3.706   6.540   2.917 -0.3219  0.1543  0.3510
  135MOL   Cl8116429   3.668   6.640   3.057  0.0094  0.0930 -0.4211
  135MOL   Cl8216430   3.886   6.543   2.927  0.1503  0.0869  0.1896
  135MOL    C8316431   3.647   6.402   2.950 -0.1490 -0.5597  0.1882
  135MOL    H8416432   3.712   6.357   3.024 -0.3777 -0.3135  0.5388
  135MOL    H8516433   3.559   6.415   3.013 -0.1702  0.2546 -0.0022
  135MOL    C8616434   3.614   6.290   2.849 -0.4471  0.0800 -0.3501
  135MOL   Cl8716435   3.756   6.269   2.739  0.0517  0.0175 -0.3282
  135MOL   Cl8816436   3.475   6.336   2.752  0.4172 -0.0114 -0.0731
  135MOL    C8916437   3.569   6.165   2.935 -0.0901 -0.3035  0.4965
  135MOL    H9016438   3.625   6.151   3.028 -0.6843  0.6610  1.0117
  135MOL    H9116439   3.469   6.187   2.972 -0.9938 -0.9210 -1.5252
  135MOL    C9216440   3.552   6.025   2.868  0.0008  0.0553 -0.0855
  135MOL   Cl9316441   3.481   5.912   2.987  0.0264  0.3382 -0.2815
  135MOL   Cl9416442   3.714   5.964   2.834  0.3946  0.0125  0.0701
  135MOL    C9516443   3.473   6.030   2.730  0.3499  0.3896  0.9103
  135MOL    H9616444   3.380   6.085   2.744  0.3651  0.8485 -0.7636
  135MOL    H9716445   3.529   6.103   2.673 -1.7637  1.5607  0.2992
  135MOL    C9816446   3.429   5.913   2.636 -0.4643  0.3952  0.5776
  135MOL   Cl9916447   3.368   5.983   2.486  0.2345  0.2588  0.0924
  135MOL  Cl10016448   3.295   5.831   2.725 -0.1611  0.1111  0.2022
  135MOL   C10116449   3.547   5.811   2.606 -0.4598  0.0310  0.2068
  135MOL   H10216450   3.628   5.857   2.550 -0.6585  0.0443 -0.0710
  135MOL   H10316451   3.588   5.789   2.705  2.2538  1.9379 -0.4434
  135MOL   C10416452   3.531   5.673   2.533  0.4041 -0.1640  0.0614
  135MOL  Cl10516453   3.442   5.689   2.382 -0.2651  0.0356  0.3557
  135MOL  Cl10616454   3.459   5.558   2.641 -0.3091  0.2895 -0.1022
  135MOL   C10716455   3.667   5.615   2.487  0.4132  0.4822 -0.4969
  135MOL   H10816456   3.651   5.520   2.435 -1.1455  1.2940 -1.5162
  135MOL   H10916457   3.699   5.680   2.406  1.2821 -0.0376 -0.5814
  135MOL   C11016458   3.790   5.603   2.584  0.2519 -0.1759  1.0311
  135MOL  Cl11116459   3.752   5.509   2.736  0.0620 -0.3818  0.1860
  135MOL  Cl11216460   3.866   5.756   2.635  0.0393  0.1449  0.0033
  135MOL   C11316461   3.906   5.526   2.522  0.4699 -0.0587 -0.0341
  135MOL   H11416462   3.989   5.532   2.593  1.6478 -0.3975 -1.3492
  135MOL   H11516463   3.885   5.419   2.526  2.2568 -0.3983  1.5156
  135MOL   C11616464   3.960   5.565   2.385 -0.4010  0.5138  0.4083
  135MOL  Cl11716465   3.954   5.735   2.346  0.5290 -0.0024  0.2306
  135MOL  Cl11816466   3.853   5.473   2.269 -0.0426  0.1546 -0.3282
  135MOL   C11916467   4.107   5.526   2.368  0.2043 -0.2405  0.1239
  135MOL   H12016468   4.142   5.546   2.267 -0.2027 -0.1541 -0.0036
  135MOL   H12116469   4.175   5.574   2.439  0.0827  0.6060 -0.3175
  135MOL   H12216470   4.116   5.418   2.379  0.6404 -0.1428  0.7914
  136MOL     C116471   8.391   2.476   6.729  0.1379  0.1582  0.1275
  136MOL    Cl216472   8.385   2.651   6.763  0.1339 -0.1685  0.0281
  136MOL    Cl316473   8.273   2.399   6.839 -0.0814 -0.5491 -0.2932
  136MOL     C416474   8.364   2.448   6.582 -0.1663 -0.4013 -0.3139
  136MOL     H516475   8.260   2.424   6.560  0.0076  1.2535 -3.1408
  136MOL     H616476   8.373   2.538   6.521  2.2635  0.0752  0.6845
  136MOL     H716477   8.492   2.452   6.764  0.8665  2.8225 -0.0699
  136MOL     C816478   8.445   2.324   6.518  0.5377  0.0963 -0.3811
  136MOL    Cl916479   8.392   2.173   6.608  0.3664  0.3566 -0.0090
  136MOL   Cl1016480   8.621   2.361   6.542 -0.0642 -0.1286  0.2482
  136MOL    C1116481   8.436   2.297   6.358 -0.5181 -0.4128  0.1960
  136MOL    H1216482   8.503   2.366   6.305 -0.0418 -1.4735 -0.6046
  136MOL    H1316483   8.477   2.199   6.334  0.3909 -0.6059  2.4496
  136MOL    C1416484   8.303   2.309   6.289  0.2461  0.2420  0.1990
  136MOL   Cl1516485   8.254   2.478   6.302 -0.2642  0.0281  0.6928
  136MOL   Cl1616486   8.179   2.205   6.362 -0.3520 -0.5029  0.2733
  136MOL    C1716487   8.315   2.276   6.137 -0.0191 -0.6219  0.3058
  136MOL    H1816488   8.401   2.331   6.100  0.3529 -1.4614 -0.0724
  136MOL    H1916489   8.337   2.170   6.136  0.4622 -0.5197 -0.3721
  136MOL    C2016490   8.203   2.298   6.034 -0.1302 -0.1962  0.5905
  136MOL   Cl2116491   8.251   2.199   5.884 -0.0408 -0.3081 -0.2439
  136MOL   Cl2216492   8.198   2.471   5.988  0.1316 -0.5796  0.3505
  136MOL    C2316493   8.062   2.252   6.084  0.2093  0.5415  0.0546
  136MOL    H2416494   8.078   2.150   6.121  1.2778  1.0841  1.1346
  136MOL    H2516495   8.036   2.317   6.167  0.8744 -0.8277  1.3562
  136MOL    C2616496   7.936   2.238   5.999  0.2442 -0.2073  0.4677
  136MOL   Cl2716497   7.805   2.212   6.120  0.4567 -0.1342  0.4892
  136MOL   Cl2816498   7.944   2.079   5.905  0.3427  0.2764 -0.0108
  136MOL    C2916499   7.904   2.361   5.917 -0.8823  0.1561  0.2497
  136MOL    H3016500   7.911   2.450   5.979  1.7298 -1.0464  1.8088
  136MOL    H3116501   7.993   2.381   5.857 -1.0234  0.3767  0.1184
  136MOL    C3216502   7.781   2.383   5.817  0.0830  0.1942 -0.1548
  136MOL   Cl3316503   7.811   2.281   5.679  0.2996 -0.0205 -0.4601
  136MOL   Cl3416504   7.778   2.556   5.763  0.5263  0.3348  0.0169
  136MOL    C3516505   7.645   2.346   5.874 -0.3933  0.1003  0.7433
  136MOL    H3616506   7.566   2.321   5.803 -0.5967  1.2712  0.5438
  136MOL    H3716507   7.652   2.249   5.922  1.4158 -0.0566  0.1814
  136MOL    C3816508   7.573   2.447   5.966 -0.1991  0.2357  0.0848
  136MOL   Cl3916509   7.692   2.527   6.076 -0.2344  0.0194 -0.2175
  136MOL   Cl4016510   7.467   2.354   6.076 -0.0094  0.0837 -0.2506
  136MOL    C4116511   7.484   2.557   5.910  0.2360 -0.1481 -0.4611
  136MOL    H4216512   7.429   2.609   5.988  2.0063 -0.3493  0.9452
  136MOL    H4316513   7.559   2.629   5.878 -0.1853  1.2643  1.6825
  136MOL    C4416514   7.379   2.540   5.794 -0.5772  0.0721 -0.3796
  136MOL   Cl4516515   7.269   2.404   5.831  0.3252 -0.3293 -0.4579
  136MOL   Cl4616516   7.462   2.494   5.644  0.0145  0.3410 -0.5840
  136MOL    C4716517   7.282   2.653   5.775 -0.1637 -0.1670  0.4258
  136MOL    H4816518   7.208   2.618   5.702 -0.0067 -0.0248  0.2004
  136MOL    H4916519   7.230   2.661   5.871 -1.2463  0.2073 -0.1757
  136MOL    C5016520   7.327   2.785   5.709 -0.3409 -0.0187 -0.3933
  136MOL   Cl5116521   7.453   2.865   5.802  0.0174 -0.3739  0.1484
  136MOL   Cl5216522   7.185   2.891   5.726 -0.2332 -0.1931 -0.0165
  136MOL    C5316523   7.377   2.796   5.555 -0.2102 -0.4215 -0.3200
  136MOL    H5416524   7.407   2.901   5.544  0.5931 -0.3021  2.5312
  136MOL    H5516525   7.471   2.741   5.563  0.5221  1.0452  1.6536
  136MOL    C5616526   7.290   2.742   5.439 -0.1978  0.5961 -0.8472
  136MOL   Cl5716527   7.148   2.840   5.423  0.2138 -0.3044  0.2420
  136MOL   Cl5816528   7.230   2.571   5.454 -0.0161 -0.3198 -0.0704
  136MOL    C5916529   7.361   2.760   5.302  0.3671 -0.1570 -0.0544
  136MOL    H6016530   7.297   2.721   5.223 -0.5830 -0.7234  0.9899
  136MOL    H6116531   7.371   2.868   5.290  1.8851 -0.3771 -1.0092
  136MOL    C6216532   7.502   2.693   5.268 -0.3138  0.0453  0.8496
  136MOL   Cl6316533   7.498   2.515   5.281 -0.0466  0.2206  0.2859
  136MOL   Cl6416534   7.636   2.752   5.366 -0.2680  0.0496 -0.0338
  136MOL    C6516535   7.543   2.722   5.115  0.5938  0.7051 -0.0771
  136MOL    H6616536   7.646   2.686   5.106 -0.6058 -3.0696  0.2239
  136MOL    H6716537   7.486   2.661   5.045  0.9666  2.4939 -1.9927
  136MOL    C6816538   7.534   2.862   5.054  1.0688 -0.1912 -0.1440
  136MOL   Cl6916539   7.572   2.990   5.174 -0.1292  0.0262 -0.0693
  136MOL   Cl7016540   7.364   2.892   5.009 -0.5262  0.0750  0.1368
  136MOL    C7116541   7.612   2.896   4.921 -0.0811 -0.4455  0.4515
  136MOL    H7216542   7.552   2.854   4.840  1.0874 -0.1639 -0.5728
  136MOL    H7316543   7.599   3.004   4.920  2.3008 -0.1486  0.2561
  136MOL    C7416544   7.759   2.863   4.901 -0.7114 -0.1455 -0.3521
  136MOL   Cl7516545   7.795   2.935   4.749  0.2522  0.2544 -0.0368
  136MOL   Cl7616546   7.775   2.680   4.887 -0.0037 -0.2501  0.3457
  136MOL    C7716547   7.850   2.917   5.012 -0.6854  0.1745  0.2737
  136MOL    H7816548   7.811   3.017   5.030  0.2133  1.0696 -2.5186
  136MOL    H7916549   7.820   2.866   5.104 -2.9372 -1.5829 -1.3557
  136MOL    C8016550   8.008   2.922   5.010 -0.6744  0.5717  0.2499
  136MOL   Cl8116551   8.065   2.964   5.171  0.0958  0.1767 -0.0391
  136MOL   Cl8216552   8.057   3.061   4.910  0.1234  0.1107 -0.1671
  136MOL    C8316553   8.072   2.791   4.958 -0.8783  0.3568  0.2515
  136MOL    H8416554   8.011   2.712   5.003 -0.7390 -0.6896 -1.3861
  136MOL    H8516555   8.050   2.784   4.852 -1.8802  0.8453  0.4147
  136MOL    C8616556   8.215   2.736   4.984 -0.1166 -0.1437  0.0092
  136MOL   Cl8716557   8.215   2.577   4.893  0.2728  0.1611  0.4075
  136MOL   Cl8816558   8.232   2.699   5.157  0.1835 -0.1836 -0.2330
  136MOL    C8916559   8.324   2.827   4.939 -0.3265 -0.5214  0.2806
  136MOL    H9016560   8.306   2.882   4.846  1.6487  0.5698  0.5238
  136MOL    H9116561   8.326   2.908   5.012  0.2221 -0.6509  0.4087
  136MOL    C9216562   8.469   2.773   4.923  0.1167 -0.7776  0.2366
  136MOL   Cl9316563   8.492   2.721   4.758  0.7225 -0.1729 -0.2033
  136MOL   Cl9416564   8.498   2.636   5.032  0.0186  0.2004  0.7390
  136MOL    C9516565   8.590   2.874   4.939 -0.2573  0.3413 -0.3056
  136MOL    H9616566   8.678   2.812   4.923 -1.1625 -0.8362 -0.8309
  136MOL    H9716567   8.592   2.943   4.855 -0.7113  0.4057 -0.2621
  136MOL    C9816568   8.607   2.960   5.070 -0.0110 -0.7930 -0.6537
  136MOL   Cl9916569   8.516   2.881   5.209 -0.3452 -0.1665  0.4675
  136MOL  Cl10016570   8.527   3.117   5.042 -0.0586 -0.2793 -0.2069
  136MOL   C10116571   8.754   2.974   5.123 -0.0043 -0.3684 -0.0563
  136MOL   H10216572   8.744   3.042   5.207 -0.3182  0.5729 -0.8456
  136MOL   H10316573   8.782   2.882   5.174  3.0584  1.0436  0.9104
  136MOL   C10416574   8.873   3.026   5.034  0.0764  0.2659  0.3674
  136MOL  Cl10516575   8.913   2.899   4.920  0.0181 -0.1679  0.0463
  136MOL  Cl10616576   9.008   3.055   5.143 -0.3558  0.1464  0.0219
  136MOL   C10716577   8.844   3.155   4.940  0.3673  0.5182  0.5484
  136MOL   H10816578   8.776   3.118   4.863  0.5477  2.5930 -0.6207
  136MOL   H10916579   8.783   3.227   4.994  0.4787 -0.0893  1.4949
  136MOL   C11016580   8.949   3.240   4.866  0.0394  0.2715 -0.6381
  136MOL  Cl11116581   9.054   3.321   4.987 -0.0851 -0.2387  0.1061
  136MOL  Cl11216582   8.858   3.363   4.779  0.3589  0.0396  0.5912
  136MOL   C11316583   9.041   3.158   4.766  0.2311 -0.8316 -0.4623
  136MOL   H11416584   9.088   3.095   4.842 -0.0397 -1.0801 -0.4984
  136MOL   H11516585   8.983   3.087   4.707 -0.7868  0.7918 -1.4552
  136MOL   C11616586   9.149   3.231   4.670  0.2583  0.0690 -0.7781
  136MOL  Cl11716587   9.067   3.334   4.556  0.0065  0.4237 -0.2670
  136MOL  Cl11816588   0.060   3.112   4.579  0.0147 -0.3421  0.3528
  136MOL   C11916589   0.060   3.323   4.748 -0.5696 -0.1906 -0.7570
  136MOL   H12016590   0.000   3.412   4.766 -1.9120 -1.5452  1.7216
  136MOL   H12116591   0.085   3.270   4.839  1.5237 -1.1315 -1.8191
  136MOL   H12216592   0.152   3.344   4.693  0.0804  0.5763  0.6085
  137MOL     C116593   4.286   8.949   1.013  0.1638  0.1797  0.2107
  137MOL    Cl216594   4.239   9.092   1.096 -0.1633  0.0176 -0.0131
  137MOL    Cl316595   4.152   8.831   1.047 -0.4314  0.0156 -0.1056
  137MOL     C416596   4.308   8.987   0.865 -0.4723  1.0069 -0.1498
  137MOL     H516597   4.211   9.011   0.821  0.1397  0.0954 -2.0238
  137MOL     H616598   4.369   9.077   0.866  1.3005 -0.1553  1.5208
  137MOL     H716599   4.382   8.909   1.046 -0.3386  0.4343  2.0093
  137MOL     C816600   4.382   8.893   0.776 -0.8406 -0.3800 -0.4928
  137MOL    Cl916601   4.292   8.733   0.760  0.2480  0.1099 -0.0676
  137MOL   Cl1016602   4.536   8.847   0.859 -0.0007 -0.4184 -0.3050
  137MOL    C1116603   4.408   8.943   0.626 -0.1378  0.0287  0.4784
  137MOL    H1216604   4.493   8.884   0.591 -0.5138  0.1429 -0.6636
  137MOL    H1316605   4.318   8.919   0.569 -1.4249 -0.5516  2.6799
  137MOL    C1416606   4.427   9.095   0.595 -0.7099  0.0469 -0.4277
  137MOL   Cl1516607   4.554   9.162   0.695 -0.1146  0.0112  0.4098
  137MOL   Cl1616608   4.285   0.005   0.637 -0.0261 -0.3947 -0.4720
  137MOL    C1716609   4.469   9.130   0.449 -0.2530 -0.0049 -0.2852
  137MOL    H1816610   4.383   9.142   0.383  0.1095  0.0953 -0.7400
  137MOL    H1916611   4.523   0.044   0.449  1.7372 -1.0972 -1.4534
  137MOL    C2016612   4.563   9.037   0.365 -0.1040 -0.5978  0.2800
  137MOL   Cl2116613   4.486   8.896   0.297  0.3551  0.0342 -0.3232
  137MOL   Cl2216614   4.711   8.990   0.454  0.0417 -0.3223  0.1435
  137MOL    C2316615   4.608   9.120   0.237 -0.3782 -0.2494  0.6694
  137MOL    H2416616   4.522   9.112   0.171  0.2001  1.2874 -0.3031
  137MOL    H2516617   4.618   0.045   0.262 -1.1329 -0.2285  0.9315
  137MOL    C2616618   4.737   9.094   0.153  0.5784  0.2124  0.4917
  137MOL   Cl2716619   4.876   9.154   0.243 -0.1392  0.1246 -0.5619
  137MOL   Cl2816620   4.714   0.004   0.011  0.1548  0.3041  0.0246
  137MOL    C2916621   4.757   8.939   0.118 -0.3859 -0.3535  0.2950
  137MOL    H3016622   4.745   8.885   0.212  0.7133 -0.1068  0.5899
  137MOL    H3116623   4.683   8.901   0.048 -1.4651  0.4444  1.0013
  137MOL    C3216624   4.894   8.887   0.067 -0.3786  0.0428  0.2864
  137MOL   Cl3316625   4.881   8.719   0.016  0.0186 -0.0839  0.4431
  137MOL   Cl3416626   4.988   8.853   0.220  0.1045 -0.0654 -0.0909
  137MOL    C3516627   4.972   8.976   9.146 -0.3643 -0.2394 -0.1261
  137MOL    H3616628   4.912   8.999   9.058 -0.5388  1.6106  0.4644
  137MOL    H3716629   4.987   9.074   0.012  2.7665 -1.1179  0.8793
  137MOL    C3816630   5.105   8.930   9.070  0.0111  0.3777  0.1976
  137MOL   Cl3916631   5.058   8.812   8.944  0.1995  0.3675  0.1456
  137MOL   Cl4016632   5.219   8.842   9.173  0.0966  0.0677 -0.1749
  137MOL    C4116633   5.194   9.043   9.021 -0.5676  0.0336  0.3901
  137MOL    H4216634   5.242   9.089   9.107 -0.5679  0.4834  0.1525
  137MOL    H4316635   5.280   9.005   8.967  1.0050  4.3307 -0.3744
  137MOL    C4416636   5.138   9.154   8.924 -0.3091 -0.0491 -0.5164
  137MOL   Cl4516637   5.289   0.057   8.890  0.5117 -0.2128  0.0043
  137MOL   Cl4616638   5.040   0.093   9.009  0.1138  0.0677  0.1302
  137MOL    C4716639   5.069   9.107   8.790 -0.2384 -0.0371  0.0546
  137MOL    H4816640   5.138   9.043   8.735  0.4263  1.6889 -1.1838
  137MOL    H4916641   4.978   9.053   8.816  0.6536 -0.1922  3.0014
  137MOL    C5016642   5.003   0.023   8.693  0.1214 -0.0492 -0.1205
  137MOL   Cl5116643   4.945   9.093   8.566  0.2161 -0.4282 -0.2883
  137MOL   Cl5216644   5.136   0.124   8.620 -0.0915  0.2001  0.3858
  137MOL    C5316645   4.881   0.112   8.741  0.1268  0.1037 -0.2664
  137MOL    H5416646   4.829   0.056   8.819  2.7788 -2.5001 -0.2635
  137MOL    H5516647   4.931   0.187   8.801  0.0604  0.3282 -0.4927
  137MOL    C5616648   4.778   0.167   8.636 -0.4575  0.2395  0.1049
  137MOL   Cl5716649   4.655   0.040   8.597  0.3191 -0.2795 -0.2039
  137MOL   Cl5816650   4.854   0.218   8.483 -0.0341 -0.1436 -0.6330
  137MOL    C5916651   4.698   0.292   8.686  1.0407 -0.2515 -0.2878
  137MOL    H6016652   4.768   0.375   8.687  1.6077 -0.7317  1.5151
  137MOL    H6116653   4.623   0.304   8.608  0.2152  0.3218  0.5894
  137MOL    C6216654   4.613   0.298   8.822 -0.7253 -0.8818 -0.6601
  137MOL   Cl6316655   4.734   0.292   8.959 -0.0793 -0.1079  0.3260
  137MOL   Cl6416656   4.507   0.151   8.850 -0.0233 -0.3051 -0.2675
  137MOL    C6516657   4.531   0.424   8.854  0.6046 -0.0131  0.6056
  137MOL    H6616658   4.456   0.387   8.925  1.9800 -0.6849  1.7203
  137MOL    H6716659   4.589   0.504   8.899  0.4121  0.8724 -0.6743
  137MOL    C6816660   4.445   0.496   8.741  0.2260 -0.3536  0.2230
  137MOL   Cl6916661   4.353   0.372   8.658 -0.0184 -0.1231  0.0662
  137MOL   Cl7016662   4.550   0.567   8.620  0.0178  0.0405  0.3073
  137MOL    C7116663   4.345   0.607   8.796 -0.5006  0.0957  0.7083
  137MOL    H7216664   4.282   0.542   8.858  0.0866 -0.7578  0.4114
  137MOL    H7316665   4.405   0.674   8.857 -0.0431  0.2708  0.0701
  137MOL    C7416666   4.258   0.700   8.708 -0.5999  0.3202  0.3143
  137MOL   Cl7516667   4.363   0.825   8.637  0.2983 -0.0744 -0.1030
  137MOL   Cl7616668   4.147   0.775   8.829 -0.0550  0.1407  0.2079
  137MOL    C7716669   4.173   0.625   8.597  0.0929  0.4234 -0.4272
  137MOL    H7816670   4.242   0.568   8.535 -0.3371 -0.7472  0.1653
  137MOL    H7916671   4.111   0.551   8.647  1.6822 -1.1380 -0.7037
  137MOL    C8016672   4.087   0.697   8.490 -0.0809  0.2890  0.5257
  137MOL   Cl8116673   3.956   0.786   8.569 -0.4146  0.1998  0.2787
  137MOL   Cl8216674   4.003   0.564   8.412  0.0512  0.1042 -0.1871
  137MOL    C8316675   4.170   0.787   8.391 -0.4505 -0.4903  0.1554
  137MOL    H8416676   4.184   0.884   8.438 -2.0792 -0.7835  1.3300
  137MOL    H8516677   4.271   0.753   8.373 -0.3651  0.4271 -1.1284
  137MOL    C8616678   4.122   0.814   8.246  0.7923  0.7767 -0.2027
  137MOL   Cl8716679   4.176   0.678   8.144 -0.5554 -0.2237 -0.0083
  137MOL   Cl8816680   4.227   0.949   8.187  0.3473  0.7200  0.1102
  137MOL    C8916681   3.969   0.847   8.237 -0.1852  0.0829  0.4491
  137MOL    H9016682   3.916   0.768   8.291  2.7750 -1.3090  1.4397
  137MOL    H9116683   3.949   0.939   8.291 -0.7381 -0.4640  1.1936
  137MOL    C9216684   3.902   0.851   8.097 -0.1946  0.3242 -0.5716
  137MOL   Cl9316685   3.742   0.925   8.131  0.0548  0.4116 -0.2427
  137MOL   Cl9416686   3.866   0.686   8.043 -0.1604  0.4022 -0.1490
  137MOL    C9516687   3.982   0.933   7.988  0.1399 -0.1714 -0.1525
  137MOL    H9616688   4.004   1.031   8.031 -0.1891 -0.4427  0.6391
  137MOL    H9716689   4.078   0.883   7.978  0.4452 -0.0036  1.7339
  137MOL    C9816690   3.929   0.957   7.833  0.5297  0.5691  0.2622
  137MOL   Cl9916691   3.957   0.806   7.737  0.2886  0.1973 -0.1310
  137MOL  Cl10016692   4.034   1.075   7.759 -0.4223  0.1245  0.2746
  137MOL   C10116693   3.785   1.002   7.810 -0.5203 -0.6090  0.4818
  137MOL   H10216694   3.725   0.917   7.842 -0.1872 -0.6546  0.9842
  137MOL   H10316695   3.775   1.078   7.887 -0.7253  0.3209 -0.4478
  137MOL   C10416696   3.736   1.066   7.680  0.5372  1.0341  0.8998
  137MOL  Cl10516697   3.790   1.233   7.671  0.1217 -0.0951 -0.1743
  137MOL  Cl10616698   3.561   1.088   7.702  0.0913 -0.1872 -0.1763
  137MOL   C10716699   3.768   0.980   7.562  0.1652 -0.1929  0.1514
  137MOL   H10816700   3.875   0.978   7.547 -0.1408 -2.0171 -1.9959
  137MOL   H10916701   3.744   0.876   7.584 -2.2349 -0.0130 -1.3724
  137MOL   C11016702   3.716   1.016   7.419 -0.0312  0.0812  0.2575
  137MOL  Cl11116703   3.551   0.963   7.403  0.0245 -0.2263  0.4199
  137MOL  Cl11216704   3.807   0.926   7.297 -0.0047  0.5023 -0.0659
  137MOL   C11316705   3.713   1.167   7.372  0.2700 -0.1259 -0.5022
  137MOL   H11416706   3.637   1.223   7.426 -1.0589 -1.9814 -0.3871
  137MOL   H11516707   3.813   1.202   7.398  0.8246 -1.2778 -1.0500
  137MOL   C11616708   3.700   1.215   7.225  0.1687  0.3930  0.0557
  137MOL  Cl11716709   3.849   1.191   7.123 -0.0422 -0.3210 -0.2731
  137MOL  Cl11816710   3.671   1.394   7.238 -0.1823 -0.1710  0.1748
  137MOL   C11916711   3.583   1.162   7.145 -0.0581 -0.0868 -0.0509
  137MOL   H12016712   3.491   1.163   7.204  0.0178 -2.7096  0.2005
  137MOL   H12116713   3.582   1.222   7.054 -0.1781 -0.0858 -0.0482
  137MOL   H12216714   3.591   1.056   7.119 -3.4185 -0.4566  0.1630
  138MOL     C116715   3.759   5.126   8.126  0.5178  0.8834 -0.3830
  138MOL    Cl216716   3.591   5.084   8.071 -0.0275 -0.1485 -0.4262
  138MOL    Cl316717   3.733   5.232   8.260 -0.0323 -0.3748 -0.2030
  138MOL     C416718   3.862   5.011   8.154 -0.6886  0.0349  0.9577
  138MOL     H516719   3.953   5.050   8.199  0.0219  0.0404 -0.4517
  138MOL     H616720   3.819   4.941   8.226 -0.0702 -1.4315 -0.0813
  138MOL     H716721   3.791   5.193   8.046 -1.0826  2.3417  0.1663
  138MOL     C816722   3.912   4.917   8.040 -0.4249 -0.8647 -0.6249
  138MOL    Cl916723   4.044   4.811   8.112  0.2138  0.4280 -0.2332
  138MOL   Cl1016724   3.989   5.016   7.924 -0.1552 -0.2149  0.1284
  138MOL    C1116725   3.804   4.820   7.984  0.5566  0.4120 -0.6478
  138MOL    H1216726   3.800   4.734   8.050  1.7805  1.1635  0.4462
  138MOL    H1316727   3.715   4.883   7.987  1.3189  1.4490  1.4908
  138MOL    C1416728   3.813   4.767   7.842 -0.0107  0.4879 -0.1404
  138MOL   Cl1516729   3.968   4.697   7.831 -0.2922 -0.1485  0.5156
  138MOL   Cl1616730   3.792   4.896   7.715 -0.2575 -0.1710 -0.1761
  138MOL    C1716731   3.718   4.653   7.805  0.1798  0.7172  0.4726
  138MOL    H1816732   3.743   4.627   7.702  1.2224  2.2688  0.3205
  138MOL    H1916733   3.741   4.568   7.870  0.5284 -0.0987 -0.6849
  138MOL    C2016734   3.560   4.648   7.828 -0.2834  0.5418  0.0947
  138MOL   Cl2116735   3.484   4.798   7.775 -0.2581  0.1417 -0.1088
  138MOL   Cl2216736   3.520   4.646   8.008 -0.4042 -0.2799 -0.0286
  138MOL    C2316737   3.479   4.533   7.765 -0.3675 -0.0636  0.3245
  138MOL    H2416738   3.378   4.549   7.805 -1.1489 -0.7584 -1.3253
  138MOL    H2516739   3.480   4.554   7.658 -0.2969 -0.6702  0.2042
  138MOL    C2616740   3.524   4.384   7.794  0.1647 -0.7100 -0.2797
  138MOL   Cl2716741   3.566   4.344   7.961 -0.0831  0.1178 -0.4406
  138MOL   Cl2816742   3.680   4.343   7.709 -0.1773  0.3296  0.2358
  138MOL    C2916743   3.423   4.268   7.749  0.3371 -0.2491  0.7896
  138MOL    H3016744   3.482   4.176   7.743 -0.6557 -1.0169  2.3908
  138MOL    H3116745   3.358   4.251   7.835 -2.5051  3.1379 -0.5967
  138MOL    C3216746   3.335   4.283   7.618  0.2794 -0.3680 -0.5323
  138MOL   Cl3316747   3.417   4.372   7.487 -0.1554 -0.3641  0.2751
  138MOL   Cl3416748   3.199   4.383   7.672  0.1251  0.3095  0.0021
  138MOL    C3516749   3.273   4.155   7.570 -0.1858  0.0085 -0.3276
  138MOL    H3616750   3.287   4.077   7.644 -0.8135  1.0819  0.9401
  138MOL    H3716751   3.164   4.157   7.564 -0.1743  0.9613 -0.3422
  138MOL    C3816752   3.325   4.086   7.437  0.0153  0.5811 -0.2620
  138MOL   Cl3916753   3.267   3.915   7.453  0.2526 -0.2621 -0.2753
  138MOL   Cl4016754   3.504   4.067   7.445 -0.1055 -0.0660  0.2185
  138MOL    C4116755   3.279   4.134   7.299  0.1694 -0.3578  0.7778
  138MOL    H4216756   3.342   4.213   7.259  0.0077 -0.5604  0.1086
  138MOL    H4316757   3.287   4.062   7.217 -0.2493  0.4950 -0.0214
  138MOL    C4416758   3.136   4.190   7.281  0.3982  0.6365 -0.0523
  138MOL   Cl4516759   3.090   4.336   7.371  0.0071  0.1143  0.1163
  138MOL   Cl4616760   3.018   4.066   7.333  0.0947 -0.1592 -0.3277
  138MOL    C4716761   3.108   4.234   7.133  0.1388 -0.4787  0.3250
  138MOL    H4816762   2.999   4.234   7.142  0.0123  1.7095 -0.9770
  138MOL    H4916763   3.138   4.337   7.118  1.1797 -0.8671 -0.3070
  138MOL    C5016764   3.161   4.161   7.005 -0.7671  0.7233 -1.6115
  138MOL   Cl5116765   3.132   3.985   7.028 -0.0895 -0.4194  0.0927
  138MOL   Cl5216766   3.334   4.198   6.991  0.0871  0.1841 -0.2817
  138MOL    C5316767   3.088   4.215   6.874  0.2139 -0.1945  0.9023
  138MOL    H5416768   2.983   4.187   6.883 -0.0867  0.0625 -1.5569
  138MOL    H5516769   3.097   4.324   6.875  0.8459 -0.2067 -1.0775
  138MOL    C5616770   3.108   4.166   6.729  0.2178  0.7735  0.6291
  138MOL   Cl5716771   3.011   4.273   6.614  0.0153  0.0906  0.1040
  138MOL   Cl5816772   3.046   3.994   6.716 -0.3369  0.1948 -0.0683
  138MOL    C5916773   3.256   4.175   6.688 -0.5300  0.6475  0.0592
  138MOL    H6016774   3.285   4.275   6.720  0.6887 -0.1594  1.5317
  138MOL    H6116775   3.311   4.104   6.750 -1.6776 -2.0709 -1.9196
  138MOL    C6216776   3.298   4.150   6.534  0.6474 -0.3855  0.2465
  138MOL   Cl6316777   3.273   4.293   6.432  0.3972  0.2436  0.3234
  138MOL   Cl6416778   3.219   4.011   6.463  0.0339 -0.0833 -0.0861
  138MOL    C6516779   3.447   4.105   6.521  0.1606 -0.3073 -0.5323
  138MOL    H6616780   3.469   4.031   6.598  3.8849  0.8343 -0.3706
  138MOL    H6716781   3.467   4.058   6.425  0.9783 -0.5189 -0.2615
  138MOL    C6816782   3.557   4.211   6.552  0.2923 -0.3244 -0.6317
  138MOL   Cl6916783   3.696   4.101   6.566  0.6611  0.3739 -0.1733
  138MOL   Cl7016784   3.526   4.291   6.705 -0.2830 -0.3708 -0.1050
  138MOL    C7116785   3.586   4.320   6.446 -0.3344  0.1922  0.2131
  138MOL    H7216786   3.572   4.275   6.348  0.1473 -1.2818  0.8108
  138MOL    H7316787   3.505   4.389   6.471 -1.7862 -2.4346  3.0918
  138MOL    C7416788   3.729   4.397   6.440 -0.3117 -0.3743  0.0899
  138MOL   Cl7516789   3.690   4.528   6.331  0.0109  0.0629  0.1600
  138MOL   Cl7616790   3.846   4.287   6.363 -0.3060 -0.1720 -0.0622
  138MOL    C7716791   3.782   4.444   6.585 -0.7246 -0.0496  0.6412
  138MOL    H7816792   3.699   4.493   6.635  0.2332 -0.0119  2.2537
  138MOL    H7916793   3.795   4.351   6.642 -0.6239 -0.9511 -0.8313
  138MOL    C8016794   3.913   4.526   6.603  0.4003 -0.1194  0.2525
  138MOL   Cl8116795   3.892   4.692   6.533  0.1555 -0.0762 -0.0122
  138MOL   Cl8216796   4.046   4.449   6.511  0.0326  0.1378 -0.2196
  138MOL    C8316797   3.957   4.536   6.752  0.5618  1.4203  0.1140
  138MOL    H8416798   4.001   4.438   6.770  0.1369  1.6504  2.6151
  138MOL    H8516799   4.049   4.593   6.761  2.0593 -1.1358  1.5590
  138MOL    C8616800   3.861   4.581   6.871 -1.5409  0.5303 -0.2953
  138MOL   Cl8716801   3.713   4.484   6.879 -0.4141  0.0839 -0.3313
  138MOL   Cl8816802   3.805   4.748   6.863  0.2723  0.1644  0.0036
  138MOL    C8916803   3.940   4.574   7.011 -0.0017  0.0776  0.2141
  138MOL    H9016804   3.996   4.667   7.010 -1.5742  1.0610  0.3758
  138MOL    H9116805   3.862   4.585   7.087 -1.2967  0.7644 -1.1834
  138MOL    C9216806   4.031   4.459   7.048  0.0423 -0.3536 -0.4188
  138MOL   Cl9316807   4.182   4.491   6.958  0.1295  0.6394  0.2067
  138MOL   Cl9416808   3.956   4.314   6.992  0.0183 -0.1533  0.2146
  138MOL    C9516809   4.060   4.461   7.196 -0.3964 -0.4660 -0.4508
  138MOL    H9616810   4.111   4.553   7.221 -2.0998  0.3061  0.3054
  138MOL    H9716811   3.967   4.454   7.252 -0.9343  1.6951 -1.0495
  138MOL    C9816812   4.153   4.355   7.266 -0.8662  0.6005  0.4652
  138MOL   Cl9916813   4.318   4.406   7.234 -0.3793  0.5509  0.1753
  138MOL  Cl10016814   4.138   4.190   7.197  0.3700  0.2718  0.4108
  138MOL   C10116815   4.146   4.342   7.424 -0.3567  0.6063  0.0082
  138MOL   H10216816   4.210   4.259   7.454 -1.3013 -0.8313 -1.9037
  138MOL   H10316817   4.191   4.435   7.460  0.3160  0.4750 -0.4986
  138MOL   C10416818   4.010   4.325   7.492  0.4580 -0.9428 -0.5328
  138MOL  Cl10516819   3.884   4.244   7.397  0.2163 -0.3571 -0.0714
  138MOL  Cl10616820   3.957   4.494   7.548  0.2274 -0.0527 -0.1299
  138MOL   C10716821   4.021   4.229   7.619  0.7192  1.2513 -0.6642
  138MOL   H10816822   3.929   4.178   7.649  0.7094  0.9623 -1.1746
  138MOL   H10916823   4.072   4.145   7.572  1.5571  1.4634 -0.1518
  138MOL   C11016824   4.094   4.265   7.748 -0.3686 -0.9978 -0.0735
  138MOL  Cl11116825   4.244   4.362   7.723  0.6679  0.2621 -0.1204
  138MOL  Cl11216826   4.141   4.110   7.808  0.2633  0.3289  0.6134
  138MOL   C11316827   4.003   4.327   7.859 -0.1776 -0.6310 -0.5650
  138MOL   H11416828   3.967   4.426   7.829  0.1712 -0.6063 -0.8991
  138MOL   H11516829   3.907   4.277   7.848 -1.2990  1.8771 -2.8438
  138MOL   C11616830   4.038   4.346   8.012  0.1075 -1.0354 -0.9138
  138MOL  Cl11716831   4.040   4.198   8.103  0.2547  0.1788 -0.4708
  138MOL  Cl11816832   3.901   4.442   8.080  0.0929 -0.3334 -0.0231
  138MOL   C11916833   4.170   4.417   8.035 -0.1123 -0.3601 -0.0963
  138MOL   H12016834   4.195   4.459   8.132  1.5158 -0.4759 -0.4574
  138MOL   H12116835   4.247   4.342   8.015 -0.0136 -0.8939  2.1470
  138MOL   H12216836   4.183   4.507   7.975 -0.6595 -1.1562 -1.4397
  139MOL     C116837   8.624   6.645   6.483 -0.6275  0.4216 -0.3764
  139MOL    Cl216838   8.709   6.489   6.516  0.3883 -0.5027 -0.3004
  139MOL    Cl316839   8.503   6.668   6.607  0.1876  0.2453 -0.0985
  139MOL     C416840   8.713   6.768   6.495 -0.0700 -1.1833  0.3218
  139MOL     H516841   8.667   6.857   6.538 -2.6090 -1.4407 -1.7320
  139MOL     H616842   8.797   6.742   6.560 -0.7569 -3.1636  0.4412
  139MOL     H716843   8.580   6.646   6.383  1.9216  0.0136 -1.5336
  139MOL     C816844   8.781   6.811   6.357  0.0372  0.2700 -0.5000
  139MOL    Cl916845   8.862   6.670   6.279  0.1759  0.0946  0.2110
  139MOL   Cl1016846   8.917   6.927   6.388 -0.2449 -0.2895  0.1511
  139MOL    C1116847   8.672   6.876   6.268 -0.6146  0.2624 -0.8643
  139MOL    H1216848   8.605   6.796   6.235  1.1629 -2.2034  1.3139
  139MOL    H1316849   8.609   6.945   6.325 -0.5676  0.8622 -1.5290
  139MOL    C1416850   8.701   6.960   6.143 -0.4362 -0.4066  0.2060
  139MOL   Cl1516851   8.762   7.116   6.207  0.3289  0.5100  0.0961
  139MOL   Cl1616852   8.550   6.990   6.056 -0.0957  0.1553  0.1618
  139MOL    C1716853   8.802   6.886   6.048 -0.2159 -0.2525 -0.0225
  139MOL    H1816854   8.894   6.902   6.105 -0.5761 -0.4277  0.6104
  139MOL    H1916855   8.787   6.779   6.054  0.7071 -0.4902 -1.6117
  139MOL    C2016856   8.832   6.915   5.902 -0.0380 -0.1907 -0.5009
  139MOL   Cl2116857   8.859   7.093   5.883 -0.2825  0.0944  0.1896
  139MOL   Cl2216858   8.691   6.856   5.807 -0.0673  0.5185 -0.1725
  139MOL    C2316859   8.957   6.830   5.856  0.5620 -0.4548 -0.2301
  139MOL    H2416860   9.023   6.816   5.941 -0.9482  4.4704  1.9645
  139MOL    H2516861   8.915   6.731   5.838 -0.0405 -0.1294 -0.6820
  139MOL    C2616862   9.039   6.874   5.728 -0.0764 -0.9050 -0.3346
  139MOL   Cl2716863   9.137   6.726   5.687 -0.1111 -0.0992 -0.0858
  139MOL   Cl2816864   9.143   7.008   5.775  0.1448  0.2962 -0.2788
  139MOL    C2916865   8.956   6.921   5.596 -0.6466  0.2511 -0.7339
  139MOL    H3016866   8.900   6.836   5.557  0.1455  0.6139 -2.7145
  139MOL    H3116867   8.871   6.987   5.615 -0.5314  0.2176 -0.1282
  139MOL    C3216868   9.034   6.979   5.471  0.4220  0.7500  0.1040
  139MOL   Cl3316869   9.059   7.153   5.520 -0.1034 -0.2136  0.1978
  139MOL   Cl3416870   8.923   6.989   5.332 -0.4225  0.2378  0.0462
  139MOL    C3516871   9.159   6.898   5.429  0.4689  0.1723 -0.2596
  139MOL    H3616872   0.052   6.921   5.507 -0.9881  0.6486  1.0158
  139MOL    H3716873   9.139   6.793   5.448  0.2065  0.2821  0.0952
  139MOL    C3816874   0.058   6.905   5.293 -0.3046 -0.1625 -0.9029
  139MOL   Cl3916875   9.160   6.809   5.166 -0.0972  0.4490  0.2342
  139MOL   Cl4016876   0.218   6.821   5.323  0.2292  0.0318  0.2064
  139MOL    C4116877   0.089   7.057   5.253 -0.4739 -0.8550 -0.4154
  139MOL    H4216878   0.007   7.124   5.277  0.2612 -0.1628  0.1955
  139MOL    H4316879   0.167   7.099   5.316 -0.0055  2.0483 -2.8116
  139MOL    C4416880   0.143   7.089   5.109  0.7101 -0.2641  0.6178
  139MOL   Cl4516881   0.216   7.256   5.122 -0.0522 -0.6830 -0.0075
  139MOL   Cl4616882   9.170   7.100   5.011  0.2357  0.4961  0.2470
  139MOL    C4716883   0.254   6.987   5.056 -0.3225 -0.2168 -0.4065
  139MOL    H4816884   0.338   6.983   5.126  1.3390  0.8595 -2.3005
  139MOL    H4916885   0.214   6.886   5.061  0.0255 -0.2686  2.5446
  139MOL    C5016886   0.323   7.002   4.908 -0.6903  0.2527 -0.3397
  139MOL   Cl5116887   0.431   7.143   4.910  0.1678 -0.0318 -0.3259
  139MOL   Cl5216888   0.209   7.028   4.777  0.2052  0.2628 -0.1845
  139MOL    C5316889   0.419   6.881   4.867  0.3490 -0.5230 -0.4120
  139MOL    H5416890   0.434   6.906   4.762  1.4568  0.5095 -0.0180
  139MOL    H5516891   0.514   6.902   4.915  0.2705  0.0776 -0.5118
  139MOL    C5616892   0.375   6.739   4.890 -0.3226  0.0303  0.2083
  139MOL   Cl5716893   0.202   6.718   4.849 -0.0588  0.1323 -0.1286
  139MOL   Cl5816894   0.399   6.704   5.059  0.0130  0.4847 -0.2031
  139MOL    C5916895   0.438   6.627   4.794 -0.2943 -0.5656  0.1063
  139MOL    H6016896   0.394   6.532   4.822  0.1789 -0.5327  0.9864
  139MOL    H6116897   0.385   6.634   4.699 -0.7510 -1.8071  0.2626
  139MOL    C6216898   0.587   6.611   4.763  0.4018 -0.4899 -0.2563
  139MOL   Cl6316899   0.616   6.755   4.654  0.1293  0.1948  0.3403
  139MOL   Cl6416900   0.601   6.461   4.668 -0.6179  0.0908 -0.3273
  139MOL    C6516901   0.677   6.590   4.886  0.3247 -0.1450 -0.1553
  139MOL    H6616902   0.658   6.677   4.948  0.6346 -0.3768  0.2722
  139MOL    H6716903   0.634   6.509   4.946  2.7029 -1.7254 -0.5018
  139MOL    C6816904   0.832   6.559   4.878 -0.0483  0.7978  0.1712
  139MOL   Cl6916905   0.865   6.385   4.842 -0.3576 -0.3594 -0.0145
  139MOL   Cl7016906   0.903   6.586   5.047  0.1350  0.1006 -0.5846
  139MOL    C7116907   0.915   6.649   4.777 -0.6603  0.3984 -0.6365
  139MOL    H7216908   0.999   6.598   4.732  0.1362  1.1529 -0.0110
  139MOL    H7316909   0.856   6.645   4.685 -0.9555 -0.9656 -0.4091
  139MOL    C7416910   0.971   6.796   4.820 -0.0804 -0.2217  0.2774
  139MOL   Cl7516911   0.840   6.878   4.915  0.5907  0.3280  0.6146
  139MOL   Cl7616912   0.980   6.888   4.670 -0.1726 -0.5135  0.1755
  139MOL    C7716913   1.102   6.809   4.906  0.2848  0.3536  0.0291
  139MOL    H7816914   1.132   6.914   4.912 -1.3966  0.8372  0.1624
  139MOL    H7916915   1.073   6.777   5.006  1.9666  0.3687  0.5416
  139MOL    C8016916   1.227   6.727   4.869 -0.1549 -0.2795  0.3173
  139MOL   Cl8116917   1.262   6.725   4.696  0.2658 -0.0861  0.0556
  139MOL   Cl8216918   1.207   6.557   4.910  0.0397  0.1603  0.1209
  139MOL    C8316919   1.359   6.769   4.938 -0.0648  0.2283 -0.3211
  139MOL    H8416920   1.422   6.682   4.919 -1.1880 -0.9124  1.0421
  139MOL    H8516921   1.406   6.851   4.884 -0.6099  0.5206 -0.3489
  139MOL    C8616922   1.367   6.819   5.087 -0.4548 -0.4077 -0.0948
  139MOL   Cl8716923   1.290   6.707   5.204  0.1893  0.2363 -0.0818
  139MOL   Cl8816924   1.279   6.976   5.095  0.4496 -0.0143 -0.3815
  139MOL    C8916925   1.510   6.850   5.135  0.3481  0.0146  0.1660
  139MOL    H9016926   1.551   6.941   5.089  1.0179 -0.0659  0.5955
  139MOL    H9116927   1.497   6.870   5.241 -3.4711  0.2733 -0.2974
  139MOL    C9216928   1.634   6.757   5.105  0.2220 -0.0629 -0.4158
  139MOL   Cl9316929   1.683   6.776   4.935  0.5399 -0.4519  0.0704
  139MOL   Cl9416930   1.594   6.588   5.109  0.1089  0.4171 -0.3816
  139MOL    C9516931   1.754   6.795   5.191  0.5651 -0.2324 -0.2307
  139MOL    H9616932   1.842   6.769   5.132  1.6578  1.5515  0.5634
  139MOL    H9716933   1.752   6.903   5.206  1.4241 -0.1101 -0.9535
  139MOL    C9816934   1.779   6.724   5.328  0.2552  0.0581  1.0933
  139MOL   Cl9916935   1.904   6.825   5.401 -0.1660  0.2282 -0.1189
  139MOL  Cl10016936   1.854   6.567   5.302 -0.0427 -0.0801  0.4579
  139MOL   C10116937   1.651   6.719   5.421  0.6449 -0.3904 -0.2241
  139MOL   H10216938   1.636   6.825   5.440  2.2482 -0.2969  0.6177
  139MOL   H10316939   1.568   6.678   5.363  1.2419 -0.7948 -0.8031
  139MOL   C10416940   1.650   6.641   5.555  0.6858 -0.2911 -0.3431
  139MOL  Cl10516941   1.802   6.663   5.651 -0.3797 -0.4532  0.2962
  139MOL  Cl10616942   1.658   6.465   5.530  0.2644  0.1961  0.0274
  139MOL   C10716943   1.529   6.666   5.647 -0.0385 -0.6624  0.2371
  139MOL   H10816944   1.441   6.614   5.611  1.4750 -2.7027 -0.6601
  139MOL   H10916945   1.550   6.625   5.747 -1.7902 -1.7889  0.1578
  139MOL   C11016946   1.484   6.816   5.669  0.6788  0.2114  0.5801
  139MOL  Cl11116947   1.390   6.862   5.523  0.3456  0.0238  0.0245
  139MOL  Cl11216948   1.626   6.921   5.680 -0.0131  0.0511 -0.1649
  139MOL   C11316949   1.406   6.839   5.796  0.2556  0.0162  0.1252
  139MOL   H11416950   1.463   6.813   5.885 -0.5962 -0.8818  0.4306
  139MOL   H11516951   1.377   6.943   5.803  0.2470  0.0726 -0.6951
  139MOL   C11616952   1.282   6.757   5.843  0.2375  0.0327 -0.5996
  139MOL  Cl11716953   1.334   6.592   5.871 -0.0531 -0.0574 -0.0421
  139MOL  Cl11816954   1.145   6.784   5.728 -0.1565 -0.0698 -0.3224
  139MOL   C11916955   1.235   6.812   5.980 -0.6715  0.0793 -0.1335
  139MOL   H12016956   1.150   6.762   6.025  0.9188 -0.6636  2.1232
  139MOL   H12116957   1.323   6.798   6.043 -1.8509 -2.1388  1.0418
  139MOL   H12216958   1.226   6.921   5.985  2.6962  0.3915  0.9163
  140MOL     C116959   1.409   4.915   0.757 -0.2812  0.2626  0.0290
  140MOL    Cl216960   1.428   5.086   0.824  0.2906 -0.4488  0.4167
  140MOL    Cl316961   1.245   4.850   0.789  0.2799 -0.2767  0.0611
  140MOL     C416962   1.444   4.893   0.604  0.1387 -0.3305  0.6997
  140MOL     H516963   1.376   4.818   0.563 -0.7296 -0.7971  2.8987
  140MOL     H616964   1.411   4.981   0.549  2.7049 -0.4906 -1.1416
  140MOL     H716965   1.478   4.854   0.815  0.1220  2.1679  1.6236
  140MOL     C816966   1.592   4.859   0.569 -0.1690  0.8826  0.0550
  140MOL    Cl916967   1.603   4.684   0.611  0.2760 -0.4781  0.1634
  140MOL   Cl1016968   1.693   4.957   0.670 -0.0147 -0.2576  0.1505
  140MOL    C1116969   1.622   4.879   0.417 -0.1610 -0.0532 -0.5679
  140MOL    H1216970   1.565   4.802   0.363  1.2668 -1.4774 -0.1014
  140MOL    H1316971   1.558   4.957   0.377  0.5402  1.8959  2.0561
  140MOL    C1416972   1.768   4.902   0.364 -0.6523  0.4112 -0.8111
  140MOL   Cl1516973   1.823   5.063   0.398 -0.1944  0.2446 -0.3706
  140MOL   Cl1616974   1.740   4.904   0.187  0.1065 -0.1519 -0.1313
  140MOL    C1716975   1.866   4.791   0.410  0.2869 -0.3867 -0.3177
  140MOL    H1816976   1.869   4.782   0.518 -2.3448 -0.7625 -0.2443
  140MOL    H1916977   1.832   4.693   0.377 -2.9137  1.1161 -1.7703
  140MOL    C2016978   2.017   4.811   0.380 -0.0275  0.5921  0.0439
  140MOL   Cl2116979   2.090   4.662   0.440 -0.7200  0.0401 -0.5457
  140MOL   Cl2216980   2.081   4.938   0.492 -0.3254 -0.2475  0.3376
  140MOL    C2316981   2.060   4.846   0.245 -0.4658  0.1103 -0.2080
  140MOL    H2416982   2.000   4.781   0.181  2.2562 -0.4770 -2.2497
  140MOL    H2516983   2.011   4.940   0.218 -2.5525 -0.7059  0.6771
  140MOL    C2616984   2.209   4.829   0.190 -0.4872 -0.2313  0.1285
  140MOL   Cl2716985   2.219   4.919   0.034 -0.5985 -0.2922 -0.2647
  140MOL   Cl2816986   2.239   4.660   0.156  0.1161 -0.0143 -0.0104
  140MOL    C2916987   2.321   4.875   0.288  0.2720 -0.3768 -0.1997
  140MOL    H3016988   2.305   4.975   0.329 -0.7330 -0.8064  0.4896
  140MOL    H3116989   2.313   4.811   0.376 -1.1583  0.1162  0.0412
  140MOL    C3216990   2.470   4.886   0.251  0.4761 -0.2569  0.0624
  140MOL   Cl3316991   2.482   5.032   0.147  0.2308 -0.4575 -0.0816
  140MOL   Cl3416992   2.532   4.757   0.144  0.2835  0.3068  0.2861
  140MOL    C3516993   2.576   4.903   0.366 -0.9291  0.7205 -0.0281
  140MOL    H3616994   2.598   4.811   0.419 -0.5682  2.3749  2.7981
  140MOL    H3716995   2.664   4.918   0.303 -0.8179 -1.8305 -0.5341
  140MOL    C3816996   2.550   5.007   0.483  0.0184  0.0550  0.7218
  140MOL   Cl3916997   2.699   4.999   0.584 -0.1646 -0.0683  0.3095
  140MOL   Cl4016998   2.418   4.941   0.590 -0.1215 -0.0841 -0.3727
  140MOL    C4116999   2.514   5.149   0.432  0.7225 -0.0870  0.4461
  140MOL    H4217000   2.588   5.182   0.360 -0.6407 -0.3061 -1.0733
  140MOL    H4317001   2.428   5.141   0.366  1.4189  2.9219 -0.9433
  140MOL    C4417002   2.477   5.271   0.526 -0.0716 -0.1257  0.2984
  140MOL   Cl4517003   2.316   5.246   0.581 -0.4157  0.5642 -0.2041
  140MOL   Cl4617004   2.472   5.421   0.423  0.1950 -0.3270  0.1812
  140MOL    C4717005   2.577   5.288   0.644 -0.2317 -0.4652 -0.1091
  140MOL    H4817006   2.549   5.208   0.713 -2.2665 -1.0825 -1.6160
  140MOL    H4917007   2.675   5.260   0.605  0.1692  0.0002  0.5458
  140MOL    C5017008   2.596   5.422   0.723 -0.6048  0.3340  0.0811
  140MOL   Cl5117009   2.442   5.503   0.772  0.1604  0.0919 -0.3299
  140MOL   Cl5217010   2.682   5.529   0.626 -0.3962 -0.1318  0.3795
  140MOL    C5317011   2.680   5.384   0.849 -0.1398  0.6010  0.2523
  140MOL    H5417012   2.626   5.300   0.892 -0.3783  1.6551  2.0423
  140MOL    H5517013   2.773   5.339   0.815  0.0093  1.4187 -0.4555
  140MOL    C5617014   2.724   5.478   0.964 -0.5291 -0.0472  0.8753
  140MOL   Cl5717015   2.856   5.393   1.054  0.1962 -0.0105 -0.0782
  140MOL   Cl5817016   2.590   5.497   1.076 -0.2491 -0.1522 -0.0606
  140MOL    C5917017   2.768   5.625   0.919 -0.2159  0.0717 -0.2866
  140MOL    H6017018   2.838   5.608   0.838  0.0634 -2.0629  0.3870
  140MOL    H6117019   2.688   5.686   0.876 -0.5589 -0.8553 -0.9686
  140MOL    C6217020   2.827   5.729   1.011 -0.8591  0.1962  0.3138
  140MOL   Cl6317021   2.831   5.883   0.925 -0.0903 -0.1619 -0.1982
  140MOL   Cl6417022   3.000   5.678   1.021 -0.1766 -0.3515  0.1141
  140MOL    C6517023   2.763   5.743   1.152 -0.5598 -0.0580  0.0585
  140MOL    H6617024   2.660   5.777   1.141 -1.6403 -3.4612 -1.1427
  140MOL    H6717025   2.753   5.649   1.207  5.1333 -0.9884 -0.1601
  140MOL    C6817026   2.824   5.829   1.263 -0.5364  0.4164 -0.1323
  140MOL   Cl6917027   2.707   5.831   1.397  0.1344  0.2604 -0.2141
  140MOL   Cl7017028   2.838   5.997   1.213  0.0475 -0.1486  0.2975
  140MOL    C7117029   2.965   5.784   1.322 -0.0225  0.3540 -0.6772
  140MOL    H7217030   3.037   5.774   1.240  0.9909  0.4036  0.2011
  140MOL    H7317031   3.009   5.868   1.375  0.7892  1.1206 -2.5064
  140MOL    C7417032   2.990   5.661   1.414  0.4858 -0.7015  0.1276
  140MOL   Cl7517033   2.926   5.509   1.344 -0.2040 -0.1206 -0.1774
  140MOL   Cl7617034   2.914   5.687   1.570 -0.4707  0.1137 -0.2047
  140MOL    C7717035   3.147   5.638   1.421 -0.1805 -0.0169 -0.7248
  140MOL    H7817036   3.180   5.611   1.321  0.8079  0.7475 -0.6104
  140MOL    H7917037   3.192   5.734   1.444 -3.6709  0.9617  2.5094
  140MOL    C8017038   3.209   5.540   1.514 -0.8091  0.1378 -0.0686
  140MOL   Cl8117039   3.131   5.377   1.523  0.2075 -0.0392  0.2979
  140MOL   Cl8217040   3.185   5.600   1.680  0.1789 -0.1818  0.1777
  140MOL    C8317041   3.370   5.521   1.493  0.0585  0.5943  0.5904
  140MOL    H8417042   3.409   5.616   1.528  0.2569  0.9201 -0.4876
  140MOL    H8517043   3.403   5.449   1.568  2.5063  2.0361  0.9286
  140MOL    C8617044   3.433   5.481   1.356  0.0640  0.6094 -0.4095
  140MOL   Cl8717045   3.329   5.356   1.284 -0.3632  0.1386 -0.2431
  140MOL   Cl8817046   3.584   5.395   1.395 -0.0107  0.3525  0.4068
  140MOL    C8917047   3.447   5.606   1.253  0.3770  0.6615  0.0998
  140MOL    H9017048   3.351   5.656   1.245  0.2593  0.8718  2.3929
  140MOL    H9117049   3.511   5.675   1.310 -0.6990  2.3067 -0.6423
  140MOL    C9217050   3.479   5.587   1.100 -1.0683 -0.1486 -0.2832
  140MOL   Cl9317051   3.333   5.546   1.020  0.1540 -0.1022  0.0612
  140MOL   Cl9417052   3.595   5.465   1.061  0.2031 -0.4330 -0.3724
  140MOL    C9517053   3.531   5.719   1.032  0.5262  0.2103 -0.1188
  140MOL    H9617054   3.553   5.685   0.931  2.1114  0.1385  0.2384
  140MOL    H9717055   3.447   5.788   1.019  1.7959  1.5090 -1.5677
  140MOL    C9817056   3.646   5.805   1.077  0.3749 -0.1081 -0.2699
  140MOL   Cl9917057   3.740   5.711   1.184 -0.2082 -0.4272  0.5522
  140MOL  Cl10017058   3.596   5.945   1.174 -0.2409  0.0678 -0.0759
  140MOL   C10117059   3.742   5.842   0.959  0.1179  0.3818  0.2275
  140MOL   H10217060   3.833   5.876   1.008  0.3161 -0.2079  0.2599
  140MOL   H10317061   3.771   5.742   0.928  0.6170 -0.2076  2.4506
  140MOL   C10417062   3.713   5.941   0.842  0.2684 -0.1780 -0.0951
  140MOL  Cl10517063   3.568   5.891   0.756 -0.2027  0.0132  0.2290
  140MOL  Cl10617064   3.860   5.926   0.733 -0.1403 -0.4339 -0.3338
  140MOL   C10717065   3.709   6.093   0.896 -0.1405  0.8533 -0.8539
  140MOL   H10817066   3.612   6.115   0.941  0.0077  0.7005 -0.4612
  140MOL   H10917067   3.795   6.101   0.962  0.1725 -1.7189 -0.9000
  140MOL   C11017068   3.713   6.212   0.799  0.4506  0.0306  0.1791
  140MOL  Cl11117069   3.645   6.345   0.894  0.0015 -0.0260  0.1549
  140MOL  Cl11217070   3.602   6.195   0.670 -0.0198 -0.0542 -0.0167
  140MOL   C11317071   3.856   6.249   0.734  0.6324  0.1838  0.2583
  140MOL   H11417072   3.887   6.166   0.671  0.4860  0.1473  0.2329
  140MOL   H11517073   3.826   6.322   0.659  1.5531  1.2848  0.9382
  140MOL   C11617074   3.968   6.306   0.815  0.9054  0.1812  0.9379
  140MOL  Cl11717075   4.100   6.355   0.696 -0.0496  0.3488  0.3343
  140MOL  Cl11817076   4.038   6.186   0.926  0.3388 -0.3351 -0.0135
  140MOL   C11917077   3.944   6.437   0.899 -0.2376 -0.3902 -0.1128
  140MOL   H12017078   3.912   6.522   0.839 -0.5629  0.3764  1.1169
  140MOL   H12117079   3.881   6.419   0.987  2.1110  0.3867  1.7912
  140MOL   H12217080   4.047   6.453   0.933 -0.7889  0.8860  1.0249
  141MOL     C117081   0.923   7.741   7.180 -0.1392  0.1680  0.2416
  141MOL    Cl217082   1.043   7.802   7.287 -0.4792 -0.0558 -0.2160
  141MOL    Cl317083   0.763   7.722   7.264  0.0248  0.3937  0.6269
  141MOL     C417084   0.916   7.839   7.052  0.2735  0.1542 -0.1884
  141MOL     H517085   0.816   7.853   7.010  0.4106  1.3994 -0.1228
  141MOL     H617086   0.941   7.934   7.099  1.4651  0.5482 -1.5878
  141MOL     H717087   0.941   7.638   7.149 -1.8799 -0.2150  0.4571
  141MOL     C817088   1.015   7.809   6.939 -0.2444  0.4812  0.1888
  141MOL    Cl917089   0.960   7.650   6.880  0.1018 -0.0383 -0.0771
  141MOL   Cl1017090   1.185   7.793   7.007 -0.2003  0.0484  0.1816
  141MOL    C1117091   1.016   7.903   6.818  0.4299  0.2658  0.3511
  141MOL    H1217092   1.100   7.871   6.757  1.3632  2.6001  0.3510
  141MOL    H1317093   0.925   7.869   6.771 -0.8474  2.4505  1.1339
  141MOL    C1417094   1.006   8.059   6.838 -0.0613  0.0906 -0.5164
  141MOL   Cl1517095   1.130   8.105   6.964 -0.1064  0.0857 -0.2351
  141MOL   Cl1617096   0.839   8.096   6.895  0.4968  0.0730 -0.1004
  141MOL    C1717097   1.050   8.146   6.715 -0.3279 -0.0011 -0.0124
  141MOL    H1817098   1.001   8.240   6.739 -0.8117 -0.6464  1.5940
  141MOL    H1917099   1.158   8.162   6.718 -0.2754 -0.4421  0.9679
  141MOL    C2017100   1.001   8.116   6.567  0.0212 -0.2164 -0.0425
  141MOL   Cl2117101   0.836   8.061   6.556 -0.0509  0.3080 -0.2071
  141MOL   Cl2217102   1.102   7.983   6.509 -0.5474 -0.3149 -0.3732
  141MOL    C2317103   1.012   8.237   6.463 -0.4704  0.5260 -0.5410
  141MOL    H2417104   1.118   8.239   6.435  0.1117 -0.1202  1.5069
  141MOL    H2517105   0.963   8.206   6.371  2.8720  2.4292 -3.0866
  141MOL    C2617106   0.963   8.383   6.478 -0.7269  0.0639  0.4684
  141MOL   Cl2717107   0.988   8.451   6.322  0.2694  0.1084 -0.2332
  141MOL   Cl2817108   1.078   8.459   6.599 -0.1026  0.1746 -0.3226
  141MOL    C2917109   0.820   8.402   6.519 -0.2958 -0.4321  0.3235
  141MOL    H3017110   0.766   8.344   6.445 -2.7057  2.2639 -0.0907
  141MOL    H3117111   0.801   8.339   6.607 -0.3145 -1.8240 -0.6678
  141MOL    C3217112   0.752   8.540   6.545 -0.7622 -0.9509  0.3495
  141MOL   Cl3317113   0.793   8.601   6.703 -0.1119  0.0800 -0.0361
  141MOL   Cl3417114   0.580   8.492   6.541 -0.1585 -0.0138  0.0073
  141MOL    C3517115   0.762   8.640   6.433 -0.3657  0.2660 -0.2663
  141MOL    H3617116   0.866   8.667   6.447 -0.0182  0.1108 -2.3626
  141MOL    H3717117   0.765   8.596   6.333  1.7999  1.6717 -0.8415
  141MOL    C3817118   0.695   8.778   6.436  0.1386  0.0682  1.2062
  141MOL   Cl3917119   0.520   8.765   6.379  0.0369 -0.0799 -0.0785
  141MOL   Cl4017120   0.780   8.862   6.310 -0.0225 -0.0964  0.0973
  141MOL    C4117121   0.701   8.866   6.565 -0.3563  0.3209 -0.0964
  141MOL    H4217122   0.648   8.819   6.648  1.9334 -1.3686  0.4456
  141MOL    H4317123   0.804   8.868   6.601 -0.5504  0.4046  0.4596
  141MOL    C4417124   0.663   9.018   6.566  0.4234  0.3110 -0.4147
  141MOL   Cl4517125   0.793   9.109   6.479 -0.2417  0.0824 -0.2544
  141MOL   Cl4617126   0.670   9.055   6.742 -0.0274 -0.2266  0.0474
  141MOL    C4717127   0.524   9.052   6.507 -1.0129 -0.8859 -0.3014
  141MOL    H4817128   0.520   9.031   6.400 -2.5810  0.9602 -0.6254
  141MOL    H4917129   0.457   8.973   6.540  0.4542 -1.7522  0.6314
  141MOL    C5017130   0.456   0.002   6.536  1.1971  0.3498 -0.8432
  141MOL   Cl5117131   0.387   9.172   6.705 -0.0763  0.1542 -0.0116
  141MOL   Cl5217132   0.306   0.015   6.429 -0.3160 -0.1300  0.3810
  141MOL    C5317133   0.541   0.130   6.521  0.1748 -0.4250  0.0901
  141MOL    H5417134   0.602   0.138   6.611 -1.4672  1.1532  1.1009
  141MOL    H5517135   0.614   0.110   6.442  0.0037  0.6664 -0.3646
  141MOL    C5617136   0.490   0.267   6.482  0.0375  0.9217 -0.1935
  141MOL   Cl5717137   0.352   0.315   6.581  0.3769  0.1115 -0.2782
  141MOL   Cl5817138   0.420   0.276   6.318 -0.1192  0.2971 -0.1447
  141MOL    C5917139   0.601   0.375   6.493  0.0588 -0.0699 -1.0633
  141MOL    H6017140   0.652   0.357   6.588 -0.0207  0.3833 -0.9351
  141MOL    H6117141   0.659   0.351   6.404  2.1540  3.7201 -0.8388
  141MOL    C6217142   0.582   0.529   6.491 -0.2750 -0.0176  0.2733
  141MOL   Cl6317143   0.488   0.581   6.349  0.5957 -0.4145 -0.2042
  141MOL   Cl6417144   0.747   0.581   6.465  0.2292 -0.2787 -0.3083
  141MOL    C6517145   0.529   0.584   6.631 -0.2893 -0.4602 -0.0394
  141MOL    H6617146   0.437   0.536   6.664  0.0366 -1.3274 -0.3569
  141MOL    H6717147   0.614   0.552   6.691  1.2240  2.1109 -0.7349
  141MOL    C6817148   0.505   0.739   6.656  0.6493  0.1317 -0.4618
  141MOL   Cl6917149   0.436   0.748   6.813 -0.2825  0.6088  0.1532
  141MOL   Cl7017150   0.384   0.797   6.544 -0.6388 -0.3169  0.3005
  141MOL    C7117151   0.638   0.824   6.642 -0.5175  0.0930  0.7678
  141MOL    H7217152   0.714   0.764   6.693  0.5759  1.5934  0.9222
  141MOL    H7317153   0.673   0.835   6.540  0.1419 -0.5118  0.9230
  141MOL    C7417154   0.638   0.966   6.694 -0.2842  0.6412  0.4942
  141MOL   Cl7517155   0.797   1.024   6.638 -0.5536 -0.0543  0.1969
  141MOL   Cl7617156   0.653   0.952   6.872  0.3655 -0.1146  0.1520
  141MOL    C7717157   0.520   1.058   6.642  0.2798  0.2954  0.0910
  141MOL    H7817158   0.521   1.067   6.533  1.1361 -0.1256  0.0571
  141MOL    H7917159   0.424   1.012   6.666 -0.1424  0.1170 -1.8256
  141MOL    C8017160   0.515   1.204   6.691 -0.4230  0.6512  0.0147
  141MOL   Cl8117161   0.385   1.270   6.598  0.2580  0.3403 -0.0145
  141MOL   Cl8217162   0.657   1.293   6.642 -0.1827 -0.0188 -0.1868
  141MOL    C8317163   0.514   1.251   6.847 -0.0496  0.3325  0.0917
  141MOL    H8417164   0.593   1.208   6.907 -1.8446 -0.6628  1.8121
  141MOL    H8517165   0.535   1.357   6.859 -0.9026  0.8239 -2.3951
  141MOL    C8617166   0.379   1.233   6.932  0.3940 -0.2150 -0.0406
  141MOL   Cl8717167   0.428   1.208   7.106  0.0342  0.1506  0.5366
  141MOL   Cl8817168   0.293   1.090   6.884 -0.3361 -0.0389  0.0576
  141MOL    C8917169   0.286   1.356   6.915 -0.2138  0.1886 -0.2365
  141MOL    H9017170   0.348   1.446   6.913  0.0220  0.0138 -3.0925
  141MOL    H9117171   0.245   1.336   6.816  0.5454 -1.4931 -0.2253
  141MOL    C9217172   0.165   1.385   7.014 -0.4909  0.2036 -0.3271
  141MOL   Cl9317173   0.236   1.463   7.159 -0.0032 -0.1474 -0.1606
  141MOL   Cl9417174   0.091   1.241   7.067  0.0938 -0.4279  0.1890
  141MOL    C9517175   0.055   1.484   6.960  0.3723  0.1247  0.4401
  141MOL    H9617176   0.001   1.531   7.042  0.1455  1.6509 -0.5544
  141MOL    H9717177   0.110   1.572   6.926  0.9974 -0.5668 -0.3477
  141MOL    C9817178   9.118   1.446   6.857 -0.4634  0.4390  0.2131
  141MOL   Cl9917179   0.014   1.363   6.723  0.2867  0.1393  0.2048
  141MOL  Cl10017180   9.066   1.595   6.786  0.4609 -0.7388  0.3145
  141MOL   C10117181   8.991   1.360   6.890 -0.0562  0.3354  0.4706
  141MOL   H10217182   8.927   1.374   6.803 -1.8513  3.1386  2.1408
  141MOL   H10317183   9.017   1.255   6.900 -1.3922  0.0054  0.5920
  141MOL   C10417184   8.899   1.383   7.013 -0.1649 -0.3739 -0.7698
  141MOL  Cl10517185   8.890   1.559   7.062 -0.2386 -0.0379 -0.5293
  141MOL  Cl10617186   8.965   1.296   7.156 -0.2954  0.7621  0.3375
  141MOL   C10717187   8.747   1.341   6.981 -0.0826  0.1219 -0.0686
  141MOL   H10817188   8.716   1.391   6.889  1.6733 -0.1064 -0.7976
  141MOL   H10917189   8.749   1.236   6.951  0.0412 -0.5716  2.2933
  141MOL   C11017190   8.629   1.348   7.078 -0.0046 -0.4226 -0.0920
  141MOL  Cl11117191   8.491   1.309   6.973  0.2942 -0.0427 -0.1053
  141MOL  Cl11217192   8.591   1.523   7.122 -0.1766 -0.1701  0.7316
  141MOL   C11317193   8.631   1.262   7.206 -0.1237 -0.2088  0.4538
  141MOL   H11417194   8.692   1.176   7.177 -0.3297 -0.1044 -0.2915
  141MOL   H11517195   8.686   1.313   7.285  0.0992 -0.4969  0.4845
  141MOL   C11617196   8.495   1.217   7.275  0.1052 -0.5513  0.4885
  141MOL  Cl11717197   8.507   1.189   7.455 -0.6268 -0.2435  0.1849
  141MOL  Cl11817198   8.428   1.071   7.197  0.1341 -0.0843 -0.2210
  141MOL   C11917199   8.386   1.328   7.278  0.1019 -0.1485  0.6063
  141MOL   H12017200   8.346   1.336   7.177  0.5553  1.3019  0.5273
  141MOL   H12117201   8.303   1.293   7.339  0.3674 -1.2869  0.3208
  141MOL   H12217202   8.430   1.422   7.312 -1.8959  0.7710  0.7394
  142MOL     C117203   7.239   1.272   1.397 -0.0599  0.5094  0.3936
  142MOL    Cl217204   7.098   1.193   1.472 -0.2914  0.1198  0.5097
  142MOL    Cl317205   7.224   1.252   1.219  0.0276  0.1471 -0.1704
  142MOL     C417206   7.240   1.425   1.428  0.9984 -0.9438 -0.3562
  142MOL     H517207   7.147   1.472   1.396  1.7691  0.2297 -0.8798
  142MOL     H617208   7.237   1.418   1.537  1.0527  0.6141 -0.2543
  142MOL     H717209   7.326   1.215   1.430  0.5609  1.8830  1.1590
  142MOL     C817210   7.367   1.512   1.410 -0.6553 -0.5403 -0.3357
  142MOL    Cl917211   7.407   1.532   1.240  0.0562  0.0860  0.1976
  142MOL   Cl1017212   7.499   1.420   1.490  0.0196 -0.3996  0.0644
  142MOL    C1117213   7.364   1.659   1.460  0.6958 -0.6956 -0.0624
  142MOL    H1217214   7.468   1.691   1.463 -0.2879  2.7071 -0.1228
  142MOL    H1317215   7.316   1.713   1.379 -1.8410 -1.2059  1.0456
  142MOL    C1417216   7.301   1.700   1.596  0.1602  0.5803 -0.0490
  142MOL   Cl1517217   7.374   1.602   1.724  0.0792  0.2678 -0.0269
  142MOL   Cl1617218   7.127   1.666   1.583 -0.1505 -0.2708  0.5673
  142MOL    C1717219   7.327   1.851   1.627 -0.2684  0.4293 -0.2785
  142MOL    H1817220   7.433   1.869   1.609  0.4972 -0.8141  2.5838
  142MOL    H1917221   7.263   1.906   1.558 -0.8133 -0.5270 -0.5430
  142MOL    C2017222   7.306   1.914   1.767  0.1043 -0.3454  0.2488
  142MOL   Cl2117223   7.157   1.871   1.840  0.0922  0.4670  0.1246
  142MOL   Cl2217224   7.280   2.087   1.727  0.3687  0.2791  0.1825
  142MOL    C2317225   7.421   1.905   1.881 -0.4302 -0.1288 -0.4545
  142MOL    H2417226   7.381   1.930   1.979  1.8742  0.4548  0.3892
  142MOL    H2517227   7.445   1.799   1.890 -0.4206 -0.0598  0.4325
  142MOL    C2617228   7.557   1.986   1.876  0.3221  0.6270  0.3882
  142MOL   Cl2717229   7.515   2.161   1.894 -0.3695  0.2559  0.0011
  142MOL   Cl2817230   7.639   1.964   1.723  0.0128 -0.1746  0.1842
  142MOL    C2917231   7.661   1.957   1.985  0.6635  0.1299  0.7839
  142MOL    H3017232   7.750   2.010   1.952 -0.0928  1.1443  0.3660
  142MOL    H3117233   7.641   2.011   2.077  0.9413  0.9951  0.3347
  142MOL    C3217234   7.686   1.807   2.020 -0.2906 -0.5149  0.1021
  142MOL   Cl3317235   7.852   1.819   2.072 -0.2842 -0.1803  0.0195
  142MOL   Cl3417236   7.686   1.698   1.887 -0.0756  0.0019 -0.1344
  142MOL    C3517237   7.591   1.758   2.135 -0.3465  0.0405  0.2132
  142MOL    H3617238   7.628   1.804   2.226  0.4393  1.0921 -0.6404
  142MOL    H3717239   7.488   1.791   2.123 -0.6169 -0.2973  1.5059
  142MOL    C3817240   7.585   1.605   2.186  0.4185 -0.4434  1.0048
  142MOL   Cl3917241   7.486   1.517   2.064  0.2003 -0.2402 -0.0349
  142MOL   Cl4017242   7.502   1.612   2.342 -0.1887 -0.1088 -0.1522
  142MOL    C4117243   7.727   1.536   2.193 -0.7345 -0.4576  0.3401
  142MOL    H4217244   7.769   1.550   2.093 -2.9432  1.8780 -0.3069
  142MOL    H4317245   7.788   1.602   2.256 -0.2132  0.0056 -0.6441
  142MOL    C4417246   7.745   1.394   2.260  0.4219 -0.9683  0.1893
  142MOL   Cl4517247   7.596   1.291   2.245 -0.1861  0.4686 -0.0646
  142MOL   Cl4617248   7.774   1.430   2.431  0.2138 -0.4706 -0.1141
  142MOL    C4717249   7.866   1.322   2.201  0.1360  0.0587 -0.7621
  142MOL    H4817250   7.866   1.342   2.094 -0.2591 -0.0173 -0.7777
  142MOL    H4917251   7.947   1.384   2.238  0.5693 -0.9857  0.0867
  142MOL    C5017252   7.906   1.174   2.231  0.3891  0.1336 -0.0510
  142MOL   Cl5117253   8.065   1.159   2.173 -0.0714 -0.0431 -0.0986
  142MOL   Cl5217254   7.797   1.084   2.128 -0.0463  0.1541  0.3244
  142MOL    C5317255   7.897   1.115   2.379  0.4254  0.0177  0.9958
  142MOL    H5417256   7.925   1.197   2.445  0.9757  0.7141 -0.0892
  142MOL    H5517257   7.790   1.104   2.395  0.1966  1.1256  0.3037
  142MOL    C5617258   7.952   0.977   2.428  0.2190  0.0057  0.2883
  142MOL   Cl5717259   7.901   0.977   2.599 -0.0393 -0.3977  0.6307
  142MOL   Cl5817260   8.123   0.983   2.421  0.2203  0.0162  0.1523
  142MOL    C5917261   7.895   0.861   2.338 -0.7221  0.2245  0.5202
  142MOL    H6017262   7.822   0.893   2.263  2.4146 -1.5036 -3.4750
  142MOL    H6117263   7.975   0.831   2.271 -0.0775  1.0894  0.9046
  142MOL    C6217264   7.836   0.721   2.392  0.4338 -0.0501 -0.0336
  142MOL   Cl6317265   7.966   0.660   2.498  0.1926  0.0488  0.5441
  142MOL   Cl6417266   7.819   0.601   2.262  0.0242 -0.5733  0.0411
  142MOL    C6517267   7.708   0.723   2.482  0.8951 -0.1583 -0.2986
  142MOL    H6617268   7.698   0.617   2.506  1.6909  0.1662  1.5730
  142MOL    H6717269   7.745   0.765   2.576 -0.0707  1.7246 -0.7405
  142MOL    C6817270   7.569   0.773   2.435  0.1619 -0.1671  0.4999
  142MOL   Cl6917271   7.502   0.640   2.340 -0.0394  0.0363 -0.2349
  142MOL   Cl7017272   7.593   0.917   2.335  0.2066 -0.4729 -0.0708
  142MOL    C7117273   7.464   0.796   2.546 -0.7669 -0.1087 -0.1328
  142MOL    H7217274   7.367   0.799   2.497  0.1629  0.9748 -1.9748
  142MOL    H7317275   7.458   0.702   2.599  0.9445 -0.6833 -0.9149
  142MOL    C7417276   7.461   0.917   2.650  0.1710  0.5488  0.1863
  142MOL   Cl7517277   7.607   0.908   2.749 -0.0700 -0.0219  0.0057
  142MOL   Cl7617278   7.330   0.876   2.758 -0.0455  0.1111  0.0722
  142MOL    C7717279   7.444   1.058   2.582 -0.1920  0.2161 -0.0978
  142MOL    H7817280   7.539   1.083   2.536 -0.3829 -0.7404 -1.0549
  142MOL    H7917281   7.365   1.039   2.509 -1.6799 -1.6882  1.9485
  142MOL    C8017282   7.393   1.180   2.665 -0.1595 -0.8668  0.3520
  142MOL   Cl8117283   7.233   1.167   2.735 -0.1619  0.0843 -0.4917
  142MOL   Cl8217284   7.393   1.309   2.538 -0.0046  0.0169 -0.2470
  142MOL    C8317285   7.495   1.209   2.785  0.1208  0.2532  0.4905
  142MOL    H8417286   7.468   1.147   2.870  0.9117 -0.0013  0.5620
  142MOL    H8517287   7.599   1.186   2.758 -1.0715 -3.4438 -1.2896
  142MOL    C8617288   7.522   1.353   2.854 -0.1629 -0.2976 -0.0514
  142MOL   Cl8717289   7.361   1.428   2.895  0.2484  0.0100 -0.4289
  142MOL   Cl8817290   7.599   1.463   2.730  0.4982  0.4367 -0.0844
  142MOL    C8917291   7.612   1.354   2.982 -0.9019 -0.5487 -0.0838
  142MOL    H9017292   7.640   1.458   2.996 -0.5479 -0.6256 -0.2186
  142MOL    H9117293   7.553   1.341   3.072 -0.0903 -0.9369  0.3962
  142MOL    C9217294   7.734   1.259   3.002  0.1981  0.1745  0.7980
  142MOL   Cl9317295   7.823   1.246   2.851  0.0683  0.1134  0.0948
  142MOL   Cl9417296   7.684   1.097   3.053  0.2932  0.3384  0.2932
  142MOL    C9517297   7.846   1.294   3.098 -0.2213 -0.3787 -0.6059
  142MOL    H9617298   7.920   1.214   3.101  0.1253 -0.0666 -0.7098
  142MOL    H9717299   7.895   1.376   3.046  0.1827 -0.9017 -1.0465
  142MOL    C9817300   7.810   1.341   3.244 -0.4499  0.7389  0.1733
  142MOL   Cl9917301   7.685   1.245   3.328 -0.3994  0.1623 -0.0349
  142MOL  Cl10017302   7.741   1.501   3.234 -0.2677  0.0767  0.3758
  142MOL   C10117303   7.932   1.337   3.339  0.4084 -0.1362  0.1704
  142MOL   H10217304   7.889   1.350   3.438 -1.3917  0.0388 -0.6174
  142MOL   H10317305   7.958   1.231   3.340  0.4977 -0.1116  0.5625
  142MOL   C10417306   8.070   1.422   3.320 -0.4073 -0.2614 -0.4921
  142MOL  Cl10517307   8.028   1.592   3.318  0.0462 -0.1851  0.2356
  142MOL  Cl10617308   8.139   1.386   3.154 -0.1386 -0.3415  0.2649
  142MOL   C10717309   8.183   1.399   3.422 -0.1161  0.7024  0.0935
  142MOL   H10817310   8.275   1.450   3.393 -0.2821  1.6162  1.1820
  142MOL   H10917311   8.158   1.459   3.509 -0.3711  1.1248 -0.2658
  142MOL   C11017312   8.218   1.255   3.479 -0.6939  0.6375  0.1836
  142MOL  Cl11117313   8.213   1.136   3.353  0.0543  0.1721 -0.3298
  142MOL  Cl11217314   8.106   1.226   3.607  0.0087  0.1503  0.0566
  142MOL   C11317315   8.354   1.241   3.550  0.4632  0.2999  0.8924
  142MOL   H11417316   8.353   1.292   3.646 -1.7637 -0.0718  1.0879
  142MOL   H11517317   8.365   1.138   3.586 -0.9242 -0.0809  0.2628
  142MOL   C11617318   8.493   1.282   3.478  0.0752 -0.4653  0.7940
  142MOL  Cl11717319   8.616   1.219   3.593 -0.4893 -0.5186  0.3832
  142MOL  Cl11817320   8.511   1.460   3.470 -0.2089  0.3555  0.1148
  142MOL   C11917321   8.534   1.223   3.344  0.6558 -0.1763 -0.0306
  142MOL   H12017322   8.506   1.119   3.357  1.5130 -0.1723  1.9897
  142MOL   H12117323   8.481   1.263   3.258 -0.3959 -1.4964 -0.0052
  142MOL   H12217324   8.640   1.233   3.321  0.8004 -0.6269  0.4180
  143MOL     C117325   3.401   2.963   7.455  0.2458 -0.1059  0.2784
  143MOL    Cl217326   3.453   3.096   7.348 -0.0720  0.0857 -0.1564
  143MOL    Cl317327   3.408   3.002   7.622 -0.2705 -0.2669 -0.1422
  143MOL     C417328   3.255   2.925   7.434  0.1594 -0.3218  0.2291
  143MOL     H517329   3.227   2.858   7.515 -0.1722 -0.7810 -0.2589
  143MOL     H617330   3.190   3.012   7.443  2.6544  1.5300  0.7173
  143MOL     H717331   3.465   2.875   7.454  0.8292  0.3060  0.9031
  143MOL     C817332   3.213   2.841   7.306  0.5418  0.3762  0.0966
  143MOL    Cl917333   3.043   2.783   7.329  0.2134 -0.1169 -0.1765
  143MOL   Cl1017334   3.321   2.703   7.294  0.1326 -0.1336  0.1807
  143MOL    C1117335   3.231   2.926   7.180  0.5068 -0.2013  0.1342
  143MOL    H1217336   3.194   3.025   7.209 -2.1296 -0.8695 -0.8121
  143MOL    H1317337   3.337   2.932   7.157  0.4070 -2.5932 -1.1338
  143MOL    C1417338   3.187   2.889   7.037  0.1504  0.3971 -0.1815
  143MOL   Cl1517339   3.008   2.887   7.032 -0.0756 -0.1888  0.0468
  143MOL   Cl1617340   3.249   2.731   6.992  0.3080 -0.3433  0.0253
  143MOL    C1717341   3.251   3.000   6.942  0.5221 -0.2835 -0.6550
  143MOL    H1817342   3.239   3.096   6.992 -3.5652 -2.1118  2.1043
  143MOL    H1917343   3.358   2.979   6.945  0.4687 -0.4658  0.1205
  143MOL    C2017344   3.224   3.023   6.792  0.9799  0.0091 -0.1828
  143MOL   Cl2117345   3.344   3.146   6.725 -0.2135 -0.1040 -0.0350
  143MOL   Cl2217346   3.064   3.098   6.783  0.4745  0.1250  0.0871
  143MOL    C2317347   3.228   2.892   6.709 -1.2480 -0.2911  0.0321
  143MOL    H2417348   3.329   2.855   6.729 -1.1783 -0.7219 -1.0907
  143MOL    H2517349   3.162   2.821   6.758  0.7760 -1.2786  1.4200
  143MOL    C2617350   3.225   2.884   6.554 -0.8030 -0.7171  0.0751
  143MOL   Cl2717351   3.201   2.722   6.504  0.4203 -0.1691 -0.0012
  143MOL   Cl2817352   3.392   2.937   6.491  0.3881  0.2510  0.0840
  143MOL    C2917353   3.111   2.972   6.489 -0.2108 -0.0077  0.7590
  143MOL    H3017354   3.024   2.933   6.542 -0.1168 -0.7385  0.3799
  143MOL    H3117355   3.138   3.073   6.521 -3.3315  1.1625 -0.1349
  143MOL    C3217356   3.070   2.971   6.343 -0.8406 -0.6202  0.0855
  143MOL   Cl3317357   2.968   2.830   6.304 -0.0796 -0.4232  0.0682
  143MOL   Cl3417358   3.211   2.973   6.236  0.0650 -0.3351 -0.1034
  143MOL    C3517359   2.988   3.097   6.309  0.2198  0.7275  0.9040
  143MOL    H3617360   3.039   3.185   6.347  1.4065  0.1650  0.6390
  143MOL    H3717361   2.982   3.103   6.200 -2.2903  0.0632  0.9678
  143MOL    C3817362   2.837   3.113   6.353  0.6652  0.0791 -0.7254
  143MOL   Cl3917363   2.813   3.056   6.521  0.3107  0.1648 -0.1710
  143MOL   Cl4017364   2.737   3.019   6.238  0.0757  0.1670  0.3824
  143MOL    C4117365   2.780   3.261   6.363  0.1444 -0.4606 -0.4412
  143MOL    H4217366   2.678   3.251   6.399  0.6841 -0.2452  1.1802
  143MOL    H4317367   2.820   3.321   6.445 -3.3016  1.0785  0.1995
  143MOL    C4417368   2.789   3.368   6.248 -0.5791  0.8288  0.1555
  143MOL   Cl4517369   2.705   3.294   6.104  0.1333 -0.1485  0.0453
  143MOL   Cl4617370   2.964   3.408   6.215 -0.1550  0.0291 -0.1555
  143MOL    C4717371   2.716   3.499   6.299 -0.2130  0.5053  0.1598
  143MOL    H4817372   2.623   3.468   6.347  0.2800 -2.2326 -0.5415
  143MOL    H4917373   2.773   3.538   6.383 -1.8461  0.3860  1.3333
  143MOL    C5017374   2.669   3.607   6.197  0.2806  0.5111 -0.7262
  143MOL   Cl5117375   2.626   3.751   6.304  0.3925  0.2497 -0.1277
  143MOL   Cl5217376   2.519   3.540   6.117  0.2579  0.2870  0.0690
  143MOL    C5317377   2.776   3.644   6.086 -0.1544  0.1307 -0.0641
  143MOL    H5417378   2.881   3.628   6.106  0.7682 -0.4113 -4.6988
  143MOL    H5517379   2.756   3.556   6.024 -3.1084  1.1759 -0.7054
  143MOL    C5617380   2.760   3.770   6.000  0.1399  0.5991 -0.3032
  143MOL   Cl5717381   2.599   3.797   5.929  0.4911  0.0882 -0.2813
  143MOL   Cl5817382   2.870   3.733   5.857  0.0883 -0.0322  0.3498
  143MOL    C5917383   2.804   3.900   6.079  0.4382  0.0789  1.0946
  143MOL    H6017384   2.802   3.973   5.999  2.9027 -1.4638 -0.4402
  143MOL    H6117385   2.726   3.942   6.143 -1.4490 -2.4561  0.5401
  143MOL    C6217386   2.943   3.910   6.154 -0.2015 -0.0161  0.4726
  143MOL   Cl6317387   3.081   3.859   6.049  0.0981  0.0517 -0.2115
  143MOL   Cl6417388   2.958   3.796   6.296  0.1146  0.5548  0.0268
  143MOL    C6517389   2.965   4.048   6.219 -0.5879 -0.3755  0.0806
  143MOL    H6617390   2.926   4.054   6.321  0.1852  0.5559  0.3349
  143MOL    H6717391   3.071   4.050   6.246 -0.2564  2.6065 -1.2704
  143MOL    C6817392   2.947   4.183   6.141 -0.4510 -0.0881 -0.2763
  143MOL   Cl6917393   2.985   4.310   6.260 -0.1361  0.1106  0.2491
  143MOL   Cl7017394   2.782   4.218   6.098 -0.1221 -0.2766 -0.2156
  143MOL    C7117395   3.055   4.191   6.019 -0.5050  0.4898  0.4812
  143MOL    H7217396   3.153   4.186   6.066 -0.1574  0.2412 -0.2661
  143MOL    H7317397   3.049   4.105   5.954  0.0627 -0.5610  1.7955
  143MOL    C7417398   3.071   4.309   5.920  0.6210  0.0384  0.1507
  143MOL   Cl7517399   3.187   4.269   5.795  0.0373 -0.0393  0.0104
  143MOL   Cl7617400   3.140   4.458   5.991 -0.5875  0.3641 -0.3639
  143MOL    C7717401   2.942   4.361   5.838  0.0655 -0.1883  0.5410
  143MOL    H7817402   2.871   4.382   5.919  0.0993 -0.6024  0.6786
  143MOL    H7917403   2.960   4.464   5.808  0.6704 -0.2992  0.5283
  143MOL    C8017404   2.858   4.286   5.731 -0.0434 -0.3358  0.1147
  143MOL   Cl8117405   2.698   4.365   5.721 -0.1339 -0.0051 -0.0925
  143MOL   Cl8217406   2.828   4.117   5.777  0.3026 -0.4186 -0.1488
  143MOL    C8317407   2.925   4.289   5.592  0.0517 -0.1093 -0.2619
  143MOL    H8417408   2.963   4.391   5.579 -1.1720  0.4711  0.5967
  143MOL    H8517409   3.011   4.225   5.608  0.2822  0.1232 -0.5565
  143MOL    C8617410   2.867   4.244   5.457  0.0103  0.1634 -0.3249
  143MOL   Cl8717411   2.722   4.327   5.404  0.1365  0.1623 -0.0095
  143MOL   Cl8817412   2.814   4.080   5.492 -0.0621  0.2778  0.0576
  143MOL    C8917413   2.962   4.244   5.336 -0.0771 -0.4796  0.4668
  143MOL    H9017414   3.016   4.149   5.337  1.5988  0.4451  2.3618
  143MOL    H9117415   2.906   4.222   5.246  1.5559  0.1430 -0.7250
  143MOL    C9217416   3.040   4.378   5.303 -0.7711 -0.1441 -0.5057
  143MOL   Cl9317417   3.176   4.402   5.415 -0.2985  0.0962  0.3308
  143MOL   Cl9417418   2.938   4.528   5.320  0.0603 -0.0106 -0.0760
  143MOL    C9517419   3.092   4.400   5.158 -0.4002  0.7794 -0.2799
  143MOL    H9617420   3.012   4.411   5.084 -0.2058  2.9183 -0.2096
  143MOL    H9717421   3.139   4.498   5.157  0.1694  0.5328  1.0424
  143MOL    C9817422   3.207   4.314   5.094 -0.1462  0.6167  0.9892
  143MOL   Cl9917423   3.223   4.376   4.929  0.0986 -0.1555  0.0223
  143MOL  Cl10017424   3.140   4.155   5.078  0.2132  0.4849 -0.3146
  143MOL   C10117425   3.346   4.303   5.167 -0.5947  0.2093 -0.7822
  143MOL   H10217426   3.365   4.408   5.190 -1.6360  0.4016 -0.7825
  143MOL   H10317427   3.325   4.256   5.263 -0.1453  1.4868 -0.0482
  143MOL   C10417428   3.478   4.257   5.104  0.9230 -0.0053  0.1495
  143MOL  Cl10517429   3.594   4.260   5.234 -0.0940  0.1054 -0.3069
  143MOL  Cl10617430   3.531   4.380   4.996  0.2972  0.2636 -0.1006
  143MOL   C10717431   3.468   4.115   5.042 -0.3031  0.8049 -0.3761
  143MOL   H10817432   3.436   4.055   5.127 -1.8397 -0.5684 -1.8898
  143MOL   H10917433   3.389   4.125   4.968  0.2912 -0.0976 -1.1445
  143MOL   C11017434   3.589   4.040   4.972 -0.1455 -1.1573 -0.4297
  143MOL  Cl11117435   3.520   3.895   4.893  0.3075  0.3392 -0.2790
  143MOL  Cl11217436   3.700   4.003   5.108 -0.1691 -0.0100 -0.2268
  143MOL   C11317437   3.667   4.128   4.864  0.5660 -0.2954  0.3764
  143MOL   H11417438   3.591   4.162   4.794  0.5060  0.3145  0.7371
  143MOL   H11517439   3.708   4.210   4.923  0.7573 -0.8618  1.0333
  143MOL   C11617440   3.793   4.076   4.779 -0.2140  0.5596  0.5719
  143MOL  Cl11717441   3.867   4.217   4.713  0.5301  0.3291  0.2056
  143MOL  Cl11817442   3.747   3.964   4.648 -0.4524 -0.3521 -0.2204
  143MOL   C11917443   3.896   4.003   4.871  0.3727  1.0423 -0.5314
  143MOL   H12017444   3.863   3.907   4.912 -0.7248  1.9645  0.7860
  143MOL   H12117445   3.977   3.972   4.806 -0.2105  0.3353 -0.9216
  143MOL   H12217446   3.930   4.069   4.951  1.5006 -0.7121  0.4713
  144MOL     C117447   7.904   7.219   4.332 -0.1217  0.3085  0.1042
  144MOL    Cl217448   7.755   7.277   4.256 -0.2309 -0.1639 -0.2267
  144MOL    Cl317449   8.028   7.337   4.294 -0.2620 -0.0951  0.3652
  144MOL     C417450   7.880   7.200   4.484 -0.1259  0.5723 -0.5290
  144MOL     H517451   7.867   7.301   4.522  0.2577 -0.0087  1.2133
  144MOL     H617452   7.774   7.174   4.484  0.4795 -2.0330 -0.2677
  144MOL     H717453   7.926   7.126   4.279 -2.1382  1.0488 -2.1216
  144MOL     C817454   7.966   7.095   4.555 -0.5471 -0.1684 -0.6547
  144MOL    Cl917455   7.943   6.942   4.469 -0.1105 -0.0742  0.4663
  144MOL   Cl1017456   7.896   7.100   4.720  0.4305  0.0139 -0.0226
  144MOL    C1117457   8.117   7.136   4.550  0.6486 -0.4325  0.3892
  144MOL    H1217458   8.150   7.105   4.451  1.3553 -0.0876  0.5123
  144MOL    H1317459   8.109   7.244   4.562 -0.5588 -0.4454 -0.1761
  144MOL    C1417460   8.217   7.069   4.646  0.6550 -0.8646  0.0952
  144MOL   Cl1517461   8.171   6.899   4.676  0.1033 -0.5234 -0.2468
  144MOL   Cl1617462   8.212   7.162   4.794  0.1558  0.0885  0.2746
  144MOL    C1717463   8.364   7.068   4.592  0.5137  0.4751  0.4150
  144MOL    H1817464   8.425   7.019   4.668 -0.9468  0.6612  1.7276
  144MOL    H1917465   8.364   6.989   4.516  0.5194 -0.9799  1.8967
  144MOL    C2017466   8.439   7.205   4.546 -0.4513  0.5592  0.9253
  144MOL   Cl2117467   8.445   7.329   4.681  0.2661  0.2005 -0.2143
  144MOL   Cl2217468   8.340   7.283   4.407  0.1350 -0.2977  0.1866
  144MOL    C2317469   8.589   7.188   4.500 -0.4365  0.3310 -0.1964
  144MOL    H2417470   8.634   7.280   4.462  0.5992 -0.0548  0.0800
  144MOL    H2517471   8.658   7.176   4.584 -0.6943 -1.0027 -0.1610
  144MOL    C2617472   8.615   7.077   4.399 -0.2502  0.1026 -0.0742
  144MOL   Cl2717473   8.481   7.044   4.283  0.1291  0.1140 -0.0292
  144MOL   Cl2817474   8.625   6.926   4.498 -0.0202 -0.2080  0.1387
  144MOL    C2917475   8.750   7.093   4.320 -0.2569 -0.3999 -0.5992
  144MOL    H3017476   8.822   7.121   4.396 -1.5708  1.8881 -0.1325
  144MOL    H3117477   8.785   6.992   4.301  3.8985  0.5306  1.4877
  144MOL    C3217478   8.763   7.180   4.189 -0.1044 -0.3535  0.1532
  144MOL   Cl3317479   8.696   7.345   4.220 -0.1836 -0.4483 -0.1816
  144MOL   Cl3417480   8.687   7.094   4.055  0.0811 -0.0457  0.1575
  144MOL    C3517481   8.906   7.197   4.142 -0.0538 -0.4426 -0.5274
  144MOL    H3617482   8.904   7.251   4.047 -1.9982 -0.1143 -0.3252
  144MOL    H3717483   8.939   7.278   4.207 -0.4168  0.1552 -1.0905
  144MOL    C3817484   9.009   7.079   4.145  0.5610  0.1107 -0.4843
  144MOL   Cl3917485   8.949   6.919   4.104  0.0250  0.1080 -0.1124
  144MOL   Cl4017486   9.067   7.063   4.314  0.3623  0.0513 -0.0635
  144MOL    C4117487   9.138   7.109   4.066  0.9955  0.0083 -0.7401
  144MOL    H4217488   0.031   7.156   4.131 -0.1522  2.8142 -1.4217
  144MOL    H4317489   9.179   7.008   4.056 -1.2835 -0.9575 -0.6574
  144MOL    C4417490   9.151   7.185   3.928  0.2047  0.0596  0.0877
  144MOL   Cl4517491   9.127   7.365   3.971 -0.0142 -0.0109 -0.5471
  144MOL   Cl4617492   9.015   7.125   3.823  0.1685 -0.3499  0.6443
  144MOL    C4717493   0.116   7.160   3.863 -0.2321  0.2354 -0.8271
  144MOL    H4817494   0.192   7.180   3.939 -2.8139 -1.3401  2.3107
  144MOL    H4917495   0.117   7.053   3.842  0.8883  0.3324 -1.2813
  144MOL    C5017496   0.164   7.239   3.734 -0.4798 -0.6520 -0.0973
  144MOL   Cl5117497   0.303   7.151   3.664  0.0024 -0.0228  0.0267
  144MOL   Cl5217498   0.226   7.403   3.776  0.1104 -0.0683  0.3396
  144MOL    C5317499   0.048   7.248   3.628 -0.0720 -0.6254 -0.5090
  144MOL    H5417500   9.178   7.152   3.618 -1.3314 -0.1614  1.2576
  144MOL    H5517501   9.146   7.309   3.664  0.9551  0.3942  0.1360
  144MOL    C5617502   0.075   7.315   3.484 -0.5782  0.4332  0.0984
  144MOL   Cl5717503   9.105   7.269   3.407  0.2254 -0.0692  0.1216
  144MOL   Cl5817504   0.219   7.245   3.392 -0.1956  0.0997  0.4482
  144MOL    C5917505   0.090   7.470   3.481  0.7608 -0.6393 -0.5346
  144MOL    H6017506   0.026   7.504   3.563  2.1933  1.2216 -0.1663
  144MOL    H6117507   0.190   7.484   3.520  0.9640 -2.6163 -0.2768
  144MOL    C6217508   0.103   7.559   3.353 -0.9259 -0.1183  0.7360
  144MOL   Cl6317509   0.089   7.722   3.421  0.0173  0.0063 -0.0500
  144MOL   Cl6417510   9.144   7.532   3.241 -0.1457 -0.2565 -0.2097
  144MOL    C6517511   0.233   7.538   3.275 -1.0782  1.2668 -0.9716
  144MOL    H6617512   0.301   7.507   3.354 -2.1139 -1.3321 -1.0816
  144MOL    H6717513   0.227   7.455   3.205  2.0048  0.4967 -0.3787
  144MOL    C6817514   0.301   7.658   3.192  0.3189  0.5885 -0.3034
  144MOL   Cl6917515   0.361   7.786   3.301  0.2424  0.1352 -0.0979
  144MOL   Cl7017516   0.178   7.726   3.095  0.3974  0.0217  0.2790
  144MOL    C7117517   0.417   7.623   3.093  0.6030 -0.3375 -0.7099
  144MOL    H7217518   0.375   7.543   3.033  1.9923 -0.0053 -2.1732
  144MOL    H7317519   0.425   7.700   3.016  0.4142  0.0024 -0.3873
  144MOL    C7417520   0.554   7.569   3.143  0.7984  0.1609  0.1240
  144MOL   Cl7517521   0.521   7.440   3.271 -0.4660 -0.1468 -0.0927
  144MOL   Cl7617522   0.643   7.707   3.207 -0.0822 -0.1223 -0.1526
  144MOL    C7717523   0.632   7.494   3.030 -0.6674 -0.0848 -0.5975
  144MOL    H7817524   0.584   7.397   3.020 -0.1737 -0.5755  1.6162
  144MOL    H7917525   0.624   7.552   2.938 -2.3836 -2.0165 -1.7009
  144MOL    C8017526   0.782   7.460   3.041  0.4388  0.4408  0.0498
  144MOL   Cl8117527   0.870   7.613   2.991 -0.1396  0.2138 -0.0276
  144MOL   Cl8217528   0.814   7.331   2.925  0.1180  0.4041 -0.2803
  144MOL    C8317529   0.833   7.409   3.184  0.5544  0.9797  0.0564
  144MOL    H8417530   0.833   7.502   3.241 -1.2693  1.2608 -0.3787
  144MOL    H8517531   0.765   7.338   3.232  1.7659 -0.5576 -0.4438
  144MOL    C8617532   0.978   7.345   3.206  0.2011  0.3590 -0.1242
  144MOL   Cl8717533   1.098   7.408   3.095 -0.0724  0.3613 -0.1880
  144MOL   Cl8817534   0.966   7.171   3.170  0.1688 -0.2887  0.1880
  144MOL    C8917535   1.028   7.369   3.355  1.1416  0.2069  0.2224
  144MOL    H9017536   0.999   7.465   3.399 -0.8491 -0.9959  1.6446
  144MOL    H9117537   0.960   7.304   3.410 -0.2208  1.3558 -0.0621
  144MOL    C9217538   1.179   7.349   3.392 -0.3896 -0.4075  0.1150
  144MOL   Cl9317539   1.186   7.343   3.568 -0.3624  0.0465 -0.2653
  144MOL   Cl9417540   1.272   7.494   3.344  0.2686 -0.5724 -0.0456
  144MOL    C9517541   1.237   7.211   3.339  0.3567 -0.1005 -0.1982
  144MOL    H9617542   1.193   7.132   3.400 -1.4632  1.1561  0.1568
  144MOL    H9717543   1.197   7.205   3.238  1.3059 -0.4044 -0.5661
  144MOL    C9817544   1.386   7.170   3.331 -0.0597  0.2534 -0.3682
  144MOL   Cl9917545   1.385   7.009   3.265 -0.0646  0.1734 -0.3814
  144MOL  Cl10017546   1.450   7.160   3.500 -0.0081 -0.1071  0.6997
  144MOL   C10117547   1.466   7.268   3.240  0.5931 -0.3714 -0.5524
  144MOL   H10217548   1.403   7.305   3.159 -1.1465  0.0244  0.9476
  144MOL   H10317549   1.486   7.361   3.294 -1.6813 -0.1883  0.0262
  144MOL   C10417550   1.606   7.237   3.196  0.0423 -0.9584 -0.4710
  144MOL  Cl10517551   1.620   7.107   3.070 -0.2883 -0.2295  0.2964
  144MOL  Cl10617552   1.705   7.173   3.329 -0.2706 -0.3330  0.3279
  144MOL   C10717553   1.683   7.364   3.138  0.5872  0.4433 -0.0757
  144MOL   H10817554   1.679   7.439   3.217 -0.1704 -1.0450  1.3439
  144MOL   H10917555   1.786   7.332   3.125 -0.0663 -2.3968  1.2807
  144MOL   C11017556   1.650   7.446   3.008  0.0648 -0.2719  0.4419
  144MOL  Cl11117557   1.758   7.579   3.020 -0.6104 -0.0905  0.0908
  144MOL  Cl11217558   1.485   7.514   3.013  0.3029  0.3273 -0.4040
  144MOL   C11317559   1.682   7.368   2.877  0.7068  0.0712 -0.2179
  144MOL   H11417560   1.788   7.339   2.872  0.5351 -0.5813 -0.1471
  144MOL   H11517561   1.625   7.277   2.897 -1.9375  1.7566  0.0612
  144MOL   C11617562   1.635   7.422   2.742 -0.4674 -0.1628  0.0088
  144MOL  Cl11717563   1.462   7.444   2.717  0.0738  0.2039  0.7041
  144MOL  Cl11817564   1.666   7.292   2.622  0.3379 -0.0868 -0.2548
  144MOL   C11917565   1.716   7.539   2.687  0.7038 -0.1197  0.0990
  144MOL   H12017566   1.823   7.522   2.700  1.5759  3.1357 -2.0377
  144MOL   H12117567   1.694   7.571   2.585 -1.7881 -0.8656  0.3679
  144MOL   H12217568   1.690   7.626   2.746 -2.6724 -0.5760 -0.6154
  145MOL     C117569   7.052   4.260   0.352  1.0624  0.3018 -0.1318
  145MOL    Cl217570   6.984   4.097   0.364 -0.1629 -0.1739  0.2668
  145MOL    Cl317571   7.216   4.239   0.302 -0.3232  0.5027  0.3631
  145MOL     C417572   6.979   4.337   0.238 -0.3038 -0.0614  0.8853
  145MOL     H517573   7.051   4.403   0.189  0.2373 -0.8501  0.5951
  145MOL     H617574   6.954   4.275   0.152  1.1112  1.0335 -0.3488
  145MOL     H717575   7.039   4.305   0.451 -2.0264 -1.8875  0.5182
  145MOL     C817576   6.854   4.415   0.269 -0.1524 -0.0201 -0.0322
  145MOL    Cl917577   6.730   4.296   0.312  0.0209  0.4311  0.0332
  145MOL   Cl1017578   6.793   4.482   0.107  0.0837  0.1915  0.4036
  145MOL    C1117579   6.856   4.521   0.374 -0.2085  0.6052 -1.0332
  145MOL    H1217580   6.764   4.579   0.377 -0.4722  0.3293 -3.1076
  145MOL    H1317581   6.850   4.469   0.470 -1.3885  0.0228 -1.4211
  145MOL    C1417582   6.966   4.626   0.387 -0.1571 -0.3166 -0.3245
  145MOL   Cl1517583   6.991   4.712   0.230  0.1516 -0.2509 -0.0723
  145MOL   Cl1617584   7.128   4.556   0.427 -0.3431 -0.1111 -0.4261
  145MOL    C1717585   6.950   4.717   0.511  0.6096 -0.3935  0.3473
  145MOL    H1817586   6.963   4.653   0.598  1.7778  0.1652  0.6083
  145MOL    H1917587   7.031   4.790   0.506 -0.5560  0.8430 -1.1641
  145MOL    C2017588   6.807   4.789   0.539 -0.1113  0.3058 -0.2070
  145MOL   Cl2117589   6.695   4.669   0.607  0.3216 -0.3546 -0.3799
  145MOL   Cl2217590   6.749   4.857   0.383 -0.1881  0.0322 -0.2617
  145MOL    C2317591   6.807   4.904   0.634  0.0909 -0.4720 -0.0959
  145MOL    H2417592   6.835   4.996   0.583  1.6528 -0.1745  1.2614
  145MOL    H2517593   6.704   4.924   0.664  0.0699  1.0268 -1.1022
  145MOL    C2617594   6.893   4.904   0.770 -0.0823 -0.1638  0.2719
  145MOL   Cl2717595   7.066   4.929   0.745  0.1972 -0.0203  0.1489
  145MOL   Cl2817596   6.868   4.747   0.855 -0.2020 -0.0770 -0.2931
  145MOL    C2917597   6.842   5.027   0.860 -0.3007 -0.0572 -0.9347
  145MOL    H3017598   6.836   5.116   0.797 -1.3980  0.2081 -0.4597
  145MOL    H3117599   6.741   4.999   0.889 -0.6194 -0.5691 -2.5015
  145MOL    C3217600   6.912   5.073   0.990 -0.3564  0.3542 -0.4781
  145MOL   Cl3317601   6.796   5.171   1.076 -0.2270 -0.2270 -0.0818
  145MOL   Cl3417602   7.054   5.167   0.953 -0.4911 -0.0004  0.2920
  145MOL    C3517603   6.960   4.958   1.090 -0.4635  0.4275 -0.4218
  145MOL    H3617604   6.872   4.893   1.091 -0.5022  0.4933  0.3100
  145MOL    H3717605   7.040   4.901   1.042 -2.0842 -0.4798 -2.1247
  145MOL    C3817606   6.997   4.981   1.239  0.2886 -0.1389 -0.1857
  145MOL   Cl3917607   7.031   4.817   1.295  0.1024 -0.4066 -0.4937
  145MOL   Cl4017608   6.865   5.032   1.348  0.0701 -0.2746 -0.2231
  145MOL    C4117609   7.124   5.074   1.247 -0.6690  0.1206 -0.0469
  145MOL    H4217610   7.179   5.068   1.154  0.3405 -1.5985  0.6294
  145MOL    H4317611   7.075   5.171   1.246  0.1219  0.5173 -0.0825
  145MOL    C4417612   7.218   5.082   1.375 -0.1403  0.4338  0.3139
  145MOL   Cl4517613   7.128   5.086   1.535 -0.3039 -0.5638  0.1497
  145MOL   Cl4617614   7.288   5.243   1.362  0.4128  0.1248 -0.1897
  145MOL    C4717615   7.338   4.972   1.385 -0.1302  0.2909 -0.3341
  145MOL    H4817616   7.398   5.005   1.469 -0.7059 -3.0635  1.4836
  145MOL    H4917617   7.299   4.875   1.416 -0.8294 -0.1354 -2.4262
  145MOL    C5017618   7.419   4.939   1.261 -0.1834 -0.6504 -0.2555
  145MOL   Cl5117619   7.469   5.080   1.169 -0.0728  0.0897  0.1551
  145MOL   Cl5217620   7.320   4.840   1.163 -0.1550 -0.0107 -0.1677
  145MOL    C5317621   7.540   4.854   1.302 -0.2559 -0.5187  0.0963
  145MOL    H5417622   7.601   4.905   1.376  0.0780  0.1304 -0.6252
  145MOL    H5517623   7.505   4.769   1.361 -1.0272 -0.1569  0.1662
  145MOL    C5617624   7.645   4.803   1.198  0.2201  0.4264  0.4818
  145MOL   Cl5717625   7.568   4.677   1.094  0.1955 -0.0569  0.5109
  145MOL   Cl5817626   7.766   4.711   1.293  0.1352 -0.1140  0.0376
  145MOL    C5917627   7.726   4.901   1.103  1.2428  0.6413 -0.0789
  145MOL    H6017628   7.653   4.916   1.023  1.2337 -1.0565 -0.4076
  145MOL    H6117629   7.752   4.994   1.154 -0.8218  0.8473  0.6459
  145MOL    C6217630   7.859   4.860   1.025 -0.1089 -0.6407 -0.8659
  145MOL   Cl6317631   7.876   4.975   0.894 -0.0505  0.5282 -0.2301
  145MOL   Cl6417632   7.841   4.708   0.942 -0.3795  0.0685 -0.0909
  145MOL    C6517633   7.999   4.850   1.105  0.2303  0.3025  0.3786
  145MOL    H6617634   7.989   4.769   1.176  1.7959 -2.0987 -2.0419
  145MOL    H6717635   8.074   4.817   1.033  1.7468  3.9541  0.1576
  145MOL    C6817636   8.064   4.963   1.189 -0.0304  0.3383  0.0030
  145MOL   Cl6917637   8.203   4.893   1.278 -0.0623 -0.1145  0.0842
  145MOL   Cl7017638   7.950   5.022   1.306 -0.1299 -0.1230 -0.2454
  145MOL    C7117639   8.102   5.083   1.105  0.2682  0.1319  0.3060
  145MOL    H7217640   8.151   5.042   1.017 -0.7211  0.6303 -0.4934
  145MOL    H7317641   8.009   5.128   1.068 -0.6280 -0.8865  1.3016
  145MOL    C7417642   8.210   5.189   1.158 -0.2139  0.4943 -0.4860
  145MOL   Cl7517643   8.373   5.114   1.168 -0.0463 -0.3010  0.3366
  145MOL   Cl7617644   8.171   5.250   1.326 -0.0704  0.1294 -0.3820
  145MOL    C7717645   8.217   5.322   1.084 -0.4338 -0.3470 -0.5426
  145MOL    H7817646   8.129   5.376   1.120  0.7808 -0.4455  2.6986
  145MOL    H7917647   8.296   5.385   1.125 -0.5593 -0.5986  0.0888
  145MOL    C8017648   8.216   5.324   0.930 -0.3883 -0.1995 -0.3998
  145MOL   Cl8117649   8.052   5.295   0.865  0.0493 -0.0368 -0.1993
  145MOL   Cl8217650   8.313   5.198   0.856  0.1247 -0.0711 -0.2653
  145MOL    C8317651   8.266   5.467   0.877 -0.4815  0.4769  0.3831
  145MOL    H8417652   8.372   5.475   0.901 -0.7358 -0.4637  1.8934
  145MOL    H8517653   8.267   5.453   0.769  3.1023 -0.0416  0.4318
  145MOL    C8617654   8.196   5.601   0.932 -0.0072  0.2879 -0.1278
  145MOL   Cl8717655   8.255   5.625   1.102  0.0244 -0.0045  0.0072
  145MOL   Cl8817656   8.025   5.593   0.938 -0.0301 -0.4644 -0.2366
  145MOL    C8917657   8.247   5.731   0.861 -0.1480 -0.1932 -0.5867
  145MOL    H9017658   8.231   5.823   0.918  1.0700 -0.6230  0.4764
  145MOL    H9117659   8.354   5.710   0.867 -0.3290 -1.4839 -1.6997
  145MOL    C9217660   8.207   5.764   0.709 -0.5402 -0.0122  0.1410
  145MOL   Cl9317661   8.260   5.638   0.599  0.1080 -0.2026 -0.1969
  145MOL   Cl9417662   8.306   5.906   0.656  0.3010  0.3330 -0.0891
  145MOL    C9517663   8.052   5.793   0.692  0.0706 -0.4455 -0.7648
  145MOL    H9617664   7.996   5.700   0.683 -1.0964  0.1844 -0.0343
  145MOL    H9717665   8.031   5.833   0.791  1.0980 -0.3164 -0.5910
  145MOL    C9817666   7.986   5.892   0.594  0.0833 -0.1212 -0.2940
  145MOL   Cl9917667   8.032   6.062   0.641 -0.2397  0.1535  0.2422
  145MOL  Cl10017668   7.811   5.868   0.612  0.2191  0.0211  0.2590
  145MOL   C10117669   8.021   5.853   0.447 -1.0554 -0.5750 -0.4943
  145MOL   H10217670   8.122   5.813   0.445 -0.2129  1.3955  0.3856
  145MOL   H10317671   7.953   5.770   0.428 -2.3646  0.0200  1.4300
  145MOL   C10417672   8.009   5.957   0.332  0.1090 -0.7246 -0.1084
  145MOL  Cl10517673   8.124   6.101   0.345  0.0928  0.2756  0.1462
  145MOL  Cl10617674   7.852   6.038   0.347 -0.3215 -0.2917 -0.3572
  145MOL   C10717675   8.034   5.901   0.184  0.4282  0.4796 -0.4242
  145MOL   H10817676   8.023   5.989   0.121 -2.3391  1.4845  1.3185
  145MOL   H10917677   8.141   5.887   0.177  0.5058  0.7548  0.1776
  145MOL   C11017678   7.954   5.776   0.128  0.1467  0.4218 -0.4972
  145MOL  Cl11117679   7.786   5.759   0.196 -0.6428 -0.1620  0.1283
  145MOL  Cl11217680   8.040   5.636   0.206  0.3904 -0.0302  0.0405
  145MOL   C11317681   7.948   5.764   9.160 -0.1923  0.1015 -0.4463
  145MOL   H11417682   7.900   5.667   9.147 -0.5829  0.2806 -0.3434
  145MOL   H11517683   7.879   5.839   9.121  0.9355  0.4747 -1.7574
  145MOL   C11617684   8.074   5.751   9.069 -0.1455 -0.2104 -0.7680
  145MOL  Cl11717685   8.190   5.617   9.097  0.0323  0.1954 -0.1063
  145MOL  Cl11817686   8.167   5.907   9.068  0.0498  0.2149 -0.1643
  145MOL   C11917687   8.037   5.734   8.925  0.0895 -0.4239  0.3237
  145MOL   H12017688   8.133   5.726   8.873 -0.3626  0.7718 -0.7227
  145MOL   H12117689   7.990   5.640   8.897  0.4064 -0.4056 -0.2890
  145MOL   H12217690   7.982   5.821   8.891 -0.4173 -0.9284 -0.1499
  146MOL     C117691   1.112   8.769   5.107  0.7304 -0.3045 -0.1297
  146MOL    Cl217692   1.278   8.746   5.059  0.0320 -0.1108  0.0105
  146MOL    Cl317693   1.026   8.750   4.955 -0.2593  0.1387  0.3743
  146MOL     C417694   1.066   8.673   5.213  0.0922  0.1767  0.4814
  146MOL     H517695   0.967   8.710   5.239 -1.2298 -0.9601 -2.6666
  146MOL     H617696   1.044   8.575   5.171  0.7327  0.1036  0.3149
  146MOL     H717697   1.103   8.873   5.139  1.0695  0.2090 -1.6600
  146MOL     C817698   1.138   8.661   5.348 -0.2961 -0.6447  0.2631
  146MOL    Cl917699   1.031   8.573   5.460 -0.0232 -0.3854  0.7253
  146MOL   Cl1017700   1.171   8.831   5.402 -0.2749 -0.2081 -0.1164
  146MOL    C1117701   1.278   8.595   5.339 -0.0554  0.3835 -0.6969
  146MOL    H1217702   1.278   8.528   5.254  1.2557  0.8465 -1.0806
  146MOL    H1317703   1.350   8.671   5.307  0.5365 -0.7966 -2.1980
  146MOL    C1417704   1.338   8.507   5.461  0.3639  0.1438  0.1000
  146MOL   Cl1517705   1.336   8.614   5.600 -0.2840  0.0235 -0.2978
  146MOL   Cl1617706   1.513   8.486   5.422  0.2051  0.3670 -0.1983
  146MOL    C1717707   1.278   8.367   5.494 -0.8804  0.1676  0.2780
  146MOL    H1817708   1.346   8.321   5.565 -1.8100 -0.6589  0.6563
  146MOL    H1917709   1.181   8.375   5.543 -1.3960  0.8258 -0.8313
  146MOL    C2017710   1.256   8.252   5.387  0.0347  0.1464  0.3108
  146MOL   Cl2117711   1.409   8.201   5.312 -0.0829  0.1647 -0.3343
  146MOL   Cl2217712   1.150   8.305   5.257 -0.1970 -0.1966 -0.3405
  146MOL    C2317713   1.191   8.132   5.462 -0.7514 -0.0729 -0.4762
  146MOL    H2417714   1.253   8.128   5.552  0.3265 -1.2406 -1.2509
  146MOL    H2517715   1.090   8.151   5.498 -0.7954 -0.8719 -0.1663
  146MOL    C2617716   1.193   7.993   5.405 -0.4494 -0.0757  0.0083
  146MOL   Cl2717717   1.088   7.907   5.520  0.1232  0.1121 -0.4690
  146MOL   Cl2817718   1.350   7.916   5.416 -0.2910 -0.3760 -0.0455
  146MOL    C2917719   1.132   7.988   5.267  0.1537 -0.2895 -0.5699
  146MOL    H3017720   1.041   8.048   5.269  0.6918  0.5337 -0.5214
  146MOL    H3117721   1.202   8.036   5.199  0.4371 -0.0132 -0.0884
  146MOL    C3217722   1.085   7.851   5.207  0.1474 -0.3337  0.1253
  146MOL   Cl3317723   0.924   7.801   5.276  0.1113  0.4451  0.4466
  146MOL   Cl3417724   1.209   7.731   5.243  0.3479  0.4352  0.6605
  146MOL    C3517725   1.066   7.870   5.051  0.0068 -0.1796  0.0498
  146MOL    H3617726   0.977   7.932   5.048 -0.3612 -0.6420  1.0502
  146MOL    H3717727   1.146   7.927   5.004  0.2823 -1.2844 -0.8492
  146MOL    C3817728   1.048   7.755   4.948 -0.3908 -0.3585  0.5793
  146MOL   Cl3917729   1.210   7.680   4.941  0.1102 -0.4294 -0.2460
  146MOL   Cl4017730   1.020   7.832   4.783 -0.0279 -0.2160 -0.2491
  146MOL    C4117731   0.940   7.661   4.988  0.1800 -0.1056 -0.1331
  146MOL    H4217732   0.978   7.614   5.078  1.4901 -2.6388 -1.9641
  146MOL    H4317733   0.852   7.715   5.022  2.1243  2.5199  0.9902
  146MOL    C4417734   0.905   7.544   4.892 -0.4454 -0.3742 -0.5166
  146MOL   Cl4517735   0.807   7.619   4.760 -0.4242  0.1161  0.3139
  146MOL   Cl4617736   0.787   7.448   4.991 -0.1719  0.1414  0.4332
  146MOL    C4717737   1.025   7.460   4.837  0.0601 -0.0024  0.4947
  146MOL    H4817738   1.082   7.524   4.770  1.0394  0.3428  1.6479
  146MOL    H4917739   1.091   7.456   4.923 -1.4019 -0.7366  1.5903
  146MOL    C5017740   1.018   7.323   4.764  0.1988 -0.5763 -0.5584
  146MOL   Cl5117741   0.885   7.309   4.648  0.6599 -0.6727 -0.5907
  146MOL   Cl5217742   1.007   7.189   4.883 -0.3970 -0.0909 -0.1316
  146MOL    C5317743   1.143   7.300   4.662  0.6785 -0.2622  0.3286
  146MOL    H5417744   1.104   7.221   4.597  0.0427  0.9060 -0.7382
  146MOL    H5517745   1.155   7.386   4.597  1.2395  0.0733  0.8684
  146MOL    C5617746   1.290   7.278   4.708 -0.0891  0.4388 -0.4264
  146MOL   Cl5717747   1.322   7.112   4.762 -0.3565 -0.1168 -0.0740
  146MOL   Cl5817748   1.335   7.385   4.846 -0.4370  0.3969 -0.2510
  146MOL    C5917749   1.387   7.307   4.586 -0.2095  0.5300  0.2853
  146MOL    H6017750   1.477   7.253   4.613 -1.2314 -0.3515  2.0222
  146MOL    H6117751   1.341   7.259   4.500 -0.8679  1.4532  0.1096
  146MOL    C6217752   1.452   7.445   4.551  0.2049 -0.1029  0.5928
  146MOL   Cl6317753   1.524   7.418   4.395 -0.5532  0.1362 -0.3566
  146MOL   Cl6417754   1.577   7.464   4.674  0.0055  0.1881  0.2082
  146MOL    C6517755   1.351   7.566   4.543 -0.4173 -0.0011 -0.7580
  146MOL    H6617756   1.259   7.528   4.499 -0.5865  1.7793 -2.0276
  146MOL    H6717757   1.315   7.584   4.644 -3.6360 -2.1487 -1.4405
  146MOL    C6817758   1.390   7.697   4.468 -0.2969  0.0395 -0.4570
  146MOL   Cl6917759   1.258   7.806   4.524 -0.2145  0.0873 -0.1538
  146MOL   Cl7017760   1.367   7.671   4.295 -0.0023 -0.1424 -0.3979
  146MOL    C7117761   1.529   7.746   4.516  0.0698 -0.0510  0.2885
  146MOL    H7217762   1.539   7.731   4.623  2.0236 -1.6044 -0.0841
  146MOL    H7317763   1.602   7.674   4.479 -1.0571 -1.0437 -0.0578
  146MOL    C7417764   1.580   7.885   4.484  0.3380 -0.9820 -0.2087
  146MOL   Cl7517765   1.758   7.881   4.515 -0.3138  0.1424 -0.3508
  146MOL   Cl7617766   1.503   7.989   4.607  0.1025 -0.4565  0.1230
  146MOL    C7717767   1.549   7.950   4.342  0.4726 -0.6549  0.5070
  146MOL    H7817768   1.444   7.932   4.320  1.4369 -2.2409 -3.2475
  146MOL    H7917769   1.554   8.059   4.348  2.6921 -0.8161  2.2414
  146MOL    C8017770   1.631   7.921   4.209 -0.7198 -0.0660  0.1998
  146MOL   Cl8117771   1.681   7.749   4.219  0.1033 -0.0642 -0.0805
  146MOL   Cl8217772   1.791   8.009   4.219 -0.3097  0.2407 -0.0537
  146MOL    C8317773   1.552   7.930   4.078  0.9412 -0.3479  0.0749
  146MOL    H8417774   1.604   7.865   4.007 -2.4113 -1.0776 -1.8298
  146MOL    H8517775   1.452   7.890   4.098  0.5481  0.8944  0.6295
  146MOL    C8617776   1.508   8.062   4.010 -0.3654  0.8158 -0.3321
  146MOL   Cl8717777   1.648   8.153   3.963  0.0086  0.2565  0.2846
  146MOL   Cl8817778   1.418   8.168   4.127  0.0204 -0.5337 -0.4687
  146MOL    C8917779   1.431   8.040   3.877  0.1790 -0.3878 -0.6168
  146MOL    H9017780   1.395   8.138   3.847  0.0494  0.4348  2.1248
  146MOL    H9117781   1.504   8.001   3.806 -0.1385 -1.2583 -0.4689
  146MOL    C9217782   1.308   7.949   3.872 -0.1559 -0.9212 -0.1761
  146MOL   Cl9317783   1.197   7.975   4.011 -0.2800 -0.7993 -0.2385
  146MOL   Cl9417784   1.358   7.782   3.868  0.2079 -0.1580  0.2515
  146MOL    C9517785   1.214   7.979   3.746 -0.4696 -0.1785  0.5321
  146MOL    H9617786   1.117   7.940   3.775 -0.4844  0.7993  1.8811
  146MOL    H9717787   1.204   8.087   3.733  3.0291  0.3045  1.3183
  146MOL    C9817788   1.239   7.915   3.603  0.7610  0.0541 -0.3776
  146MOL   Cl9917789   1.207   7.741   3.603 -0.0029 -0.0251  0.0291
  146MOL  Cl10017790   1.402   7.952   3.563  0.1008  0.1310 -0.3656
  146MOL   C10117791   1.137   7.973   3.498 -0.2222 -0.4954 -0.4714
  146MOL   H10217792   1.034   7.970   3.531  0.2938  1.1605  1.3775
  146MOL   H10317793   1.158   8.080   3.499 -1.5110 -0.2466 -0.0402
  146MOL   C10417794   1.134   7.938   3.347  0.3267 -0.3698  0.8696
  146MOL  Cl10517795   1.035   8.070   3.284  0.2143 -0.2316  0.2220
  146MOL  Cl10617796   1.037   7.794   3.321 -0.3545  0.1058 -0.1807
  146MOL   C10717797   1.279   7.926   3.287  0.1665 -0.3917 -0.3087
  146MOL   H10817798   1.337   8.013   3.320 -3.8103  1.5323  1.9457
  146MOL   H10917799   1.319   7.835   3.333  1.1997 -0.0690 -0.5448
  146MOL   C11017800   1.308   7.924   3.133  0.1436  0.0253 -0.2515
  146MOL  Cl11117801   1.481   7.886   3.125  0.1084 -0.0174  0.3533
  146MOL  Cl11217802   1.285   8.087   3.061  0.6848 -0.0587 -0.2538
  146MOL   C11317803   1.240   7.806   3.057 -0.5577 -0.1221  0.7287
  146MOL   H11417804   1.271   7.717   3.112  2.7262  0.8988  0.6524
  146MOL   H11517805   1.135   7.823   3.080 -0.8039 -1.3776  0.5361
  146MOL   C11617806   1.252   7.789   2.904  1.2494  0.5390 -0.1030
  146MOL  Cl11717807   1.142   7.904   2.822 -0.2070 -0.0210  0.0805
  146MOL  Cl11817808   1.198   7.633   2.850  0.1718  0.1564 -0.4851
  146MOL   C11917809   1.395   7.800   2.845  0.6528 -0.3452  0.1520
  146MOL   H12017810   1.459   7.731   2.901  1.1358  0.8190  1.0726
  146MOL   H12117811   1.385   7.763   2.743 -0.6070 -0.4684  0.3176
  146MOL   H12217812   1.428   7.904   2.843  0.2529 -0.2247 -0.3714
  147MOL     C117813   2.188   8.877   1.986 -0.7193  0.0688  0.1876
  147MOL    Cl217814   2.254   9.016   1.893  0.0263  0.0260 -0.4400
  147MOL    Cl317815   2.325   8.805   2.064 -0.3094 -0.1805  0.0270
  147MOL     C417816   2.074   8.925   2.082  0.2516  0.0059 -0.3358
  147MOL     H517817   2.124   8.985   2.157 -1.9446 -0.4568  1.5393
  147MOL     H617818   2.015   8.991   2.018 -0.6634 -0.5698 -0.1036
  147MOL     H717819   2.155   8.810   1.906 -1.0115  0.0518  0.3221
  147MOL     C817820   1.979   8.821   2.141  0.7971 -0.2022  0.4143
  147MOL    Cl917821   2.053   8.714   2.272 -0.2450  0.2173 -0.1454
  147MOL   Cl1017822   1.939   8.717   2.003  0.2050  0.4425 -0.1177
  147MOL    C1117823   1.840   8.880   2.189 -0.5769 -0.0783 -0.6398
  147MOL    H1217824   1.799   8.912   2.094 -5.0901  0.3343  1.3209
  147MOL    H1317825   1.779   8.800   2.231 -1.3348  0.0622 -1.4782
  147MOL    C1417826   1.819   8.990   2.300  0.4870 -0.4994  0.1119
  147MOL   Cl1517827   1.922   9.124   2.255  0.0816  0.2184 -0.5542
  147MOL   Cl1617828   1.870   8.922   2.458  0.7687 -0.2389  0.2587
  147MOL    C1717829   1.676   9.047   2.325 -0.6093 -0.0237  0.5183
  147MOL    H1817830   1.634   8.974   2.394 -2.6363 -0.1538 -0.8068
  147MOL    H1917831   1.688   9.143   2.374  3.1483 -0.3211  0.2860
  147MOL    C2017832   1.577   9.073   2.207 -0.2942 -0.3596 -0.7404
  147MOL   Cl2117833   1.539   8.908   2.130  0.4563 -0.3012  0.4018
  147MOL   Cl2217834   1.647   0.007   2.089 -0.4169  0.2527  0.5103
  147MOL    C2317835   1.440   9.129   2.249 -0.6418 -0.3551  0.2922
  147MOL    H2417836   1.396   9.155   2.153  1.8824  0.2567 -0.7396
  147MOL    H2517837   1.374   9.051   2.289  1.9302 -0.9169  3.6701
  147MOL    C2617838   1.426   0.060   2.360 -0.4024  0.8045  0.1828
  147MOL   Cl2717839   1.520   0.203   2.304  0.5028  0.3274 -0.4078
  147MOL   Cl2817840   1.491   0.009   2.522  0.2816 -0.0367 -0.1408
  147MOL    C2917841   1.273   0.095   2.373 -0.0703  0.6537 -0.3024
  147MOL    H3017842   1.233   0.092   2.272  0.1886 -0.6218 -0.3708
  147MOL    H3117843   1.233   0.018   2.438  0.7418 -0.1548 -0.7402
  147MOL    C3217844   1.215   0.226   2.443  0.5768 -0.7546 -0.2661
  147MOL   Cl3317845   1.294   0.263   2.599 -0.0144  0.0754  0.2959
  147MOL   Cl3417846   1.043   0.185   2.487 -0.1368 -0.1132  0.0518
  147MOL    C3517847   1.219   0.355   2.350  0.1014  0.1737 -0.1077
  147MOL    H3617848   1.325   0.377   2.339  0.1604 -0.7233 -1.4046
  147MOL    H3717849   1.199   0.329   2.246  2.5006  0.4664 -0.6825
  147MOL    C3817850   1.136   0.483   2.383  0.1775 -0.0635  0.0589
  147MOL   Cl3917851   1.147   0.540   2.559 -0.0295  0.3769 -0.2651
  147MOL   Cl4017852   0.960   0.460   2.341  0.2243  0.0953 -0.0547
  147MOL    C4117853   1.184   0.605   2.296  0.2779  0.4452 -0.1255
  147MOL    H4217854   1.111   0.686   2.303 -1.3970 -1.1065  0.5155
  147MOL    H4317855   1.279   0.637   2.339  0.9446 -0.6625 -0.7591
  147MOL    C4417856   1.219   0.591   2.146  0.0990  0.1090  0.2456
  147MOL   Cl4517857   1.083   0.506   2.051 -0.1399 -0.2447  0.0378
  147MOL   Cl4617858   1.365   0.508   2.114  0.1923  0.3073 -0.0640
  147MOL    C4717859   1.231   0.730   2.083 -0.2081 -0.4527  0.0852
  147MOL    H4817860   1.263   0.724   1.979 -0.7476 -0.4563 -0.0796
  147MOL    H4917861   1.135   0.777   2.063  0.0338 -0.9637 -2.4459
  147MOL    C5017862   1.326   0.846   2.149 -0.7797 -0.5114 -0.6769
  147MOL   Cl5117863   1.490   0.784   2.163 -0.1254  0.1274  0.1147
  147MOL   Cl5217864   1.268   0.901   2.307 -0.2371 -0.0347 -0.2466
  147MOL    C5317865   1.329   0.971   2.052 -0.5695 -0.2041 -0.1832
  147MOL    H5417866   1.369   0.951   1.953 -1.0164  1.8341 -0.8065
  147MOL    H5517867   1.231   1.016   2.034  0.4287  3.4088  2.5730
  147MOL    C5617868   1.406   1.101   2.082  0.2799  0.5967  0.4800
  147MOL   Cl5717869   1.347   1.207   1.946 -0.2889  0.1323  0.0176
  147MOL   Cl5817870   1.577   1.067   2.038  0.0375  0.3906 -0.2680
  147MOL    C5917871   1.391   1.165   2.222 -0.2985 -0.4663 -0.4944
  147MOL    H6017872   1.290   1.147   2.260  0.8004 -2.6195  1.5114
  147MOL    H6117873   1.455   1.103   2.285  0.7408 -0.6994 -1.7723
  147MOL    C6217874   1.427   1.317   2.232  0.0938 -0.2711 -0.1585
  147MOL   Cl6317875   1.604   1.346   2.184 -0.5109 -0.1327  0.2126
  147MOL   Cl6417876   1.432   1.332   2.412  0.0785 -0.0758  0.3970
  147MOL    C6517877   1.327   1.428   2.189  0.0637  0.3480 -0.2305
  147MOL    H6617878   1.267   1.403   2.102 -1.2808  1.4789  0.3563
  147MOL    H6717879   1.257   1.431   2.273  0.5262 -0.5794  0.1918
  147MOL    C6817880   1.384   1.570   2.162 -0.3224  0.2198  0.7463
  147MOL   Cl6917881   1.477   1.634   2.291 -0.0939 -0.0525  0.0359
  147MOL   Cl7017882   1.242   1.674   2.161 -0.1352 -0.4113  0.5255
  147MOL    C7117883   1.451   1.590   2.022 -0.8610 -0.0043 -0.2577
  147MOL    H7217884   1.505   1.497   2.007 -1.6274  0.0656 -3.9103
  147MOL    H7317885   1.372   1.579   1.947 -0.1684 -0.4478 -0.9378
  147MOL    C7417886   1.550   1.712   1.995  0.4232 -0.3435  0.1872
  147MOL   Cl7517887   1.480   1.867   2.051 -0.4495 -0.4445 -0.0568
  147MOL   Cl7617888   1.555   1.724   1.812 -0.2395  0.4423 -0.0668
  147MOL    C7717889   1.702   1.688   2.038 -0.3498  0.1423 -0.0448
  147MOL    H7817890   1.702   1.633   2.132 -0.7269 -0.6159 -0.4837
  147MOL    H7917891   1.748   1.612   1.975 -0.0312 -1.7717  2.4197
  147MOL    C8017892   1.800   1.807   2.052  0.2272  0.2087 -0.1395
  147MOL   Cl8117893   1.745   1.886   2.204  0.2878 -0.0163 -0.1162
  147MOL   Cl8217894   1.794   1.923   1.909  0.3003 -0.4443  0.2029
  147MOL    C8317895   1.948   1.766   2.084  0.3316  0.8425  0.4103
  147MOL    H8417896   2.006   1.858   2.086 -0.5009  1.3568  1.0433
  147MOL    H8517897   1.948   1.729   2.186  1.8537 -0.4567 -0.0338
  147MOL    C8617898   2.033   1.664   1.993 -0.3918  0.2126  0.8697
  147MOL   Cl8717899   1.980   1.493   2.001 -0.1429  0.0590 -0.0704
  147MOL   Cl8817900   2.197   1.672   2.064 -0.1532 -0.0610  0.2168
  147MOL    C8917901   2.030   1.700   1.840 -0.3440 -0.0468 -0.7454
  147MOL    H9017902   1.932   1.655   1.825 -0.3041 -1.3644  2.3450
  147MOL    H9117903   2.033   1.808   1.825  2.9124 -0.1281 -1.1966
  147MOL    C9217904   2.140   1.646   1.736 -0.2478 -0.2113  0.0045
  147MOL   Cl9317905   2.178   1.476   1.741  0.1396  0.2032 -0.2548
  147MOL   Cl9417906   2.288   1.735   1.770  0.3873  0.5703  0.3036
  147MOL    C9517907   2.089   1.688   1.593  0.1282  0.8488 -0.3123
  147MOL    H9617908   2.106   1.796   1.595 -0.6635  0.9589  0.9129
  147MOL    H9717909   2.168   1.658   1.524  0.4187  0.9734 -0.0385
  147MOL    C9817910   1.950   1.650   1.537  0.5643 -0.2581  0.7429
  147MOL   Cl9917911   1.835   1.773   1.592  0.3205 -0.0074  0.0367
  147MOL  Cl10017912   1.891   1.496   1.604  0.2916 -0.0066  0.3380
  147MOL   C10117913   1.965   1.635   1.377 -0.3937 -0.3795 -0.8377
  147MOL   H10217914   2.035   1.711   1.342  0.1912 -0.0041  1.0408
  147MOL   H10317915   2.032   1.549   1.367  2.0706  1.1059  1.7421
  147MOL   C10417916   1.856   1.639   1.271  0.8252  0.2437 -0.3288
  147MOL  Cl10517917   1.707   1.546   1.324 -0.0684  0.1318  0.4828
  147MOL  Cl10617918   1.920   1.546   1.129  0.3199  0.2479 -0.4175
  147MOL   C10717919   1.824   1.784   1.230  0.4294  0.1164 -0.1965
  147MOL   H10817920   1.760   1.819   1.311 -0.4906 -2.6581  0.3350
  147MOL   H10917921   1.916   1.841   1.228  0.2077  0.4356 -1.8662
  147MOL   C11017922   1.758   1.820   1.098  0.1296  0.6635 -0.8048
  147MOL  Cl11117923   1.625   1.706   1.061  0.1834  0.1089  0.6847
  147MOL  Cl11217924   1.884   1.819   0.967  0.2097 -0.1331  0.0185
  147MOL   C11317925   1.698   1.960   1.105 -0.4784 -0.6027  0.8141
  147MOL   H11417926   1.651   1.981   1.201 -3.1583  0.8355 -0.7588
  147MOL   H11517927   1.781   2.031   1.110 -1.4428  0.5624  0.5002
  147MOL   C11617928   1.592   2.007   0.998  0.0313 -0.5174 -0.1114
  147MOL  Cl11717929   1.561   2.178   1.052 -0.0187  0.1683  0.1276
  147MOL  Cl11817930   1.433   1.930   1.010 -0.2875 -0.1755 -0.0908
  147MOL   C11917931   1.634   2.009   0.846  1.3826  0.0929 -0.0950
  147MOL   H12017932   1.624   1.907   0.809  0.7357  1.3867 -3.7435
  147MOL   H12117933   1.565   2.066   0.783  1.9926 -1.0591 -1.8690
  147MOL   H12217934   1.738   2.040   0.833  1.4419 -1.0592 -2.8263
  148MOL     C117935   1.023   0.573   4.745  0.3974 -0.3802 -0.1580
  148MOL    Cl217936   1.007   0.748   4.740 -0.1408  0.1490  0.0303
  148MOL    Cl317937   0.909   0.504   4.623  0.4626 -0.3418  0.5065
  148MOL     C417938   1.163   0.527   4.703 -0.9899 -0.0346  0.5415
  148MOL     H517939   1.153   0.424   4.670 -0.2679 -0.4213  1.5113
  148MOL     H617940   1.195   0.592   4.621  1.4583 -0.1931  1.3285
  148MOL     H717941   0.982   0.534   4.838 -0.2447  1.4853  0.3631
  148MOL     C817942   1.275   0.552   4.809 -0.2069  0.9197  0.2026
  148MOL    Cl917943   1.221   0.483   4.963 -0.1842  0.0686  0.3143
  148MOL   Cl1017944   1.299   0.723   4.854  0.1543 -0.0367  0.4337
  148MOL    C1117945   1.414   0.489   4.770  0.3480  0.8858 -1.2125
  148MOL    H1217946   1.486   0.518   4.846  1.5323  0.1110 -2.0213
  148MOL    H1317947   1.397   0.382   4.771 -2.2330  1.2624  1.1284
  148MOL    C1417948   1.473   0.520   4.624  0.5529  0.7322  0.5454
  148MOL   Cl1517949   1.460   0.694   4.591 -0.2659 -0.0192  0.0133
  148MOL   Cl1617950   1.368   0.439   4.503  0.0367  0.4655  0.0008
  148MOL    C1717951   1.618   0.485   4.622 -0.0763 -0.2602 -0.4064
  148MOL    H1817952   1.660   0.553   4.697 -3.5739  0.5784  0.8643
  148MOL    H1917953   1.635   0.387   4.665  1.2132 -0.1064 -0.5286
  148MOL    C2017954   1.703   0.467   4.491  0.0566  0.2514 -0.9961
  148MOL   Cl2117955   1.650   0.546   4.345  0.4193 -0.2224  0.0427
  148MOL   Cl2217956   1.702   0.292   4.445  0.6454  0.0101 -0.0213
  148MOL    C2317957   1.854   0.517   4.505 -0.7952 -0.2232 -0.4526
  148MOL    H2417958   1.905   0.525   4.409 -0.1958  0.5230 -0.0784
  148MOL    H2517959   1.831   0.619   4.534  1.9799  0.4911 -0.5981
  148MOL    C2617960   1.968   0.452   4.595 -0.0741 -0.0863  0.1637
  148MOL   Cl2717961   2.017   0.320   4.495  0.2366 -0.3218 -0.4560
  148MOL   Cl2817962   1.898   0.394   4.749 -0.0457  0.7031  0.0979
  148MOL    C2917963   2.085   0.554   4.611 -0.2555  0.2014  0.1723
  148MOL    H3017964   2.107   0.603   4.516  0.1514  0.4049  0.3708
  148MOL    H3117965   2.041   0.636   4.669 -0.5993 -0.8856  1.4835
  148MOL    C3217966   2.225   0.504   4.680  0.1887 -0.1992  0.0948
  148MOL   Cl3317967   2.208   0.407   4.829  0.0850 -0.0504  0.3711
  148MOL   Cl3417968   2.289   0.666   4.709  0.1137  0.4829  0.0536
  148MOL    C3517969   2.311   0.426   4.571 -0.8801 -0.2509 -0.2256
  148MOL    H3617970   2.261   0.329   4.569  0.5618 -0.9959 -0.8971
  148MOL    H3717971   2.293   0.463   4.470 -3.0557 -1.1669 -0.1959
  148MOL    C3817972   2.461   0.395   4.588  0.3970 -0.1350  0.0123
  148MOL   Cl3917973   2.556   0.544   4.590 -0.2544 -0.2332 -0.1338
  148MOL   Cl4017974   2.509   0.299   4.444  0.3386  0.0626 -0.2568
  148MOL    C4117975   2.484   0.315   4.717  0.3808  0.0997 -0.3340
  148MOL    H4217976   2.469   0.385   4.799  1.0669 -2.0810  1.7128
  148MOL    H4317977   2.414   0.233   4.728  0.3494  0.1452 -0.1926
  148MOL    C4417978   2.623   0.246   4.741  0.3851  0.2730 -0.2258
  148MOL   Cl4517979   2.624   0.094   4.642 -0.0716 -0.0071  0.3155
  148MOL   Cl4617980   2.620   0.205   4.907  0.1499  0.1520 -0.1844
  148MOL    C4717981   2.745   0.323   4.699 -0.1704 -0.1186 -0.2811
  148MOL    H4817982   2.735   0.354   4.595 -0.1995 -0.7190 -0.4617
  148MOL    H4917983   2.748   0.410   4.764 -1.6792 -0.6671  0.5400
  148MOL    C5017984   2.893   0.269   4.691  0.0286 -0.5988 -0.1389
  148MOL   Cl5117985   2.994   0.418   4.668 -0.1467 -0.3433 -0.4546
  148MOL   Cl5217986   2.901   0.174   4.549  0.3960 -0.4008 -0.5877
  148MOL    C5317987   2.935   0.190   4.820 -0.3448  0.3700  0.6877
  148MOL    H5417988   2.919   0.264   4.899  0.8264  0.4344  0.8628
  148MOL    H5517989   2.862   0.114   4.851  0.5407 -0.0773  1.7056
  148MOL    C5617990   3.068   0.114   4.838  0.5032  0.4746 -0.3916
  148MOL   Cl5717991   3.093   0.010   4.703  0.4522 -0.1466 -0.0176
  148MOL   Cl5817992   3.050   0.008   4.980 -0.1753 -0.0181  0.5215
  148MOL    C5917993   3.186   0.199   4.870  0.7664  0.5996 -0.1216
  148MOL    H6017994   3.149   0.295   4.835  0.2791  0.4427 -0.0445
  148MOL    H6117995   3.183   0.210   4.978 -1.4544 -0.7022 -0.0351
  148MOL    C6217996   3.331   0.166   4.823  0.6882  0.2906  0.4857
  148MOL   Cl6317997   3.334   0.221   4.650  0.1259 -0.3505 -0.3950
  148MOL   Cl6417998   3.375   9.175   4.834  0.3092  0.0761 -0.4363
  148MOL    C6517999   3.429   0.235   4.911 -0.0773  0.0395  0.4792
  148MOL    H6618000   3.394   0.329   4.952  1.4093  0.3898  0.9948
  148MOL    H6718001   3.432   0.184   5.007  0.3097  0.5085  0.7196
  148MOL    C6818002   3.570   0.269   4.863 -0.7812  0.3786 -0.5686
  148MOL   Cl6918003   3.647   0.299   5.019 -0.2364 -0.3973  0.4017
  148MOL   Cl7018004   3.583   0.423   4.765  0.2842  0.2063 -0.0757
  148MOL    C7118005   3.647   0.149   4.793 -0.1063  0.3024  0.0733
  148MOL    H7218006   3.651   0.071   4.869  2.6563  1.2635  0.9848
  148MOL    H7318007   3.584   0.115   4.711  0.1491 -0.4744  0.1973
  148MOL    C7418008   3.792   0.153   4.733 -0.0282 -0.0422  0.6697
  148MOL   Cl7518009   3.828   9.165   4.679  0.3020 -0.2361  0.0263
  148MOL   Cl7618010   3.903   0.189   4.868  0.1812  0.0972  0.4802
  148MOL    C7718011   3.814   0.266   4.621 -0.2509  0.0382  0.6800
  148MOL    H7818012   3.720   0.293   4.573  0.3471  1.5611  0.3207
  148MOL    H7918013   3.845   0.358   4.672 -2.6789  1.9239 -1.1730
  148MOL    C8018014   3.919   0.244   4.506 -0.2348  0.3954  0.4870
  148MOL   Cl8118015   3.934   0.398   4.428 -0.4770 -0.2674 -0.0266
  148MOL   Cl8218016   3.858   0.118   4.399  0.1319  0.0194  0.0487
  148MOL    C8318017   4.061   0.199   4.565  0.2458 -0.1118 -0.5051
  148MOL    H8418018   4.076   0.274   4.642 -1.3281 -1.3006  1.0026
  148MOL    H8518019   4.039   0.110   4.624 -2.0366  0.4992 -0.3817
  148MOL    C8618020   4.185   0.177   4.471  0.3821 -0.5384 -0.2065
  148MOL   Cl8718021   4.243   0.333   4.406 -0.5159 -0.2290  0.0350
  148MOL   Cl8818022   4.144   0.067   4.332  0.3468 -0.1744  0.1459
  148MOL    C8918023   4.300   0.113   4.561 -0.1992  0.0926 -0.4284
  148MOL    H9018024   4.329   0.198   4.623  2.1592 -0.2227 -1.0305
  148MOL    H9118025   4.257   0.044   4.634 -2.0325  1.6087 -0.0235
  148MOL    C9218026   4.415   0.035   4.492  0.4345 -0.3655  0.7477
  148MOL   Cl9318027   4.357   9.039   4.467 -0.3580  0.1827  0.4919
  148MOL   Cl9418028   4.540   0.018   4.611 -0.4178  0.0096 -0.0635
  148MOL    C9518029   4.479   0.109   4.369  0.2496 -0.0271 -0.0463
  148MOL    H9618030   4.402   0.162   4.312  0.5858  0.9521  0.3948
  148MOL    H9718031   4.539   0.182   4.422  0.8790 -2.4601  2.7013
  148MOL    C9818032   4.572   0.024   4.271 -0.0845  0.1633 -0.8431
  148MOL   Cl9918033   4.659   0.135   4.162  0.1178 -0.0689 -0.0653
  148MOL  Cl10018034   4.472   9.099   4.168  0.0398 -0.1283  0.1044
  148MOL   C10118035   4.675   9.106   4.339 -0.3456 -0.4404  0.0803
  148MOL   H10218036   4.620   9.046   4.412 -2.4172  1.3070 -0.0001
  148MOL   H10318037   4.695   9.038   4.256 -3.1350  1.7480 -2.5224
  148MOL   C10418038   4.806   9.162   4.406  0.3478  0.5027 -0.5097
  148MOL  Cl10518039   4.827   9.064   4.555  0.0254 -0.3095  0.0473
  148MOL  Cl10618040   4.797   0.155   4.451 -0.5701 -0.0232  0.2699
  148MOL   C10718041   4.928   9.127   4.315  0.0575  0.0227 -0.5097
  148MOL   H10818042   4.909   9.034   4.262 -1.2241 -1.7424  2.9001
  148MOL   H10918043   4.908   0.030   4.249  1.8670 -0.6900 -2.0163
  148MOL   C11018044   5.081   9.133   4.371  0.0711  0.0825  0.7195
  148MOL  Cl11118045   5.117   8.966   4.428 -0.0836 -0.2464 -0.2384
  148MOL  Cl11218046   5.089   0.054   4.509 -0.3983  0.0415 -0.0201
  148MOL   C11318047   5.188   9.160   4.258 -0.6503  0.1043  0.0994
  148MOL   H11418048   5.280   9.101   4.253 -0.8035 -0.1512  0.2718
  148MOL   H11518049   5.152   9.137   4.158  1.1381 -0.9271 -0.3373
  148MOL   C11618050   5.234   0.127   4.234  0.3689 -0.0625 -0.6030
  148MOL  Cl11718051   5.093   0.242   4.245  0.0215 -0.1517 -0.1315
  148MOL  Cl11818052   5.300   0.126   4.068  0.1087 -0.0188 -0.3341
  148MOL   C11918053   5.343   0.169   4.326  0.1500  0.5053  0.0728
  148MOL   H12018054   5.377   0.272   4.309 -1.3724  0.8328 -1.0973
  148MOL   H12118055   5.315   0.164   4.431 -1.1350 -0.4195 -0.2948
  148MOL   H12218056   5.428   0.102   4.315 -0.0082 -0.0105  1.8330
  149MOL     C118057   3.894   0.743   4.809  0.3719  0.3699  0.1667
  149MOL    Cl218058   3.732   0.691   4.878 -0.0191  0.0264  0.3022
  149MOL    Cl318059   3.936   0.618   4.687  0.3520  0.2626 -0.2284
  149MOL     C418060   3.894   0.888   4.752  0.3360  0.2278  0.4794
  149MOL     H518061   3.988   0.902   4.698 -0.3265  1.9443 -0.2495
  149MOL     H618062   3.823   0.884   4.670  2.4632  0.1750 -1.4197
  149MOL     H718063   3.971   0.730   4.885  1.4166  2.8393 -0.4121
  149MOL     C818064   3.846   1.011   4.832  0.1784  1.1674 -0.2323
  149MOL    Cl918065   3.880   1.147   4.717 -0.2256 -0.0428  0.0908
  149MOL   Cl1018066   3.952   1.006   4.977  0.2011  0.2318  0.0451
  149MOL    C1118067   3.699   1.022   4.881 -0.2759  0.3253 -0.2417
  149MOL    H1218068   3.639   0.978   4.801 -0.9585  0.9807 -0.1048
  149MOL    H1318069   3.692   0.952   4.964 -1.1057  1.5178  0.7195
  149MOL    C1418070   3.628   1.149   4.915  0.5800 -0.2375  0.2160
  149MOL   Cl1518071   3.485   1.095   5.002  0.2022 -0.2586  0.0428
  149MOL   Cl1618072   3.560   1.218   4.769 -0.1285 -0.2264  0.0761
  149MOL    C1718073   3.707   1.250   4.997  0.1145  0.1283  0.2376
  149MOL    H1818074   3.715   1.190   5.088 -1.7407  1.2694  1.1903
  149MOL    H1918075   3.812   1.257   4.969 -0.6625  3.1194 -2.1583
  149MOL    C2018076   3.667   1.391   5.032 -0.4709  0.0063 -0.7844
  149MOL   Cl2118077   3.706   1.490   4.884  0.4166  0.1960  0.1107
  149MOL   Cl2218078   3.775   1.440   5.158 -0.4322 -0.0975  0.2727
  149MOL    C2318079   3.517   1.409   5.068 -0.2501  0.1357  0.7916
  149MOL    H2418080   3.457   1.377   4.984  2.0604  0.7712 -1.1607
  149MOL    H2518081   3.499   1.327   5.138 -0.2044 -1.1599 -0.6928
  149MOL    C2618082   3.449   1.540   5.130  0.8427  0.3059 -0.1294
  149MOL   Cl2718083   3.454   1.517   5.311  0.0756 -0.1986  0.3321
  149MOL   Cl2818084   3.280   1.560   5.074  0.1766  0.3637 -0.0689
  149MOL    C2918085   3.531   1.669   5.087  0.6447 -0.2186  0.0703
  149MOL    H3018086   3.635   1.665   5.119  0.8477 -1.1978 -0.6676
  149MOL    H3118087   3.544   1.673   4.979 -0.3437 -2.9223 -0.1928
  149MOL    C3218088   3.481   1.817   5.115  0.5354 -0.0128  0.6833
  149MOL   Cl3318089   3.348   1.863   5.002 -0.1578 -0.1921 -0.3161
  149MOL   Cl3418090   3.612   1.928   5.069  0.0249 -0.0029  0.0036
  149MOL    C3518091   3.439   1.845   5.259 -0.0561  0.5946  1.0201
  149MOL    H3618092   3.353   1.912   5.256  0.8305  1.7259  0.1207
  149MOL    H3718093   3.377   1.761   5.288 -0.3638  0.3417 -0.3459
  149MOL    C3818094   3.534   1.905   5.358  0.5134 -0.4677 -0.4198
  149MOL   Cl3918095   3.692   1.820   5.375  0.2647  0.3266 -0.4300
  149MOL   Cl4018096   3.462   1.870   5.517 -0.2281  0.2523  0.1996
  149MOL    C4118097   3.561   2.063   5.357  0.4972 -0.4041 -0.2349
  149MOL    H4218098   3.617   2.088   5.447  2.1968 -0.5862 -1.2110
  149MOL    H4318099   3.630   2.096   5.279  0.5345  1.2220  0.4698
  149MOL    C4418100   3.448   2.169   5.355  0.0856 -0.4105 -0.4442
  149MOL   Cl4518101   3.319   2.124   5.461  0.2014  0.0911 -0.0303
  149MOL   Cl4618102   3.393   2.175   5.185  0.1804 -0.2221 -0.0370
  149MOL    C4718103   3.504   2.312   5.382  0.1147  0.1409  0.2398
  149MOL    H4818104   3.548   2.311   5.482 -2.0035 -0.7573  1.2129
  149MOL    H4918105   3.582   2.328   5.308  0.7417 -0.8993  0.6545
  149MOL    C5018106   3.412   2.436   5.393 -0.3542  0.5527  0.1619
  149MOL   Cl5118107   3.341   2.441   5.562 -0.4001 -0.0606  0.2924
  149MOL   Cl5218108   3.263   2.438   5.293 -0.1817  0.3353  0.2542
  149MOL    C5318109   3.490   2.568   5.375  0.2394  0.5394 -0.5158
  149MOL    H5418110   3.423   2.629   5.435  0.0104  0.5581 -0.7903
  149MOL    H5518111   3.587   2.572   5.425 -0.7555 -0.2099  1.5274
  149MOL    C5618112   3.516   2.635   5.232  0.7142 -0.2446 -0.3506
  149MOL   Cl5718113   3.594   2.517   5.135 -0.1921 -0.3921  0.1034
  149MOL   Cl5818114   3.626   2.775   5.262  0.2576  0.1306  0.1854
  149MOL    C5918115   3.380   2.680   5.168  0.0577  0.8766  0.1285
  149MOL    H6018116   3.349   2.588   5.117 -0.4114  0.7468  0.6350
  149MOL    H6118117   3.307   2.696   5.248 -0.0184 -0.4930  0.3604
  149MOL    C6218118   3.368   2.791   5.059 -0.6414 -0.0565  0.2084
  149MOL   Cl6318119   3.496   2.766   4.935 -0.1536  0.0319  0.5214
  149MOL   Cl6418120   3.403   2.953   5.123  0.3389  0.1681  0.0552
  149MOL    C6518121   3.223   2.796   5.008  0.8395  0.2480 -0.3340
  149MOL    H6618122   3.190   2.696   4.979 -1.4170  0.3742  1.6655
  149MOL    H6718123   3.152   2.824   5.085 -1.3594 -1.5557 -1.6593
  149MOL    C6818124   3.170   2.884   4.896  0.1071  0.5578  0.0381
  149MOL   Cl6918125   2.997   2.843   4.869 -0.5151  0.1539 -0.3796
  149MOL   Cl7018126   3.254   2.845   4.742  0.0773 -0.0407  0.0727
  149MOL    C7118127   3.185   3.033   4.922  0.2206 -0.2301  0.5344
  149MOL    H7218128   3.172   3.050   5.029  0.1198  0.4546  0.4121
  149MOL    H7318129   3.289   3.056   4.896  0.5991  0.8331  2.9004
  149MOL    C7418130   3.095   3.135   4.848  0.1095 -0.0208 -0.3586
  149MOL   Cl7518131   3.177   3.297   4.875 -0.4428 -0.2678 -0.1550
  149MOL   Cl7618132   2.934   3.138   4.919 -0.0495 -0.1359 -0.2310
  149MOL    C7718133   3.090   3.117   4.690  0.2817 -0.2184  0.5905
  149MOL    H7818134   3.189   3.142   4.653 -0.1286 -0.0643 -0.4399
  149MOL    H7918135   3.081   3.013   4.660  2.7586 -0.5117  0.8331
  149MOL    C8018136   2.995   3.198   4.594  0.2178 -0.0812  0.4694
  149MOL   Cl8118137   2.823   3.174   4.642 -0.2061 -0.2226 -0.0349
  149MOL   Cl8218138   3.013   3.121   4.434  0.0115 -0.0881  0.4325
  149MOL    C8318139   3.030   3.349   4.590 -0.3606 -0.0352  0.0032
  149MOL    H8418140   3.003   3.378   4.692 -1.8390 -0.9386 -0.1118
  149MOL    H8518141   3.137   3.367   4.577 -0.4881  1.2186  0.5405
  149MOL    C8618142   2.964   3.450   4.488 -0.0564  0.5530  0.4096
  149MOL   Cl8718143   3.047   3.423   4.333  0.1032 -0.0723  0.0222
  149MOL   Cl8818144   3.018   3.616   4.534 -0.0605  0.1693 -0.3472
  149MOL    C8918145   2.807   3.447   4.459  0.4912  0.6636  0.2633
  149MOL    H9018146   2.787   3.486   4.359 -0.8133 -0.8022 -0.0764
  149MOL    H9118147   2.777   3.342   4.464  1.5489  0.2847 -1.0677
  149MOL    C9218148   2.716   3.526   4.558 -0.5820 -0.0902  0.2937
  149MOL   Cl9318149   2.722   3.702   4.529 -0.1388  0.0129  0.0429
  149MOL   Cl9418150   2.777   3.507   4.725  0.2349  0.1304 -0.0410
  149MOL    C9518151   2.565   3.478   4.566 -0.1316 -0.3928 -0.3594
  149MOL    H9618152   2.573   3.382   4.617 -1.9260  0.3767  1.4479
  149MOL    H9718153   2.516   3.540   4.641  0.1782 -1.8850  1.1189
  149MOL    C9818154   2.468   3.478   4.443 -0.1041 -0.0738 -0.7775
  149MOL   Cl9918155   2.527   3.340   4.348  0.2074 -0.0831 -0.2791
  149MOL  Cl10018156   2.488   3.631   4.349 -0.3705 -0.3752 -0.2814
  149MOL   C10118157   2.318   3.451   4.479 -0.0558  0.8259 -0.2110
  149MOL   H10218158   2.286   3.541   4.530 -1.1355  0.6585 -0.5831
  149MOL   H10318159   2.270   3.449   4.381  0.6809  2.0880 -0.5992
  149MOL   C10418160   2.269   3.328   4.567  1.4624 -0.0570  0.2674
  149MOL  Cl10518161   2.330   3.342   4.736  0.0447 -0.1990  0.0903
  149MOL  Cl10618162   2.322   3.175   4.491  0.7702 -0.1874  0.2498
  149MOL   C10718163   2.116   3.312   4.586  0.0502 -0.4095 -0.2167
  149MOL   H10818164   2.059   3.275   4.501 -2.2040 -1.2317  1.6220
  149MOL   H10918165   2.102   3.241   4.668 -0.1968 -1.2031 -0.9419
  149MOL   C11018166   2.032   3.446   4.618 -0.1098 -0.2620 -0.2277
  149MOL  Cl11118167   1.872   3.376   4.647  0.0481  0.0147  0.2463
  149MOL  Cl11218168   2.018   3.549   4.468  0.3181  0.0157 -0.3250
  149MOL   C11318169   2.069   3.527   4.746  0.2060 -0.6307  0.3456
  149MOL   H11418170   2.067   3.456   4.828 -0.0612 -0.2170  0.7011
  149MOL   H11518171   2.173   3.557   4.731  0.0756 -0.4065 -0.1225
  149MOL   C11618172   1.994   3.658   4.778  0.1945 -0.3710  0.6980
  149MOL  Cl11718173   1.818   3.650   4.743 -0.1734 -0.4539 -0.3049
  149MOL  Cl11818174   2.055   3.798   4.687  0.1636  0.3501  0.3218
  149MOL   C11918175   2.001   3.697   4.920  0.1947  0.1666  0.0597
  149MOL   H12018176   1.947   3.788   4.948  0.2910 -0.1016  1.1142
  149MOL   H12118177   1.954   3.620   4.981  1.1136 -2.2642 -2.1750
  149MOL   H12218178   2.098   3.715   4.965 -1.3861  2.3754  2.7680
  150MOL     C118179   1.985   8.244   3.830 -0.5273  0.3837 -0.5069
  150MOL    Cl218180   1.988   8.097   3.928 -0.5496 -0.1337  0.0069
  150MOL    Cl318181   2.118   8.365   3.866 -0.0820  0.4756 -0.1364
  150MOL     C418182   2.010   8.197   3.682  0.8224  0.7093 -0.4348
  150MOL     H518183   2.113   8.222   3.657  1.6422 -2.4418 -0.4245
  150MOL     H618184   2.013   8.088   3.673  0.1678  0.7238 -0.9211
  150MOL     H718185   1.889   8.295   3.838  0.1696  2.1170 -2.5867
  150MOL     C818186   1.917   8.253   3.586 -0.2333 -0.1808  0.3589
  150MOL    Cl918187   1.902   8.429   3.610 -0.1207  0.4351 -0.0085
  150MOL   Cl1018188   1.762   8.176   3.604 -0.1914 -0.0246  0.0768
  150MOL    C1118189   1.968   8.235   3.442 -0.0452  0.0390  0.0052
  150MOL    H1218190   1.891   8.269   3.373 -1.0217  0.1723  1.1529
  150MOL    H1318191   2.049   8.305   3.422  0.0553 -0.0836 -0.0179
  150MOL    C1418192   2.013   8.100   3.378 -0.8084 -0.3796 -0.2661
  150MOL   Cl1518193   2.169   8.043   3.457  0.1597 -0.5782  0.0424
  150MOL   Cl1618194   2.054   8.129   3.198  0.3355  0.0508  0.4343
  150MOL    C1718195   1.896   7.986   3.397  0.8105 -0.4406  0.4060
  150MOL    H1818196   1.870   7.961   3.500 -1.5593  2.6200  0.6160
  150MOL    H1918197   1.804   8.036   3.367  0.9347 -0.0868  0.6028
  150MOL    C2018198   1.899   7.853   3.311 -0.2438 -0.2366  0.3494
  150MOL   Cl2118199   1.874   7.890   3.136 -0.0585  0.2612 -0.1552
  150MOL   Cl2218200   1.764   7.755   3.369 -0.0535  0.2763 -0.3180
  150MOL    C2318201   2.026   7.769   3.312  0.4649  0.5413  0.3364
  150MOL    H2418202   2.022   7.708   3.222  0.8870  2.2586 -0.8960
  150MOL    H2518203   2.104   7.843   3.291  0.2035  1.2272  1.7056
  150MOL    C2618204   2.071   7.665   3.418 -0.7241 -0.0622  0.2059
  150MOL   Cl2718205   2.237   7.625   3.388 -0.2910 -0.0343  0.0115
  150MOL   Cl2818206   1.963   7.525   3.401 -0.0796 -0.0079  0.0709
  150MOL    C2918207   2.070   7.722   3.562  0.7952  0.1951  0.1638
  150MOL    H3018208   2.155   7.789   3.575  0.6683  0.5392 -0.7275
  150MOL    H3118209   1.980   7.780   3.582 -0.8039 -2.5501  1.2386
  150MOL    C3218210   2.077   7.627   3.688  0.0345  0.1239  0.3565
  150MOL   Cl3318211   2.156   7.716   3.820 -0.3068  0.0836 -0.1272
  150MOL   Cl3418212   2.189   7.492   3.665 -0.0597 -0.2773 -0.2177
  150MOL    C3518213   1.936   7.569   3.736  0.0355  0.3257 -0.2058
  150MOL    H3618214   1.899   7.515   3.648 -0.4286  0.7489 -0.2690
  150MOL    H3718215   1.962   7.485   3.800  1.2233 -0.9600 -2.2771
  150MOL    C3818216   1.815   7.654   3.806  0.1301 -0.4908  0.3777
  150MOL   Cl3918217   1.753   7.788   3.708 -0.2039 -0.0182  0.0409
  150MOL   Cl4018218   1.863   7.720   3.966 -0.1693 -0.1953  0.1141
  150MOL    C4118219   1.694   7.563   3.834 -0.6585 -0.3530  0.0762
  150MOL    H4218220   1.727   7.501   3.918 -0.3488  1.1345  1.0691
  150MOL    H4318221   1.615   7.633   3.862 -2.5463 -1.0918 -3.1582
  150MOL    C4418222   1.635   7.451   3.747 -0.3365 -0.0579  0.4442
  150MOL   Cl4518223   1.754   7.312   3.719  0.2046  0.3455 -0.2336
  150MOL   Cl4618224   1.590   7.524   3.594 -0.4542 -0.1838  0.0352
  150MOL    C4718225   1.505   7.389   3.805  0.1172  0.3724 -0.1744
  150MOL    H4818226   1.425   7.461   3.786  0.5134  1.4616  2.0785
  150MOL    H4918227   1.478   7.307   3.739 -3.0300  2.9471 -2.1872
  150MOL    C5018228   1.497   7.335   3.954 -0.1322  0.1104  0.4812
  150MOL   Cl5118229   1.506   7.479   4.054  0.0128  0.3049  0.0052
  150MOL   Cl5218230   1.625   7.216   3.984  0.2737  0.0002  0.3980
  150MOL    C5318231   1.358   7.262   3.990 -0.9300  0.1015 -0.7975
  150MOL    H5418232   1.282   7.328   3.947 -0.8355  1.0651  0.4737
  150MOL    H5518233   1.357   7.180   3.919  0.3705 -0.1427 -0.5459
  150MOL    C5618234   1.317   7.212   4.131  0.4731  0.1150  0.2408
  150MOL   Cl5718235   1.252   7.336   4.230  0.2552  0.2590  0.0965
  150MOL   Cl5818236   1.450   7.131   4.229  0.0376  0.0374 -0.2604
  150MOL    C5918237   1.203   7.096   4.109 -0.0218 -0.9757 -0.4505
  150MOL    H6018238   1.206   7.069   4.003  2.6199 -1.6382 -0.2339
  150MOL    H6118239   1.227   6.998   4.149 -0.9511 -1.0309  0.0016
  150MOL    C6218240   1.050   7.120   4.142 -0.1762 -0.0935  0.2862
  150MOL   Cl6318241   0.993   7.279   4.095  0.0888  0.2651 -0.1344
  150MOL   Cl6418242   1.029   7.100   4.317  0.2106  0.2980 -0.3228
  150MOL    C6518243   0.954   7.012   4.094 -0.0659  0.5720  0.3125
  150MOL    H6618244   0.970   6.917   4.147 -0.5204  1.0794  1.3856
  150MOL    H6718245   0.860   7.055   4.128  0.7441  2.3956  0.2739
  150MOL    C6818246   0.938   6.977   3.948  0.0414  0.2047 -0.1516
  150MOL   Cl6918247   1.047   6.831   3.931 -0.3749 -0.3688 -0.4219
  150MOL   Cl7018248   1.002   7.098   3.839  0.0160 -0.4609  0.3494
  150MOL    C7118249   0.794   6.938   3.914 -0.0178  0.3426  0.2160
  150MOL    H7218250   0.798   6.871   3.828 -0.8358  0.5019  0.0429
  150MOL    H7318251   0.764   6.876   3.998  1.6841 -0.9344 -0.0975
  150MOL    C7418252   0.677   7.037   3.880 -0.4547 -0.9213  0.6522
  150MOL   Cl7518253   0.667   7.166   4.009  0.2075 -0.0516 -0.1821
  150MOL   Cl7618254   0.521   6.954   3.891 -0.2062  0.3178 -0.1255
  150MOL    C7718255   0.687   7.112   3.742 -0.1510  0.2769  0.4983
  150MOL    H7818256   0.595   7.170   3.746 -0.9270 -0.9288  0.4125
  150MOL    H7918257   0.771   7.181   3.753 -1.8308  2.6375 -0.9339
  150MOL    C8018258   0.698   7.043   3.605 -0.5796 -0.4554 -0.3977
  150MOL   Cl8118259   0.849   6.955   3.605 -0.0044  0.2998 -0.1731
  150MOL   Cl8218260   0.731   7.157   3.474 -0.0715  0.1543  0.1164
  150MOL    C8318261   0.580   6.952   3.582  0.6307 -0.5464  0.6009
  150MOL    H8418262   0.586   6.872   3.656 -0.8643  1.4622  3.0159
  150MOL    H8518263   0.484   6.989   3.620 -0.8721 -0.6402 -2.9116
  150MOL    C8618264   0.549   6.901   3.439  0.0611  0.8227  0.3190
  150MOL   Cl8718265   0.492   7.032   3.334  0.4248  0.0712 -0.2278
  150MOL   Cl8818266   0.419   6.780   3.452 -0.1400 -0.0545  0.2423
  150MOL    C8918267   0.672   6.838   3.356  0.7699 -0.6004 -0.6182
  150MOL    H9018268   0.662   6.830   3.248 -3.1082 -1.4161 -0.2796
  150MOL    H9118269   0.756   6.906   3.365 -0.0033  0.3425 -0.3776
  150MOL    C9218270   0.715   6.690   3.393  0.0741 -0.3218 -0.8480
  150MOL   Cl9318271   0.601   6.578   3.310  0.0760  0.4709 -0.0684
  150MOL   Cl9418272   0.708   6.642   3.568 -0.0143  0.0454  0.0735
  150MOL    C9518273   0.863   6.658   3.359 -0.4864  0.3134  0.9003
  150MOL    H9618274   0.929   6.724   3.416  0.1011 -0.1326  0.7413
  150MOL    H9718275   0.884   6.557   3.392  0.1397  0.1078 -0.1149
  150MOL    C9818276   0.914   6.661   3.212 -0.0325 -0.3544 -0.3688
  150MOL   Cl9918277   0.912   6.825   3.136  0.2203 -0.0946 -0.3592
  150MOL  Cl10018278   0.817   6.568   3.091 -0.2577 -0.2116 -0.0650
  150MOL   C10118279   1.065   6.612   3.193 -0.6039 -0.4581 -0.1399
  150MOL   H10218280   1.070   6.506   3.165 -2.4782 -1.0814  1.7280
  150MOL   H10318281   1.107   6.652   3.101 -1.4849 -0.6673 -0.6409
  150MOL   C10418282   1.172   6.650   3.293 -0.2793 -0.1305  1.4326
  150MOL  Cl10518283   1.146   6.558   3.445 -0.4814  0.0807  0.2549
  150MOL  Cl10618284   1.159   6.817   3.335 -0.4319 -0.0409  0.2427
  150MOL   C10718285   1.321   6.627   3.240  0.0073 -0.0536 -1.0340
  150MOL   H10818286   1.328   6.701   3.160  1.8921  2.3809  1.2426
  150MOL   H10918287   1.382   6.651   3.327 -1.9593 -0.8441  0.5975
  150MOL   C11018288   1.367   6.497   3.173 -0.0686 -0.0894 -0.6521
  150MOL  Cl11118289   1.316   6.509   3.001 -0.3678 -0.0062 -0.0293
  150MOL  Cl11218290   1.291   6.359   3.245  0.1336  0.2417 -0.1044
  150MOL   C11318291   1.519   6.468   3.176  0.3640 -0.5374  0.7933
  150MOL   H11418292   1.545   6.447   3.280  1.3375  0.5506  0.7803
  150MOL   H11518293   1.541   6.378   3.117  1.1284 -0.9411  1.6722
  150MOL   C11618294   1.619   6.584   3.124 -0.3592  0.1530 -0.3546
  150MOL  Cl11718295   1.774   6.513   3.086  0.1412  0.4239 -0.1738
  150MOL  Cl11818296   1.640   6.712   3.248  0.2998 -0.2483  0.1603
  150MOL   C11918297   1.584   6.669   2.999  0.1230 -0.9694 -0.8527
  150MOL   H12018298   1.500   6.738   3.014  0.1208 -1.2950  0.6547
  150MOL   H12118299   1.671   6.726   2.967  0.5663 -1.9523 -1.4192
  150MOL   H12218300   1.561   6.608   2.912 -0.8086  0.9098 -1.9497
  151MOL     C118301   6.595   2.034   0.095 -0.1660  0.0157  0.2252
  151MOL    Cl218302   6.532   2.107   9.131 -0.1574 -0.1351 -0.4041
  151MOL    Cl318303   6.463   1.949   0.168 -0.2617  0.4263 -0.0661
  151MOL     C418304   6.706   1.937   0.054 -0.0122  0.2897  0.4478
  151MOL     H518305   6.726   1.873   0.141  0.9896  0.6666  0.5013
  151MOL     H618306   6.667   1.875   9.154  0.7733  0.0292  0.2612
  151MOL     H718307   6.622   2.109   0.169  0.1546  0.5370 -0.4162
  151MOL     C818308   6.845   2.003   0.031  0.4556 -0.4101  0.0594
  151MOL    Cl918309   6.902   2.050   0.191  0.1838  0.2995 -0.4409
  151MOL   Cl1018310   6.848   2.161   9.121  0.5253  0.1001  0.0973
  151MOL    C1118311   6.942   1.907   9.151 -0.3214 -0.1998 -0.6674
  151MOL    H1218312   6.915   1.909   9.046 -1.4325 -0.0374 -0.3823
  151MOL    H1318313   7.038   1.960   9.151 -0.2044 -0.3894  0.6237
  151MOL    C1418314   6.964   1.756   0.010  0.1796 -0.1049 -0.2578
  151MOL   Cl1518315   6.822   1.654   9.164 -0.1725  0.1677  0.0220
  151MOL   Cl1618316   7.005   1.744   0.187  0.3526 -0.1321 -0.0066
  151MOL    C1718317   7.082   1.710   9.102 -0.1178 -0.1703 -0.0800
  151MOL    H1818318   7.046   1.717   8.999 -1.3944 -1.0661  0.2951
  151MOL    H1918319   7.167   1.778   9.103  0.2404 -0.6201  0.0763
  151MOL    C2018320   7.135   1.564   9.116 -0.7621 -0.0103 -0.2890
  151MOL   Cl2118321   7.296   1.574   9.029  0.3073 -0.2610  0.3729
  151MOL   Cl2218322   7.028   1.454   9.025 -0.2331  0.0471 -0.1070
  151MOL    C2318323   7.157   1.516   0.084 -0.7773 -0.3975  0.0229
  151MOL    H2418324   7.221   1.590   0.131  0.2409 -0.2703 -1.5199
  151MOL    H2518325   7.065   1.502   0.141 -0.3070 -1.5904  0.5128
  151MOL    C2618326   7.222   1.381   0.118 -0.4316 -1.0261  0.5400
  151MOL   Cl2718327   7.103   1.258   0.096  0.0390  0.3182  0.2218
  151MOL   Cl2818328   7.255   1.390   0.291  0.2644 -0.1632  0.3706
  151MOL    C2918329   7.366   1.350   0.049 -0.0557 -0.1686 -0.1259
  151MOL    H3018330   7.337   1.342   9.125 -0.8892 -2.4190  0.2581
  151MOL    H3118331   7.428   1.439   0.061 -1.0125  0.5817 -0.7693
  151MOL    C3218332   7.454   1.220   0.075  0.4960  0.3866 -0.5312
  151MOL   Cl3318333   7.538   1.229   0.237 -0.0077 -0.1870 -0.1192
  151MOL   Cl3418334   7.592   1.231   9.144 -0.3030 -0.0505 -0.2729
  151MOL    C3518335   7.376   1.087   0.051 -0.2484 -0.0349  0.3831
  151MOL    H3618336   7.306   1.067   0.132 -1.9999 -0.7435 -1.2764
  151MOL    H3718337   7.317   1.087   9.140  1.3515 -1.7547 -0.6977
  151MOL    C3818338   7.455   0.950   0.028  0.3030 -0.1210 -0.1141
  151MOL   Cl3918339   7.533   0.949   9.048  0.1073  0.2149 -0.0670
  151MOL   Cl4018340   7.316   0.830   0.022 -0.0032 -0.1576 -0.1746
  151MOL    C4118341   7.547   0.924   0.150  0.2029 -0.5450  0.3415
  151MOL    H4218342   7.611   1.013   0.148 -0.9797  0.3383  1.0626
  151MOL    H4318343   7.482   0.922   0.237 -0.0835  0.9749  0.1856
  151MOL    C4418344   7.652   0.810   0.154 -0.2455  0.5729 -0.2393
  151MOL   Cl4518345   7.784   0.851   0.050 -0.3212  0.3260 -0.0770
  151MOL   Cl4618346   7.584   0.657   0.108  0.0954 -0.4906  0.0961
  151MOL    C4718347   7.730   0.805   0.297  0.3865 -0.5977  0.3171
  151MOL    H4818348   7.834   0.779   0.281  0.9538  1.7076  0.0786
  151MOL    H4918349   7.731   0.909   0.332 -1.2317 -0.4649  0.0381
  151MOL    C5018350   7.684   0.722   0.416  0.1464 -0.5748 -0.1642
  151MOL   Cl5118351   7.514   0.765   0.447  0.0326 -0.1173  0.0472
  151MOL   Cl5218352   7.764   0.783   0.567 -0.2143  0.1124 -0.1326
  151MOL    C5318353   7.694   0.568   0.410 -0.5002  0.9560 -0.0292
  151MOL    H5418354   7.687   0.536   0.514  1.0294 -2.4177 -0.8806
  151MOL    H5518355   7.619   0.517   0.350  0.9192 -2.1055  0.6756
  151MOL    C5618356   7.827   0.492   0.367  0.5015 -1.0420  0.1998
  151MOL   Cl5718357   7.968   0.549   0.459 -0.3144  0.2307 -0.0450
  151MOL   Cl5818358   7.864   0.529   0.198 -0.7922  0.1472  0.0933
  151MOL    C5918359   7.836   0.341   0.390  0.0272  0.1021 -0.4976
  151MOL    H6018360   7.927   0.308   0.340  0.1433  0.3023 -0.4168
  151MOL    H6118361   7.858   0.325   0.496  0.1476 -0.7851 -0.6518
  151MOL    C6218362   7.721   0.253   0.343 -0.7135  0.4802  0.0741
  151MOL   Cl6318363   7.677   0.271   0.169 -0.2258 -0.2418  0.4540
  151MOL   Cl6418364   7.583   0.291   0.447  0.1350 -0.0207 -0.4206
  151MOL    C6518365   7.751   0.102   0.365 -0.2764  0.0800 -0.0857
  151MOL    H6618366   7.743   0.084   0.472 -3.1214 -0.2552 -0.2928
  151MOL    H6718367   7.662   0.057   0.320 -1.1279  2.6078 -1.0141
  151MOL    C6818368   7.889   0.046   0.332 -0.1285  0.0795  0.2888
  151MOL   Cl6918369   8.006   0.099   0.456 -0.4644 -0.3432 -0.0293
  151MOL   Cl7018370   7.950   0.112   0.180  0.6319 -0.0725  0.0967
  151MOL    C7118371   7.883   9.074   0.324  0.3393  0.4632  0.3612
  151MOL    H7218372   7.817   9.046   0.407 -0.1562 -3.4439 -1.2591
  151MOL    H7318373   7.817   9.053   0.240  1.1092 -0.2591 -0.0570
  151MOL    C7418374   7.997   8.974   0.314 -0.2282 -0.5173 -0.1441
  151MOL   Cl7518375   7.911   8.830   0.266 -0.2536  0.2930 -0.2412
  151MOL   Cl7618376   8.062   8.946   0.472 -0.0483 -0.0697 -0.0351
  151MOL    C7718377   8.103   9.019   0.216  0.4002 -0.2100 -0.0827
  151MOL    H7818378   8.057   9.066   0.130  0.4438 -0.2878 -0.1481
  151MOL    H7918379   8.152   9.111   0.248 -1.4425  1.6680 -2.5015
  151MOL    C8018380   8.209   8.921   0.161 -0.8821  0.3609 -0.3209
  151MOL   Cl8118381   8.129   8.795   0.066 -0.1226 -0.3029  0.1102
  151MOL   Cl8218382   8.303   8.834   0.289  0.4161  0.2517  0.0809
  151MOL    C8318383   8.309   8.980   0.052  0.4513 -0.2804 -0.1165
  151MOL    H8418384   8.378   8.900   0.029  0.5374 -0.6439  1.3804
  151MOL    H8518385   8.264   9.014   9.139  0.5330 -0.8619 -0.3682
  151MOL    C8618386   8.397   9.105   0.072 -0.3502  0.4198 -0.4339
  151MOL   Cl8718387   8.292   0.071   0.100 -0.2268  0.1899  0.1609
  151MOL   Cl8818388   8.496   9.123   9.104 -0.0652  0.3831 -0.0976
  151MOL    C8918389   8.486   9.090   0.197  0.1463  0.1742  0.4450
  151MOL    H9018390   8.420   9.112   0.281  1.3709 -1.9671  2.0038
  151MOL    H9118391   8.527   8.990   0.201  2.2044  0.8308 -2.5412
  151MOL    C9218392   8.617   9.174   0.207 -0.6062 -0.0064 -0.5006
  151MOL   Cl9318393   8.585   0.166   0.181 -0.2681 -0.1238 -0.2492
  151MOL   Cl9418394   8.744   9.112   0.095 -0.1434 -0.2984 -0.1738
  151MOL    C9518395   8.678   0.005   0.349 -0.1996 -0.2591 -1.8733
  151MOL    H9618396   8.760   0.076   0.345 -0.1262 -0.3410 -1.7942
  151MOL    H9718397   8.603   0.058   0.407 -0.0380 -0.8634 -1.1004
  151MOL    C9818398   8.718   9.059   0.435 -0.0748  0.6133 -0.3701
  151MOL   Cl9918399   8.835   8.953   0.350 -0.1423 -0.3114 -0.1181
  151MOL  Cl10018400   8.575   8.953   0.475  0.1098 -0.1872  0.3092
  151MOL   C10118401   8.776   9.088   0.572 -0.8079 -0.2229  0.0397
  151MOL   H10218402   8.704   9.128   0.643  0.5765 -0.8668  1.8453
  151MOL   H10318403   8.805   8.993   0.616 -0.5014 -0.7061 -1.2008
  151MOL   C10418404   8.895   0.012   0.587  0.0456  0.6727  0.4610
  151MOL  Cl10518405   8.829   0.183   0.597  0.2961 -0.0731 -0.0448
  151MOL  Cl10618406   9.013   0.005   0.445 -0.4034 -0.3280 -0.3948
  151MOL   C10718407   8.966   0.001   0.718 -0.7298  0.0298  0.2566
  151MOL   H10818408   9.044   0.077   0.707  0.0145 -0.7667 -0.0832
  151MOL   H10918409   8.907   0.031   0.804 -1.2181  0.3556 -0.1894
  151MOL   C11018410   9.045   9.054   0.771 -0.4125 -0.1304  0.1182
  151MOL  Cl11118411   9.091   8.939   0.644 -0.5607 -0.1373  0.3739
  151MOL  Cl11218412   8.924   8.963   0.862  0.1317 -0.3169 -0.2885
  151MOL   C11318413   9.171   9.082   0.859  0.4502  0.4250 -0.2178
  151MOL   H11418414   0.020   8.994   0.916 -0.5776  0.1491 -0.1009
  151MOL   H11518415   0.078   9.105   0.798 -0.9924  1.0563 -2.0866
  151MOL   C11618416   9.162   0.003   0.977  0.0088  0.1095  0.5093
  151MOL  Cl11718417   9.142   0.171   0.915  0.3032 -0.0632  0.5243
  151MOL  Cl11818418   0.143   0.006   1.067 -0.1011 -0.2122  0.0800
  151MOL   C11918419   9.045   9.154   1.070 -0.3545 -0.2037 -0.5383
  151MOL   H12018420   8.949   9.157   1.019 -0.9362 -0.7222  0.5177
  151MOL   H12118421   9.063   9.058   1.119  0.8046 -0.4737 -1.4651
  151MOL   H12218422   9.031   0.046   1.150 -0.5615 -0.5460 -0.2618
  152MOL     C118423   6.145   8.645   7.270 -0.2622  0.4916 -0.3235
  152MOL    Cl218424   6.172   8.815   7.295 -0.1742  0.2500 -0.2685
  152MOL    Cl318425   6.043   8.582   7.398 -0.1445  0.3659  0.0319
  152MOL     C418426   6.066   8.639   7.132 -0.3878  0.4343  0.0606
  152MOL     H518427   5.969   8.593   7.149  0.3099 -0.3075  2.1640
  152MOL     H618428   6.037   8.738   7.097 -0.4467  1.4851  2.9804
  152MOL     H718429   6.239   8.590   7.266  0.1195  1.2326 -1.9209
  152MOL     C818430   6.135   8.556   7.021 -1.0431 -0.5645 -0.3679
  152MOL    Cl918431   6.144   8.389   7.083  0.4300 -0.3455 -0.3686
  152MOL   Cl1018432   6.309   8.597   6.989  0.1726 -0.4012 -0.1247
  152MOL    C1118433   6.066   8.554   6.884 -0.7775  0.4988  0.4002
  152MOL    H1218434   6.142   8.523   6.813  2.3807  0.5341  3.6326
  152MOL    H1318435   5.989   8.476   6.884  0.9063 -1.1953 -0.1915
  152MOL    C1418436   6.006   8.689   6.819  0.1483  0.0853  0.5709
  152MOL   Cl1518437   6.097   8.835   6.860 -0.2070  0.2295  0.1003
  152MOL   Cl1618438   5.845   8.729   6.886 -0.2991 -0.2933  0.0735
  152MOL    C1718439   6.004   8.693   6.663 -0.3792  0.0937  0.3685
  152MOL    H1818440   5.973   8.790   6.626 -0.1718 -0.1756 -0.5205
  152MOL    H1918441   6.106   8.679   6.630 -0.6197 -2.0443  0.4475
  152MOL    C2018442   5.915   8.606   6.571  0.2872  1.0720  0.1344
  152MOL   Cl2118443   5.743   8.661   6.586 -0.1068 -0.1907  0.3516
  152MOL   Cl2218444   5.927   8.435   6.627 -0.0671  0.3596 -0.0905
  152MOL    C2318445   5.959   8.619   6.421 -0.2700  0.1109  0.2187
  152MOL    H2418446   5.947   8.725   6.399 -0.5537  0.3820  1.5945
  152MOL    H2518447   6.062   8.594   6.399 -0.1456  0.8635 -0.0682
  152MOL    C2618448   5.898   8.542   6.305 -0.2201  0.6914  0.2742
  152MOL   Cl2718449   5.972   8.376   6.306 -0.3420  0.1715  0.4903
  152MOL   Cl2818450   5.966   8.622   6.164 -0.4763  0.0775 -0.3410
  152MOL    C2918451   5.742   8.531   6.297  0.7795  0.1113 -0.7451
  152MOL    H3018452   5.704   8.488   6.390  2.3638  0.3248  0.0098
  152MOL    H3118453   5.692   8.628   6.284  0.0883 -0.2344 -0.7044
  152MOL    C3218454   5.660   8.445   6.195  0.3966  0.2894  0.5305
  152MOL   Cl3318455   5.491   8.496   6.216  0.1605 -0.1603 -0.2482
  152MOL   Cl3418456   5.673   8.270   6.252  0.0860  0.0081 -0.0655
  152MOL    C3518457   5.689   8.447   6.038  0.4423 -0.4254  0.3099
  152MOL    H3618458   5.798   8.445   6.040  0.4344 -2.4817 -0.2541
  152MOL    H3718459   5.657   8.352   5.995 -1.3978  0.7430 -0.9669
  152MOL    C3818460   5.649   8.567   5.939 -0.5650  0.3585 -0.3555
  152MOL   Cl3918461   5.774   8.555   5.807  0.1312  0.1020  0.2670
  152MOL   Cl4018462   5.681   8.718   6.032  0.3121  0.0242 -0.2208
  152MOL    C4118463   5.505   8.554   5.878  0.0929  0.1139  0.6720
  152MOL    H4218464   5.497   8.459   5.824  1.8136 -1.3642  2.9201
  152MOL    H4318465   5.442   8.539   5.966 -1.2948 -3.5800 -0.8471
  152MOL    C4418466   5.439   8.670   5.786 -0.1683  0.0154 -0.1171
  152MOL   Cl4518467   5.460   8.832   5.863 -0.2887  0.0973 -0.1230
  152MOL   Cl4618468   5.268   8.635   5.782  0.0532  0.1226 -0.1783
  152MOL    C4718469   5.500   8.667   5.643  0.2934 -0.2319 -0.0878
  152MOL    H4818470   5.608   8.675   5.648  0.4988 -2.7823  0.2121
  152MOL    H4918471   5.476   8.569   5.601  0.2326  0.0216 -0.6453
  152MOL    C5018472   5.450   8.758   5.532  0.3318 -0.5521  0.3855
  152MOL   Cl5118473   5.573   8.737   5.396  0.1282  0.4887 -0.0001
  152MOL   Cl5218474   5.456   8.928   5.590  0.1757 -0.3445  0.2379
  152MOL    C5318475   5.305   8.739   5.483 -0.2397 -0.3524  0.4159
  152MOL    H5418476   5.273   8.635   5.483 -3.6184  0.6308  0.7159
  152MOL    H5518477   5.237   8.786   5.554 -0.8460  0.7725 -0.8952
  152MOL    C5618478   5.259   8.800   5.342 -0.1449 -0.8366  0.2319
  152MOL   Cl5718479   5.328   8.960   5.307 -0.2551 -0.0926  0.3012
  152MOL   Cl5818480   5.079   8.834   5.360 -0.0603 -0.3632 -0.2162
  152MOL    C5918481   5.288   8.709   5.217  0.5580 -0.6832 -0.6754
  152MOL    H6018482   5.394   8.688   5.199  0.2685 -1.2634 -1.7799
  152MOL    H6118483   5.261   8.607   5.245  0.5336 -0.6970 -0.7471
  152MOL    C6218484   5.227   8.735   5.074  0.6680  0.4606  0.1400
  152MOL   Cl6318485   5.056   8.696   5.071 -0.0220 -0.0059  0.0041
  152MOL   Cl6418486   5.297   8.611   4.972 -0.2102  0.1537 -0.0836
  152MOL    C6518487   5.246   8.879   5.016 -0.3019 -0.9358 -1.0468
  152MOL    H6618488   5.168   8.928   5.075  1.2138 -2.6505  2.5523
  152MOL    H6718489   5.341   8.925   5.041 -0.3351  0.4464 -3.2822
  152MOL    C6818490   5.235   8.910   4.863 -0.0825  0.0534  0.5605
  152MOL   Cl6918491   5.101   8.825   4.790  0.1741  0.3053 -0.0533
  152MOL   Cl7018492   5.388   8.843   4.793 -0.1708 -0.0827  0.1589
  152MOL    C7118493   5.231   9.064   4.831 -0.5540  0.5206  0.3100
  152MOL    H7218494   5.332   9.101   4.843 -0.3870  1.3999 -3.2120
  152MOL    H7318495   5.226   9.069   4.722 -0.9416  0.1288  0.3059
  152MOL    C7418496   5.130   9.158   4.900  0.0323 -0.0652  0.2179
  152MOL   Cl7518497   5.147   0.125   4.809  0.0965 -0.5080 -0.1961
  152MOL   Cl7618498   5.199   0.015   5.063  0.2584 -0.0833 -0.0555
  152MOL    C7718499   4.979   9.118   4.901 -0.3523  0.1715 -0.1878
  152MOL    H7818500   4.924   9.158   4.815 -1.9775  0.4975  0.9725
  152MOL    H7918501   4.970   9.010   4.891 -1.2111  0.2885 -0.7645
  152MOL    C8018502   4.884   9.154   5.018  0.1790 -0.4059 -0.0955
  152MOL   Cl8118503   4.934   9.056   5.157  0.2374  0.2339  0.0006
  152MOL   Cl8218504   4.722   9.082   4.971  0.1144  0.2728 -0.2332
  152MOL    C8318505   4.877   0.121   5.054  0.1184  0.4168 -0.1801
  152MOL    H8418506   4.978   0.159   5.040  0.0268  0.9900  0.6858
  152MOL    H8518507   4.825   0.163   4.968  0.7963  0.1373 -0.7307
  152MOL    C8618508   4.814   0.176   5.186 -0.2294 -0.3640 -0.8041
  152MOL   Cl8718509   4.807   0.362   5.162 -0.5303  0.1691 -0.1742
  152MOL   Cl8818510   4.924   0.137   5.320  0.2592 -0.0689 -0.2409
  152MOL    C8918511   4.671   0.123   5.212  0.2398  0.3289  0.4557
  152MOL    H9018512   4.622   0.113   5.115 -0.3142  0.8360  0.6773
  152MOL    H9118513   4.679   0.021   5.250 -0.9940  1.3690  3.6849
  152MOL    C9218514   4.565   0.207   5.293 -0.5057  0.6770 -0.0788
  152MOL   Cl9318515   4.481   0.335   5.206 -0.0390  0.0859 -0.1335
  152MOL   Cl9418516   4.646   0.284   5.438 -0.0946  0.3419  0.2047
  152MOL    C9518517   4.457   0.115   5.363 -0.3584  0.0522 -0.2026
  152MOL    H9618518   4.506   0.050   5.436  0.8376  1.6655  0.4667
  152MOL    H9718519   4.397   0.189   5.418 -0.2174  1.0823 -1.4276
  152MOL    C9818520   4.372   0.019   5.272  0.9305 -0.9677 -0.1461
  152MOL   Cl9918521   4.241   9.147   5.378 -0.3987  0.1699  0.1116
  152MOL  Cl10018522   4.472   9.057   5.240 -0.6650  0.0966 -0.3220
  152MOL   C10118523   4.310   0.076   5.146 -0.1783 -0.0439  0.3950
  152MOL   H10218524   4.265   0.174   5.162 -1.4769 -0.5997  0.2269
  152MOL   H10318525   4.390   0.095   5.075  1.1618  1.1327  2.1864
  152MOL   C10418526   4.216   9.176   5.045  0.1046  0.1980  0.0238
  152MOL  Cl10518527   4.225   0.088   4.894  0.5144 -0.4608 -0.0484
  152MOL  Cl10618528   4.048   0.012   5.102  0.2395  0.0289 -0.1556
  152MOL   C10718529   4.264   9.029   5.014 -0.7098  0.3947  0.0843
  152MOL   H10818530   4.365   9.032   4.975 -1.2605  1.5806 -1.2790
  152MOL   H10918531   4.266   8.976   5.110 -0.8525  0.2843  0.0264
  152MOL   C11018532   4.174   8.934   4.920 -0.0144 -0.2121 -0.8430
  152MOL  Cl11118533   4.254   8.778   4.887  0.0710  0.0961 -0.4674
  152MOL  Cl11218534   4.157   9.006   4.758 -0.0554  0.0947  0.3544
  152MOL   C11318535   4.030   8.897   4.965 -0.0362  0.1091 -1.3727
  152MOL   H11418536   3.972   8.989   4.969 -0.7343 -0.4223  2.5083
  152MOL   H11518537   3.982   8.835   4.889 -0.7227  0.6358 -1.3771
  152MOL   C11618538   4.006   8.819   5.097  0.2055 -0.3692  0.0807
  152MOL  Cl11718539   3.828   8.778   5.109  0.2359 -0.5434  0.0539
  152MOL  Cl11818540   4.058   8.914   5.244  0.2611  0.7222 -0.1561
  152MOL   C11918541   4.078   8.678   5.113  0.2324  0.4217 -0.2404
  152MOL   H12018542   4.055   8.609   5.194  1.8522  1.1384  0.8588
  152MOL   H12118543   4.063   8.608   5.030 -0.8425 -0.2846  0.5434
  152MOL   H12218544   4.186   8.694   5.118  0.3325 -0.3145  0.0299
  153MOL     C118545   5.958   6.190   0.173 -0.3487  0.4847  0.0683
  153MOL    Cl218546   5.888   6.198   0.329 -0.1975  0.0881 -0.2928
  153MOL    Cl318547   5.898   6.038   0.100  0.0597 -0.4874 -0.4225
  153MOL     C418548   5.912   6.303   0.082  0.5839 -0.0687 -0.0948
  153MOL     H518549   5.915   6.266   9.160 -2.0296 -0.6250 -0.0077
  153MOL     H618550   5.805   6.321   0.094  0.8741  2.6896 -1.1397
  153MOL     H718551   6.065   6.171   0.183 -0.5493 -0.7279 -0.0251
  153MOL     C818552   5.985   6.435   0.090 -0.9872  0.4805 -0.1910
  153MOL    Cl918553   5.922   6.526   9.127 -0.1640  0.1302 -0.3037
  153MOL   Cl1018554   6.163   6.404   0.071  0.1611  0.2255  0.0199
  153MOL    C1118555   5.956   6.509   0.227  0.1834 -0.1331 -0.2230
  153MOL    H1218556   5.858   6.505   0.274 -1.2103 -1.9304 -3.0837
  153MOL    H1318557   6.020   6.456   0.298 -0.8352  1.0597  1.6051
  153MOL    C1418558   5.976   6.664   0.233 -0.0560  0.6041  0.4719
  153MOL   Cl1518559   5.844   6.748   0.141  0.0950 -0.2119  0.2788
  153MOL   Cl1618560   6.133   6.694   0.157  0.1183  0.2257  0.0489
  153MOL    C1718561   5.989   6.731   0.366 -0.1066  0.7500  0.8601
  153MOL    H1818562   6.079   6.686   0.408 -1.0622 -2.0658  0.0461
  153MOL    H1918563   6.010   6.836   0.350  1.8091  0.1914 -0.5774
  153MOL    C2018564   5.889   6.711   0.478 -1.0241 -0.5471 -0.0964
  153MOL   Cl2118565   5.967   6.798   0.614 -0.0363 -0.1029  0.1978
  153MOL   Cl2218566   5.878   6.547   0.544  0.2667 -0.3081 -0.8084
  153MOL    C2318567   5.749   6.778   0.446  0.2145 -0.1619 -0.1348
  153MOL    H2418568   5.758   6.865   0.381  0.0969 -0.4148 -0.4933
  153MOL    H2518569   5.698   6.703   0.384  0.6515  1.3733 -2.4069
  153MOL    C2618570   5.652   6.816   0.563 -0.3243  0.4855  0.4038
  153MOL   Cl2718571   5.615   6.677   0.674 -0.0763 -0.2610  0.2418
  153MOL   Cl2818572   5.493   6.851   0.484  0.0716  0.2667 -0.1405
  153MOL    C2918573   5.686   6.945   0.663  0.1736  0.3220  0.3917
  153MOL    H3018574   5.603   6.950   0.733  0.7577 -0.3992  1.1366
  153MOL    H3118575   5.768   6.912   0.727  1.5089 -0.3379 -1.5999
  153MOL    C3218576   5.702   7.092   0.610 -0.0254  0.0445  0.4946
  153MOL   Cl3318577   5.548   7.154   0.537  0.2654  0.3911  0.2051
  153MOL   Cl3418578   5.824   7.099   0.481 -0.2415  0.2123  0.0033
  153MOL    C3518579   5.747   7.182   0.726 -0.1139 -0.7367  0.1479
  153MOL    H3618580   5.680   7.184   0.812  1.0011  2.9402  1.0279
  153MOL    H3718581   5.837   7.139   0.768  0.0932  0.6233  1.1510
  153MOL    C3818582   5.782   7.336   0.700  0.3794 -0.1631 -0.2437
  153MOL   Cl3918583   5.938   7.356   0.616  0.3954  0.2695  0.1708
  153MOL   Cl4018584   5.800   7.402   0.863  0.1907 -0.1607 -0.0570
  153MOL    C4118585   5.686   7.432   0.624  0.1671  0.5078  0.5633
  153MOL    H4218586   5.748   7.521   0.612 -0.4592  0.8835  0.1124
  153MOL    H4318587   5.664   7.390   0.526 -0.2167 -0.2517  0.9730
  153MOL    C4418588   5.547   7.482   0.674 -0.2972 -0.3318  0.5051
  153MOL   Cl4518589   5.568   7.611   0.794 -0.2663 -0.0650  0.1433
  153MOL   Cl4618590   5.464   7.358   0.766  0.2006  0.0088 -0.2709
  153MOL    C4718591   5.452   7.538   0.560  0.2433  0.2871 -0.1213
  153MOL    H4818592   5.517   7.608   0.508  2.2535 -0.7956  0.8635
  153MOL    H4918593   5.438   7.455   0.491  1.9948  1.5822 -2.1280
  153MOL    C5018594   5.303   7.605   0.574 -0.5698  0.1960  0.6142
  153MOL   Cl5118595   5.201   7.499   0.679  0.0494  0.3752 -0.0858
  153MOL   Cl5218596   5.229   7.627   0.408  0.2482 -0.0906  0.2817
  153MOL    C5318597   5.317   7.744   0.639 -0.4863  0.7320 -0.0702
  153MOL    H5418598   5.345   7.716   0.741 -2.3840 -0.4123  0.1599
  153MOL    H5518599   5.402   7.792   0.591 -0.2141 -1.0088 -1.3698
  153MOL    C5618600   5.208   7.852   0.655  0.6846  0.0119 -0.1232
  153MOL   Cl5718601   5.045   7.781   0.682  0.5153 -0.0134  0.2697
  153MOL   Cl5818602   5.221   7.949   0.503 -0.2975  0.1316 -0.1409
  153MOL    C5918603   5.247   7.943   0.771 -0.6231 -0.6904 -0.3977
  153MOL    H6018604   5.243   7.877   0.858  1.4670  0.6472  0.7483
  153MOL    H6118605   5.355   7.954   0.759 -0.3459 -0.6394  1.9127
  153MOL    C6218606   5.186   8.085   0.796 -0.0190  0.6655 -0.5680
  153MOL   Cl6318607   5.271   8.193   0.679 -0.4976  0.2597  0.4295
  153MOL   Cl6418608   5.243   8.141   0.953  0.0355 -0.1120 -0.0215
  153MOL    C6518609   5.029   8.098   0.789  0.5966  0.4876 -0.8296
  153MOL    H6618610   5.007   8.203   0.770  0.2753  1.1162  2.7198
  153MOL    H6718611   4.998   8.061   0.691  1.2030 -0.8133 -0.5344
  153MOL    C6818612   4.936   8.042   0.899 -0.0532 -0.5619 -0.4607
  153MOL   Cl6918613   4.907   8.162   1.019 -0.3101 -0.0898 -0.1967
  153MOL   Cl7018614   5.024   7.911   0.988 -0.1985  0.1180  0.5602
  153MOL    C7118615   4.800   7.978   0.859 -0.8320 -0.1684 -0.4086
  153MOL    H7218616   4.819   7.887   0.802 -1.5620 -1.6017  1.5800
  153MOL    H7318617   4.742   7.955   0.948 -0.2811 -1.1957 -0.3039
  153MOL    C7418618   4.700   8.049   0.757  0.4033  0.2483 -0.2188
  153MOL   Cl7518619   4.761   8.048   0.594 -0.1030  0.2387 -0.1727
  153MOL   Cl7618620   4.674   8.220   0.797  0.2011  0.1130 -0.0407
  153MOL    C7718621   4.561   7.991   0.763 -0.0991  0.5361 -0.2166
  153MOL    H7818622   4.503   8.019   0.851  2.1004  1.0182  1.0939
  153MOL    H7918623   4.502   8.031   0.680  0.7060 -1.7661 -1.9590
  153MOL    C8018624   4.527   7.838   0.754 -0.8059  0.9709  0.2626
  153MOL   Cl8118625   4.516   7.772   0.921  0.3332 -0.5017  0.1672
  153MOL   Cl8218626   4.642   7.747   0.656  0.2148 -0.0822  0.0889
  153MOL    C8318627   4.388   7.809   0.684  0.5031 -0.0974 -0.6048
  153MOL    H8418628   4.414   7.840   0.583 -0.1209  1.1853 -0.3747
  153MOL    H8518629   4.391   7.700   0.692 -1.3325 -0.0097  1.6782
  153MOL    C8618630   4.247   7.873   0.734 -0.7595  0.3971  0.4720
  153MOL   Cl8718631   4.249   8.047   0.686  0.1478  0.0181 -0.0209
  153MOL   Cl8818632   4.212   7.852   0.908 -0.5322  0.2492  0.4759
  153MOL    C8918633   4.129   7.802   0.650  0.3570  0.3608  0.3389
  153MOL    H9018634   4.120   7.697   0.676 -2.1975 -0.0176 -1.7981
  153MOL    H9118635   4.033   7.837   0.689  0.8653 -0.0699  1.9995
  153MOL    C9218636   4.132   7.793   0.489 -0.2967  0.3683 -0.5985
  153MOL   Cl9318637   4.216   7.646   0.431  0.2260 -0.2922  0.2172
  153MOL   Cl9418638   4.201   7.932   0.402 -0.2422 -0.3417 -0.2314
  153MOL    C9518639   3.983   7.787   0.443  0.0142  0.2843  0.0667
  153MOL    H9618640   3.934   7.882   0.466  1.2120  0.8525  0.3222
  153MOL    H9718641   3.995   7.796   0.335 -1.0977  0.1187 -0.0743
  153MOL    C9818642   3.886   7.663   0.448 -1.0068  0.8010 -0.0147
  153MOL   Cl9918643   3.873   7.588   0.605 -0.0153  0.3706  0.2413
  153MOL  Cl10018644   3.949   7.541   0.331  0.2107  0.1156 -0.0227
  153MOL   C10118645   3.743   7.697   0.402  0.4431  0.3498  0.2199
  153MOL   H10218646   3.766   7.773   0.327  2.2910  0.2517  0.6708
  153MOL   H10318647   3.700   7.618   0.341  0.1720 -0.7270  1.7724
  153MOL   C10418648   3.634   7.758   0.498  0.3831 -0.2622 -0.7265
  153MOL  Cl10518649   3.511   7.838   0.404 -0.2676 -0.0242 -0.1162
  153MOL  Cl10618650   3.708   7.892   0.602  0.1224  0.0680 -0.0311
  153MOL   C10718651   3.555   7.657   0.597 -0.2041 -0.4354  0.0578
  153MOL   H10818652   3.618   7.628   0.682 -0.6962  0.1667  0.6411
  153MOL   H10918653   3.476   7.711   0.650  0.2937  0.6065 -0.2591
  153MOL   C11018654   3.477   7.533   0.544  0.0500  0.0394  0.1388
  153MOL  Cl11118655   3.591   7.419   0.471  0.4488 -0.3871 -0.4611
  153MOL  Cl11218656   3.349   7.571   0.428  0.1210  0.3947  0.0817
  153MOL   C11318657   3.414   7.452   0.656  0.5433 -0.2548 -0.2001
  153MOL   H11418658   3.360   7.370   0.610 -0.4187 -0.2700  0.9403
  153MOL   H11518659   3.497   7.418   0.719  0.4987  0.3007  0.1635
  153MOL   C11618660   3.330   7.509   0.764  0.3535  0.1890  0.2389
  153MOL  Cl11718661   3.214   7.621   0.705 -0.1231 -0.0757 -0.1413
  153MOL  Cl11818662   3.418   7.593   0.894  0.0192  0.3042 -0.3024
  153MOL   C11918663   3.253   7.395   0.834 -0.4726  0.0087 -0.1450
  153MOL   H12018664   3.170   7.358   0.774 -0.3785  0.6072 -0.6572
  153MOL   H12118665   3.309   7.307   0.866 -0.3549 -0.1759 -0.8455
  153MOL   H12218666   3.216   7.438   0.927  0.4450 -0.2988  0.3696
  154MOL     C118667   4.961   3.583   8.531 -0.1065  0.0679 -0.3133
  154MOL    Cl218668   4.908   3.562   8.363  0.0668  0.0047 -0.2728
  154MOL    Cl318669   4.912   3.441   8.634  0.1929 -0.4387  0.2964
  154MOL     C418670   5.115   3.611   8.539 -0.5703 -1.2152 -0.4891
  154MOL     H518671   5.154   3.513   8.510  0.0785 -1.0813 -0.0887
  154MOL     H618672   5.146   3.673   8.454  1.0042 -2.5626 -0.9263
  154MOL     H718673   4.910   3.671   8.571 -1.5747 -0.2614 -1.4204
  154MOL     C818674   5.166   3.661   8.678 -0.2808  0.2044  0.4816
  154MOL    Cl918675   5.163   3.526   8.798 -0.0304 -0.0634 -0.0554
  154MOL   Cl1018676   5.066   3.805   8.731 -0.5111  0.0296 -0.1436
  154MOL    C1118677   5.318   3.707   8.656 -0.3167 -0.0051  0.8713
  154MOL    H1218678   5.363   3.612   8.626 -1.0737  0.2191 -1.0431
  154MOL    H1318679   5.315   3.772   8.568 -0.2987  1.9271  2.2761
  154MOL    C1418680   5.405   3.780   8.765 -0.1111  0.2451 -0.1988
  154MOL   Cl1518681   5.435   3.676   8.910  0.2930  0.0154  0.2065
  154MOL   Cl1618682   5.319   3.925   8.832 -0.1301  0.1419  0.0735
  154MOL    C1718683   5.543   3.831   8.707 -0.3568  0.3542 -0.3576
  154MOL    H1818684   5.529   3.917   8.641  2.5327  1.7358  0.7240
  154MOL    H1918685   5.597   3.875   8.791  0.0007  0.6346 -0.7309
  154MOL    C2018686   5.638   3.731   8.631 -0.3112 -0.8650  0.0859
  154MOL   Cl2118687   5.576   3.674   8.484  0.1836 -0.3417  0.6539
  154MOL   Cl2218688   5.671   3.575   8.729 -0.3496 -0.1527  0.3455
  154MOL    C2318689   5.785   3.790   8.618  0.4728 -0.0766  0.1913
  154MOL    H2418690   5.818   3.816   8.719  2.3395  1.7122 -0.8288
  154MOL    H2518691   5.851   3.707   8.590  1.0663  0.7044 -0.7447
  154MOL    C2618692   5.830   3.897   8.518 -0.1746  1.2985  0.2499
  154MOL   Cl2718693   5.742   4.053   8.541  0.3237  0.5540  0.3748
  154MOL   Cl2818694   5.790   3.861   8.340 -0.5793 -0.2070  0.2420
  154MOL    C2918695   5.977   3.927   8.515 -0.0302 -0.1213  0.3906
  154MOL    H3018696   6.027   3.850   8.457 -0.3752 -0.3151  0.3518
  154MOL    H3118697   5.974   4.015   8.451  0.9564  0.9337  1.7483
  154MOL    C3218698   6.067   3.966   8.630 -0.7850 -0.0137  0.1429
  154MOL   Cl3318699   6.099   3.825   8.720 -0.2473 -0.4013  0.0274
  154MOL   Cl3418700   5.995   4.091   8.736  0.0059  0.0829 -0.0639
  154MOL    C3518701   6.200   4.030   8.589  0.0585 -0.2080 -0.6506
  154MOL    H3618702   6.244   4.075   8.678  0.3910 -2.2957  0.2843
  154MOL    H3718703   6.270   3.953   8.556  0.5244  0.2400 -0.7016
  154MOL    C3818704   6.213   4.133   8.475  0.5451 -0.1831  0.3230
  154MOL   Cl3918705   6.087   4.261   8.487 -0.4097  0.0561  0.3620
  154MOL   Cl4018706   6.196   4.050   8.322  0.0586 -0.2924  0.1352
  154MOL    C4118707   6.340   4.204   8.496  0.0783  0.1393 -0.5685
  154MOL    H4218708   6.354   4.226   8.601 -0.5666  2.0776 -0.8680
  154MOL    H4318709   6.414   4.127   8.473  0.6291  0.4703  0.0697
  154MOL    C4418710   6.386   4.336   8.416  0.6906  0.3931 -0.1162
  154MOL   Cl4518711   6.549   4.350   8.463  0.2413 -0.1305 -0.2410
  154MOL   Cl4618712   6.304   4.489   8.474 -0.5308  0.0161  0.2739
  154MOL    C4718713   6.367   4.318   8.270  0.4439 -0.0506  0.1024
  154MOL    H4818714   6.407   4.221   8.242 -0.3159  0.0008 -1.1882
  154MOL    H4918715   6.260   4.302   8.254  0.8251 -2.3908 -0.2579
  154MOL    C5018716   6.415   4.421   8.161 -0.2157 -0.3616  0.1637
  154MOL   Cl5118717   6.587   4.460   8.167 -0.1327 -0.4348  0.5738
  154MOL   Cl5218718   6.336   4.582   8.168  0.0721 -0.1403 -0.6500
  154MOL    C5318719   6.399   4.371   8.014  0.2672 -0.0138  0.1166
  154MOL    H5418720   6.459   4.440   7.954 -0.9287 -0.3120 -1.4584
  154MOL    H5518721   6.451   4.275   8.017  0.3911  0.0372 -0.3786
  154MOL    C5618722   6.261   4.349   7.938 -0.0455 -0.0898  0.0626
  154MOL   Cl5718723   6.151   4.248   8.040 -0.1099 -0.1074 -0.2563
  154MOL   Cl5818724   6.302   4.247   7.793  0.2660 -0.2930  0.0082
  154MOL    C5918725   6.191   4.488   7.892 -0.1688  0.5233 -0.2666
  154MOL    H6018726   6.194   4.561   7.973 -2.0316 -0.7642  0.9994
  154MOL    H6118727   6.259   4.517   7.812 -2.3134  2.5222 -1.4192
  154MOL    C6218728   6.042   4.495   7.837 -0.5176 -0.1831  0.1862
  154MOL   Cl6318729   6.021   4.373   7.709 -0.0064  0.0250 -0.1316
  154MOL   Cl6418730   6.038   4.652   7.748 -0.4634 -0.3694 -0.2466
  154MOL    C6518731   5.938   4.491   7.950 -0.4973  0.4029  0.0536
  154MOL    H6618732   5.971   4.418   8.024  1.7853  0.2692 -1.0604
  154MOL    H6718733   5.956   4.583   8.006  2.1506 -0.2704  0.3721
  154MOL    C6818734   5.788   4.457   7.921  0.8424  0.4458  0.1496
  154MOL   Cl6918735   5.696   4.493   8.076 -0.0687  0.2617  0.2466
  154MOL   Cl7018736   5.780   4.281   7.882 -0.1280  0.2306  0.1767
  154MOL    C7118737   5.722   4.547   7.810  1.0986 -0.6328  0.1499
  154MOL    H7218738   5.738   4.651   7.838 -1.9701  0.3905 -1.6665
  154MOL    H7318739   5.792   4.540   7.727  2.0476  1.0790  0.7656
  154MOL    C7418740   5.574   4.526   7.757  0.2835  0.1185 -0.1520
  154MOL   Cl7518741   5.534   4.694   7.736  0.1678  0.6665  0.2704
  154MOL   Cl7618742   5.461   4.461   7.879  0.2084 -0.1327  0.0713
  154MOL    C7718743   5.572   4.431   7.629  0.1408  0.1268 -0.4651
  154MOL    H7818744   5.640   4.468   7.552 -0.6588  0.4332 -1.0337
  154MOL    H7918745   5.604   4.335   7.670 -0.0030  1.0415  1.8451
  154MOL    C8018746   5.441   4.396   7.546 -0.7262 -0.3870  0.3388
  154MOL   Cl8118747   5.484   4.262   7.437 -0.2924 -0.3803 -0.0331
  154MOL   Cl8218748   5.415   4.535   7.435 -0.4665  0.3588 -0.1320
  154MOL    C8318749   5.308   4.364   7.631 -1.0134  0.8307  0.1426
  154MOL    H8418750   5.338   4.290   7.704  1.6551  0.2149 -1.5130
  154MOL    H8518751   5.286   4.458   7.683  1.1109  2.8168 -2.3692
  154MOL    C8618752   5.182   4.300   7.562  0.3768 -0.7015 -0.7591
  154MOL   Cl8718753   5.056   4.342   7.683  0.0247 -0.2525 -0.2633
  154MOL   Cl8818754   5.207   4.133   7.558 -0.1885 -0.1816 -0.1193
  154MOL    C8918755   5.138   4.363   7.425 -0.0628  0.3633  0.4826
  154MOL    H9018756   5.126   4.471   7.426  0.3936  0.4795 -2.1922
  154MOL    H9118757   5.219   4.344   7.354 -0.6850  1.7558 -0.6283
  154MOL    C9218758   5.012   4.334   7.349  0.5441 -0.0330  0.1638
  154MOL   Cl9318759   5.013   4.442   7.204  0.0240 -0.6334 -0.6164
  154MOL   Cl9418760   4.877   4.386   7.443 -0.1595 -0.0379  0.1533
  154MOL    C9518761   4.992   4.190   7.305  0.7249  0.3433 -0.6377
  154MOL    H9618762   5.087   4.138   7.297  0.0206 -1.0820  0.0280
  154MOL    H9718763   4.932   4.146   7.384  0.3915 -0.1529 -1.1593
  154MOL    C9818764   4.907   4.151   7.180 -0.0258  0.6571 -0.0985
  154MOL   Cl9918765   5.000   4.163   7.028 -0.4134 -0.3447 -0.3802
  154MOL  Cl10018766   4.763   4.255   7.170  0.1295  0.2301  0.3644
  154MOL   C10118767   4.850   4.008   7.176 -0.2192 -0.0233  0.2518
  154MOL   H10218768   4.751   4.010   7.222 -0.3580  0.7941 -0.0759
  154MOL   H10318769   4.831   3.985   7.071 -2.8336 -2.5451  1.2017
  154MOL   C10418770   4.936   3.889   7.234 -0.4652  0.4371  0.5628
  154MOL  Cl10518771   4.921   3.891   7.422  0.1295  0.4835  0.0561
  154MOL  Cl10618772   5.113   3.911   7.202  0.1540 -0.2810 -0.3112
  154MOL   C10718773   4.888   3.748   7.183 -0.6469 -0.0981  0.3708
  154MOL   H10818774   4.966   3.680   7.217  0.3229 -0.4764 -2.4994
  154MOL   H10918775   4.807   3.715   7.248  2.5526 -1.2521  4.0577
  154MOL   C11018776   4.859   3.716   7.032  0.6841 -0.3286 -0.5175
  154MOL  Cl11118777   4.698   3.770   6.996  0.4077 -0.0377 -0.1482
  154MOL  Cl11218778   4.875   3.535   7.029  0.3006 -0.0475  0.0683
  154MOL   C11318779   4.966   3.779   6.939  0.0732 -0.2901  0.4164
  154MOL   H11418780   4.980   3.883   6.968 -2.5832  0.4232 -0.6786
  154MOL   H11518781   5.060   3.728   6.956  0.4554  0.3305  0.2061
  154MOL   C11618782   4.946   3.776   6.786 -0.2212  0.0927  0.3969
  154MOL  Cl11718783   5.103   3.826   6.714  0.0968  0.0410 -0.0362
  154MOL  Cl11818784   4.826   3.892   6.736  0.3423  0.0387  0.1374
  154MOL   C11918785   4.904   3.637   6.735 -0.1663  0.1945 -0.0223
  154MOL   H12018786   4.805   3.600   6.763 -0.0284  0.9311  1.4774
  154MOL   H12118787   4.913   3.640   6.627 -2.4770 -2.4651 -0.3505
  154MOL   H12218788   4.982   3.567   6.765  1.5858  1.6244 -1.1519
  155MOL     C118789   3.446   1.272   6.304 -0.7779  0.3207  0.1725
  155MOL    Cl218790   3.423   1.418   6.397 -0.3238 -0.3340 -0.1518
  155MOL    Cl318791   3.294   1.185   6.300 -0.0745 -0.2063  0.4283
  155MOL     C418792   3.487   1.311   6.158 -0.4996 -0.5318 -0.3761
  155MOL     H518793   3.468   1.222   6.099  1.5603 -1.7940  0.7925
  155MOL     H618794   3.414   1.383   6.121 -1.5070  1.0146  4.2545
  155MOL     H718795   3.517   1.214   6.363  2.4076  3.0165 -0.8286
  155MOL     C818796   3.634   1.366   6.133  0.0731 -0.4892 -0.4451
  155MOL    Cl918797   3.745   1.237   6.201  0.5324 -0.3120 -0.0496
  155MOL   Cl1018798   3.666   1.518   6.223 -0.3468 -0.0795 -0.2671
  155MOL    C1118799   3.662   1.380   5.983 -0.0321  0.3506  0.5525
  155MOL    H1218800   3.613   1.296   5.933 -0.3209 -0.1320  1.6336
  155MOL    H1318801   3.611   1.471   5.953 -1.1695 -0.3984  0.1594
  155MOL    C1418802   3.809   1.378   5.916  0.2356 -0.3622  0.2945
  155MOL   Cl1518803   3.887   1.216   5.915  0.1434  0.6241 -0.0598
  155MOL   Cl1618804   3.922   1.484   6.000  0.0429 -0.1663 -0.0551
  155MOL    C1718805   3.804   1.433   5.761  0.2397 -0.1032  0.0285
  155MOL    H1818806   3.792   1.542   5.764 -0.7172 -0.2436  1.7513
  155MOL    H1918807   3.905   1.425   5.720 -0.3946  0.8639 -1.7610
  155MOL    C2018808   3.703   1.373   5.656  1.1969 -0.1853 -0.4103
  155MOL   Cl2118809   3.724   1.471   5.511 -0.0191  0.0409  0.1970
  155MOL   Cl2218810   3.526   1.389   5.710  0.0100  0.3017  0.0607
  155MOL    C2318811   3.741   1.227   5.616 -0.9156  0.8294 -0.3797
  155MOL    H2418812   3.839   1.229   5.568 -1.9400  0.0908 -2.5415
  155MOL    H2518813   3.769   1.171   5.705  0.1905  2.4934  0.3696
  155MOL    C2618814   3.649   1.122   5.540  0.3252 -0.2477 -0.4627
  155MOL   Cl2718815   3.564   1.196   5.400 -0.0625  0.3287  0.2646
  155MOL   Cl2818816   3.522   1.071   5.654 -0.2448 -0.1212 -0.2198
  155MOL    C2918817   3.727   0.993   5.496 -0.3352  0.1234 -0.5888
  155MOL    H3018818   3.796   0.986   5.580 -0.2493  2.5546 -0.4198
  155MOL    H3118819   3.659   0.908   5.503 -0.1084 -0.1463 -1.5884
  155MOL    C3218820   3.804   0.986   5.370  0.5903 -0.2704 -0.7903
  155MOL   Cl3318821   3.881   1.145   5.329 -0.3177 -0.0636 -0.6331
  155MOL   Cl3418822   3.706   0.950   5.235  0.3047  0.1972  0.2730
  155MOL    C3518823   3.903   0.870   5.364  0.0485  0.0667  0.4306
  155MOL    H3618824   3.848   0.780   5.337 -1.0271  0.7045  0.4524
  155MOL    H3718825   3.965   0.909   5.284 -0.1775  2.2697  1.2979
  155MOL    C3818826   4.001   0.836   5.472 -0.8030 -0.7093  0.3015
  155MOL   Cl3918827   3.917   0.727   5.583 -0.0341  0.3381 -0.2378
  155MOL   Cl4018828   4.064   0.970   5.567 -0.0658 -0.3139 -0.0021
  155MOL    C4118829   4.127   0.744   5.433 -0.4982  0.4553  0.1024
  155MOL    H4218830   4.188   0.758   5.522 -0.0753  0.3592 -0.1699
  155MOL    H4318831   4.105   0.637   5.425  2.1405 -0.1492  0.2245
  155MOL    C4418832   4.210   0.778   5.298  0.4577  0.3685  0.3886
  155MOL   Cl4518833   4.252   0.958   5.285  0.1436 -0.0118  0.1874
  155MOL   Cl4618834   4.115   0.719   5.158 -0.3302  0.0501  0.1225
  155MOL    C4718835   4.346   0.701   5.289 -0.4336 -0.1687 -0.3017
  155MOL    H4818836   4.338   0.600   5.250  1.9181 -0.2506 -0.6391
  155MOL    H4918837   4.389   0.752   5.203 -0.8243  0.0013 -0.3952
  155MOL    C5018838   4.444   0.696   5.411 -0.3256 -0.2121 -0.0733
  155MOL   Cl5118839   4.396   0.567   5.527  0.0331  0.2008  0.1105
  155MOL   Cl5218840   4.433   0.844   5.509  0.5474  0.0064  0.2605
  155MOL    C5318841   4.590   0.657   5.386 -0.3392  0.9240 -0.6924
  155MOL    H5418842   4.643   0.660   5.481 -0.1485 -0.6096 -0.7366
  155MOL    H5518843   4.587   0.557   5.341  0.2952 -0.0038  1.2697
  155MOL    C5618844   4.673   0.735   5.280  0.1098  0.0981 -0.0730
  155MOL   Cl5718845   4.623   0.664   5.120  0.3252  0.1955 -0.9299
  155MOL   Cl5818846   4.836   0.671   5.300 -0.3398  0.6830  0.3970
  155MOL    C5918847   4.661   0.891   5.274  0.5504  0.2447 -0.9550
  155MOL    H6018848   4.681   0.922   5.172 -1.4286  2.3370 -0.7477
  155MOL    H6118849   4.555   0.914   5.289  0.1283 -2.5774  0.8895
  155MOL    C6218850   4.753   0.977   5.358  0.3207  0.1748 -0.0726
  155MOL   Cl6318851   4.755   0.903   5.531  0.0832  0.5370  0.0240
  155MOL   Cl6418852   4.677   1.135   5.361  0.5887 -0.1450 -0.0374
  155MOL    C6518853   4.892   0.990   5.296  0.2182  0.5278 -0.2398
  155MOL    H6618854   4.938   0.893   5.278  0.6171  0.9499 -1.5163
  155MOL    H6718855   4.872   1.014   5.192 -1.8360 -0.4762 -0.0825
  155MOL    C6818856   5.015   1.064   5.360 -0.5775 -0.2702 -0.0424
  155MOL   Cl6918857   5.146   1.046   5.245  0.0723  0.0065  0.0178
  155MOL   Cl7018858   5.080   0.965   5.496  0.2680 -0.0646  0.2393
  155MOL    C7118859   4.990   1.215   5.392 -0.2770 -0.2677 -0.2254
  155MOL    H7218860   4.942   1.256   5.303  1.8780 -0.4105 -1.4963
  155MOL    H7318861   4.926   1.212   5.480  0.6641 -0.4454  0.4573
  155MOL    C7418862   5.101   1.315   5.435  0.2845  0.4355 -0.3596
  155MOL   Cl7518863   5.219   1.354   5.306 -0.1038  0.3130  0.3609
  155MOL   Cl7618864   5.193   1.237   5.568  0.3555  0.1159  0.1686
  155MOL    C7718865   5.044   1.446   5.501 -0.2237  0.3676  0.3585
  155MOL    H7818866   5.023   1.415   5.603  2.3562  0.3906  0.9506
  155MOL    H7918867   5.135   1.507   5.503 -0.1090  0.2483 -1.0823
  155MOL    C8018868   4.939   1.528   5.431  0.6153  0.1976  0.3804
  155MOL   Cl8118869   4.771   1.450   5.457 -0.2646 -0.3361  0.2086
  155MOL   Cl8218870   4.958   1.531   5.264  0.0186 -0.2826 -0.5047
  155MOL    C8318871   4.931   1.674   5.471  0.1228  0.6306 -0.3875
  155MOL    H8418872   5.019   1.725   5.433  1.1409 -0.6300  0.2371
  155MOL    H8518873   4.850   1.710   5.408 -1.3490 -0.1113  1.0314
  155MOL    C8618874   4.907   1.723   5.612  0.0913 -0.5020 -0.0827
  155MOL   Cl8718875   4.924   1.903   5.595  0.1083  0.1852  0.1994
  155MOL   Cl8818876   5.046   1.666   5.717 -0.5348 -0.1925 -0.1318
  155MOL    C8918877   4.773   1.686   5.677  0.3372 -0.0939  1.4708
  155MOL    H9018878   4.699   1.694   5.597  1.0815 -1.0489  0.6624
  155MOL    H9118879   4.783   1.580   5.700  1.0508 -0.3894 -0.0915
  155MOL    C9218880   4.721   1.767   5.798 -0.4074 -0.1960  0.3971
  155MOL   Cl9318881   4.584   1.682   5.874 -0.0594  0.6348  0.3405
  155MOL   Cl9418882   4.652   1.913   5.728 -0.0418 -0.0266 -0.0790
  155MOL    C9518883   4.828   1.807   5.911 -0.2693  0.1775 -1.3446
  155MOL    H9618884   4.875   1.713   5.940 -1.7875  0.1293  1.1154
  155MOL    H9718885   4.896   1.872   5.858 -0.7146  0.7277 -1.2421
  155MOL    C9818886   4.772   1.861   6.041 -1.2148 -0.3523  0.2806
  155MOL   Cl9918887   4.712   1.730   6.137 -0.1859 -0.0538  0.3092
  155MOL  Cl10018888   4.651   1.996   6.030 -0.0556 -0.0444  0.1994
  155MOL   C10118889   4.883   1.918   6.126 -0.0062  0.1627  0.0829
  155MOL   H10218890   4.834   1.955   6.216  1.7554  0.4263  0.9525
  155MOL   H10318891   4.931   1.831   6.170 -2.0865 -1.9092 -1.6393
  155MOL   C10418892   4.983   2.009   6.071  0.2591 -0.6868  0.4820
  155MOL  Cl10518893   4.928   2.103   5.932  0.4095  0.3170  0.0536
  155MOL  Cl10618894   5.127   1.927   6.018  0.2731  0.0369  0.3776
  155MOL   C10718895   5.031   2.102   6.194 -0.2649 -0.1471 -0.0928
  155MOL   H10818896   4.948   2.126   6.261  1.3139  0.1129  1.8147
  155MOL   H10918897   5.085   2.040   6.265  0.2837  0.9976  0.4950
  155MOL   C11018898   5.109   2.240   6.173  0.7341  0.6471  0.0241
  155MOL  Cl11118899   5.004   2.366   6.095 -0.4822 -0.3794  0.0968
  155MOL  Cl11218900   5.262   2.227   6.081 -0.0522 -0.3623 -0.0549
  155MOL   C11318901   5.146   2.309   6.301 -0.7764  0.2921  0.1341
  155MOL   H11418902   5.203   2.391   6.257 -1.5575  0.2330 -1.0093
  155MOL   H11518903   5.051   2.341   6.344 -1.0411  0.8267 -0.8491
  155MOL   C11618904   5.232   2.246   6.411  0.2097 -0.4410  0.7185
  155MOL  Cl11718905   5.385   2.183   6.359 -0.0069 -0.0065  0.1617
  155MOL  Cl11818906   5.139   2.131   6.511  0.3577  0.3920 -0.0482
  155MOL   C11918907   5.270   2.356   6.509 -0.5231  0.2931  0.3244
  155MOL   H12018908   5.338   2.310   6.581 -0.2477  2.3265  1.3716
  155MOL   H12118909   5.324   2.432   6.453  0.3825 -1.9384 -1.9640
  155MOL   H12218910   5.185   2.401   6.560 -1.0647  1.1406 -1.2966
  156MOL     C118911   3.892   3.117   8.623  0.2553  0.1007  0.2902
  156MOL    Cl218912   4.071   3.102   8.613 -0.2633  0.4902 -0.2254
  156MOL    Cl318913   3.826   3.223   8.493  0.3692  0.1541 -0.2307
  156MOL     C418914   3.826   2.979   8.617  0.5692 -0.0357 -0.4825
  156MOL     H518915   3.719   2.995   8.612  0.5935  0.5926  0.8521
  156MOL     H618916   3.862   2.937   8.523  0.8547 -0.0728 -0.3589
  156MOL     H718917   3.876   3.163   8.720 -0.0437 -0.1701  0.3704
  156MOL     C818918   3.859   2.879   8.735  0.8168  0.1941 -0.4112
  156MOL    Cl918919   3.760   2.729   8.704  0.0037  0.2837 -0.0186
  156MOL   Cl1018920   3.801   2.957   8.889  0.3065 -0.1081  0.1496
  156MOL    C1118921   4.004   2.843   8.766  0.4346  0.5387 -0.0695
  156MOL    H1218922   4.052   2.828   8.670  0.1788 -3.7236  0.3562
  156MOL    H1318923   4.058   2.925   8.812 -0.1333 -0.4168  2.4383
  156MOL    C1418924   4.031   2.713   8.847  0.1966 -0.2528 -0.0338
  156MOL   Cl1518925   4.206   2.709   8.895 -0.1032  0.2226  0.2810
  156MOL   Cl1618926   4.033   2.578   8.742 -0.1097 -0.6169  0.0291
  156MOL    C1718927   3.948   2.678   8.975 -0.0899 -0.8327 -0.3347
  156MOL    H1818928   3.968   2.758   9.047 -2.4243  1.6286 -2.3109
  156MOL    H1918929   3.845   2.704   8.948 -0.4471  2.2847  3.5951
  156MOL    C2018930   3.951   2.535   9.041  0.2481  0.2143 -0.3418
  156MOL   Cl2118931   4.117   2.475   9.061 -0.2341 -0.0574 -0.3286
  156MOL   Cl2218932   3.862   2.416   8.942  0.0491 -0.0735  0.0627
  156MOL    C2318933   3.893   2.531   0.004  0.5836 -0.1895 -0.1268
  156MOL    H2418934   3.903   2.430   0.044 -0.6461  0.1092  0.9774
  156MOL    H2518935   3.956   2.597   0.063  1.3458 -1.6868  0.7826
  156MOL    C2618936   3.746   2.574   0.039  0.2273 -0.3935 -0.5669
  156MOL   Cl2718937   3.719   2.750   0.003 -0.2257  0.0096 -0.3428
  156MOL   Cl2818938   3.735   2.555   0.215  0.2060  0.1097 -0.3551
  156MOL    C2918939   3.648   2.480   9.149 -0.0358  0.1262  1.1879
  156MOL    H3018940   3.640   2.508   9.044  1.7115  1.1466  1.3117
  156MOL    H3118941   3.698   2.383   9.150  1.3303  0.8212  0.7325
  156MOL    C3218942   3.507   2.458   0.029 -0.2228 -0.9792 -0.6191
  156MOL   Cl3318943   3.505   2.339   0.157  0.0808 -0.3103 -0.1892
  156MOL   Cl3418944   3.419   2.375   9.078  0.4815  0.0764 -0.5459
  156MOL    C3518945   3.446   2.593   0.075  0.2464  0.0549 -0.1973
  156MOL    H3618946   3.497   2.641   0.159  0.1333 -1.8476  0.9646
  156MOL    H3718947   3.447   2.660   9.169 -0.3397 -0.8283 -0.9028
  156MOL    C3818948   3.292   2.611   0.120  0.3507 -0.3892  0.0549
  156MOL   Cl3918949   3.263   2.787   0.118  0.1578  0.0667 -0.3996
  156MOL   Cl4018950   3.297   2.553   0.288 -0.3341  0.0074 -0.3385
  156MOL    C4118951   3.178   2.527   0.038  0.3776  0.0621  0.1393
  156MOL    H4218952   3.198   2.530   9.111 -2.1249  0.6767 -0.3524
  156MOL    H4318953   3.187   2.419   0.054  2.2072  0.3232  0.9553
  156MOL    C4418954   3.025   2.555   0.073  0.0754  0.4632 -0.1279
  156MOL   Cl4518955   2.931   2.431   9.168 -0.3188  0.0655  0.2594
  156MOL   Cl4618956   2.974   2.720   0.018 -0.2288 -0.0790  0.0097
  156MOL    C4718957   2.986   2.547   0.228  0.7573 -0.0006 -0.2093
  156MOL    H4818958   3.046   2.472   0.279  0.4859 -1.3286 -1.8162
  156MOL    H4918959   3.014   2.644   0.268  1.0899 -0.0889 -0.2281
  156MOL    C5018960   2.841   2.525   0.274  0.4218 -0.0653 -0.0795
  156MOL   Cl5118961   2.722   2.628   0.188  0.2531 -0.3524 -0.2955
  156MOL   Cl5218962   2.820   2.580   0.449  0.5732  0.2999  0.1282
  156MOL    C5318963   2.775   2.384   0.264 -0.5483 -0.4419  0.1401
  156MOL    H5418964   2.679   2.383   0.317  0.0779 -1.2029  1.2586
  156MOL    H5518965   2.742   2.377   0.160 -0.1879  0.4295 -0.0351
  156MOL    C5618966   2.841   2.257   0.312 -0.1009  0.4569 -0.3460
  156MOL   Cl5718967   2.992   2.221   0.219 -0.0414 -0.2670 -0.0824
  156MOL   Cl5818968   2.729   2.121   0.277  0.0800 -0.0262 -0.4292
  156MOL    C5918969   2.865   2.269   0.463 -0.2487 -0.0564 -0.2062
  156MOL    H6018970   2.944   2.343   0.475 -0.5636  0.2446  0.0670
  156MOL    H6118971   2.777   2.319   0.505  0.3182  0.1800  0.7135
  156MOL    C6218972   2.907   2.146   0.557  0.0193  0.0914 -0.2844
  156MOL   Cl6318973   2.764   2.047   0.587  0.2941  0.4128 -0.1784
  156MOL   Cl6418974   2.957   2.199   0.717 -0.3170 -0.3102  0.3520
  156MOL    C6518975   3.015   2.054   0.510  0.3049 -0.0376  0.0902
  156MOL    H6618976   3.012   1.965   0.573 -0.0992  0.7489  1.1975
  156MOL    H6718977   2.978   2.011   0.417 -0.0501 -1.1396  0.7268
  156MOL    C6818978   3.167   2.094   0.511 -0.3735  0.1361 -0.3432
  156MOL   Cl6918979   3.229   2.090   0.680 -0.1832 -0.4459  0.6210
  156MOL   Cl7018980   3.195   2.259   0.454 -0.3351  0.1931 -0.0857
  156MOL    C7118981   3.242   1.972   0.440 -0.1960 -1.0324  0.1452
  156MOL    H7218982   3.217   1.876   0.485  0.1752 -0.2385  2.1059
  156MOL    H7318983   3.199   1.957   0.341  1.5367 -0.4530 -0.7250
  156MOL    C7418984   3.397   1.964   0.432 -0.2231 -0.1419  0.2261
  156MOL   Cl7518985   3.470   1.914   0.593  0.2650 -0.0374  0.4495
  156MOL   Cl7618986   3.467   2.117   0.386  0.6498 -0.4908 -0.1750
  156MOL    C7718987   3.425   1.845   0.328  0.5626  0.3637 -0.3134
  156MOL    H7818988   3.418   1.762   0.398 -0.9208  1.0270  0.3505
  156MOL    H7918989   3.347   1.825   0.255 -1.2034  2.9450  0.7791
  156MOL    C8018990   3.560   1.838   0.256  0.6430  0.4762 -0.2156
  156MOL   Cl8118991   3.570   1.668   0.206 -0.0991 -0.0506 -0.0622
  156MOL   Cl8218992   3.692   1.853   0.373  0.4915 -0.0512 -0.1434
  156MOL    C8318993   3.583   1.930   0.132 -0.4277  0.0842 -0.0057
  156MOL    H8418994   3.608   2.029   0.170  0.3557  0.4909 -1.5466
  156MOL    H8518995   3.680   1.896   0.096  0.5812  1.8336  0.9807
  156MOL    C8618996   3.486   1.936   0.009 -0.2612 -0.6106 -0.4657
  156MOL   Cl8718997   3.567   2.038   9.072 -0.1674 -0.0738  0.2525
  156MOL   Cl8818998   3.341   2.033   0.052  0.0473 -0.0569  0.2424
  156MOL    C8918999   3.445   1.800   9.129 -0.1728  1.0049 -0.1284
  156MOL    H9019000   3.543   1.752   9.136 -1.1515 -0.7220  2.6537
  156MOL    H9119001   3.390   1.747   0.026 -2.2156  0.7720 -1.7142
  156MOL    C9219002   3.384   1.774   8.991 -0.1722  0.0673  0.2775
  156MOL   Cl9319003   3.337   1.604   8.992 -0.1357 -0.0122  0.1447
  156MOL   Cl9419004   3.509   1.788   8.864 -0.5244 -0.0942 -0.3831
  156MOL    C9519005   3.266   1.871   8.962 -0.8174 -0.5877  0.0120
  156MOL    H9619006   3.208   1.890   9.052 -0.7310 -2.0639  0.3943
  156MOL    H9719007   3.302   1.972   8.944  0.2629 -0.8461  0.6424
  156MOL    C9819008   3.146   1.834   8.862 -0.1066  0.4694  0.1896
  156MOL   Cl9919009   3.050   1.714   8.950 -0.0422  0.1696 -0.2855
  156MOL  Cl10019010   3.211   1.774   8.708  0.5237  0.3815  0.7264
  156MOL   C10119011   3.049   1.958   8.836 -0.7160 -0.1996 -0.3232
  156MOL   H10219012   3.083   2.017   8.750  0.1198 -1.7886 -1.1016
  156MOL   H10319013   2.955   1.913   8.807 -1.0039 -0.2114  0.6049
  156MOL   C10419014   3.000   2.061   8.945 -0.9577  0.2806  0.1914
  156MOL  Cl10519015   3.141   2.164   9.005 -0.1466  0.0308  0.3151
  156MOL  Cl10619016   2.930   1.982   9.090  0.3674  0.1425 -0.3200
  156MOL   C10719017   2.891   2.168   8.907 -0.3073  0.2785  0.3633
  156MOL   H10819018   2.791   2.124   8.899 -0.3688  0.5123 -0.2281
  156MOL   H10919019   2.888   2.242   8.987  1.8424  0.6898  0.0842
  156MOL   C11019020   2.901   2.244   8.766 -0.0758 -0.1474  0.0972
  156MOL  Cl11119021   2.857   2.118   8.637  0.4962  0.0712 -0.1111
  156MOL  Cl11219022   3.063   2.315   8.739  0.0315 -0.0964  0.1478
  156MOL   C11319023   2.807   2.369   8.757 -0.1016 -0.5336  0.3327
  156MOL   H11419024   2.714   2.348   8.810 -0.4341 -1.7799 -0.7283
  156MOL   H11519025   2.852   2.448   8.817 -2.0054  0.8254  0.0292
  156MOL   C11619026   2.765   2.446   8.620  0.1603 -0.1395 -0.5263
  156MOL  Cl11719027   2.689   2.607   8.655 -0.1352  0.1178  0.2465
  156MOL  Cl11819028   2.640   2.352   8.532 -0.0246  0.3820  0.3201
  156MOL   C11919029   2.891   2.480   8.533  0.0314  0.1669  1.0422
  156MOL   H12019030   2.936   2.390   8.492 -2.4695 -1.1386  1.0936
  156MOL   H12119031   2.872   2.547   8.449  0.1034 -1.8691 -0.6463
  156MOL   H12219032   2.972   2.531   8.586 -0.8907  0.3080  2.3440
  157MOL     C119033   7.378   3.277   8.026  1.2179  1.0068  0.2385
  157MOL    Cl219034   7.512   3.169   8.031  0.2249 -0.2289  0.2903
  157MOL    Cl319035   7.264   3.224   8.148 -0.4098  0.1528  0.2972
  157MOL     C419036   7.424   3.424   8.032 -0.3883 -1.1559  0.0436
  157MOL     H519037   7.458   3.441   8.133 -0.8518  2.9563 -0.4337
  157MOL     H619038   7.509   3.435   7.965  2.2928  0.6053  3.6157
  157MOL     H719039   7.321   3.273   7.933  3.0483  1.4603 -0.9433
  157MOL     C819040   7.313   3.538   8.004  0.6963  0.3451 -1.2094
  157MOL    Cl919041   7.201   3.553   8.149  0.3944 -0.1091  0.2328
  157MOL   Cl1019042   7.207   3.475   7.875  0.1883  0.0183  0.0358
  157MOL    C1119043   7.360   3.685   7.973 -0.2424  0.7589 -0.4129
  157MOL    H1219044   7.275   3.742   7.933 -0.6689  0.4872  0.1009
  157MOL    H1319045   7.386   3.736   8.066  0.0780 -0.6045  0.2494
  157MOL    C1419046   7.479   3.700   7.877  0.0142  0.6100  0.2852
  157MOL   Cl1519047   7.453   3.603   7.732 -0.0388  0.0759  0.3675
  157MOL   Cl1619048   7.638   3.643   7.946 -0.1143  0.2768 -0.3816
  157MOL    C1719049   7.494   3.847   7.825 -0.0478 -0.4486 -0.0875
  157MOL    H1819050   7.570   3.838   7.748 -0.2342  2.2597 -0.6276
  157MOL    H1919051   7.397   3.869   7.778 -0.1201  1.3505  0.8451
  157MOL    C2019052   7.513   3.964   7.928 -0.1000 -0.2849 -0.2526
  157MOL   Cl2119053   7.373   3.982   8.035 -0.6170 -0.1964  0.0671
  157MOL   Cl2219054   7.509   4.110   7.820  0.0156 -0.0247 -0.2514
  157MOL    C2319055   7.646   3.961   8.017  0.0717 -0.0536 -0.5417
  157MOL    H2419056   7.623   3.887   8.093 -2.1416  1.3911  0.2639
  157MOL    H2519057   7.730   3.922   7.960  0.1857 -0.2850 -0.2154
  157MOL    C2619058   7.700   4.081   8.103 -0.1655  0.0890  0.0171
  157MOL   Cl2719059   7.770   4.200   7.991 -0.2610  0.0762 -0.1103
  157MOL   Cl2819060   7.836   4.008   8.196 -0.2269 -0.0777 -0.3756
  157MOL    C2919061   7.586   4.147   8.186 -0.2637 -0.4322 -0.3052
  157MOL    H3019062   7.534   4.208   8.112  1.7224 -0.4412 -1.7743
  157MOL    H3119063   7.516   4.074   8.226  0.6900 -0.5320  1.2035
  157MOL    C3219064   7.629   4.237   8.301  0.1975  0.0515 -0.3053
  157MOL   Cl3319065   7.632   4.144   8.447  0.4433 -0.0620  0.3712
  157MOL   Cl3419066   7.486   4.340   8.332  0.0184  0.0908 -0.2960
  157MOL    C3519067   7.757   4.329   8.291  0.2015  0.1389  0.2734
  157MOL    H3619068   7.834   4.272   8.240  0.7278 -1.0735  2.3738
  157MOL    H3719069   7.733   4.409   8.220 -1.8492 -1.1300 -0.5327
  157MOL    C3819070   7.812   4.412   8.414 -0.1636  0.3571 -0.3102
  157MOL   Cl3919071   7.925   4.533   8.359  0.0758 -0.0004  0.5359
  157MOL   Cl4019072   7.913   4.305   8.515  0.3179 -0.0878 -0.0004
  157MOL    C4119073   7.702   4.482   8.499 -0.5398  0.5916 -0.1540
  157MOL    H4219074   7.646   4.550   8.435 -0.4496 -0.2163 -1.0924
  157MOL    H4319075   7.638   4.403   8.537 -3.0347  2.4905 -0.2967
  157MOL    C4419076   7.737   4.561   8.635  0.7516  0.4685 -0.5145
  157MOL   Cl4519077   7.578   4.601   8.696  0.0860 -0.0815  0.2400
  157MOL   Cl4619078   7.830   4.713   8.590 -0.2915  0.2712  0.1414
  157MOL    C4719079   7.815   4.478   8.744 -0.2654 -0.7322 -0.5907
  157MOL    H4819080   7.771   4.378   8.745  0.2597 -0.9621  1.5328
  157MOL    H4919081   7.918   4.467   8.711 -0.2488  2.5690 -1.7910
  157MOL    C5019082   7.818   4.525   8.891  0.3097  0.1083  0.0552
  157MOL   Cl5119083   7.952   4.425   8.962  0.2434 -0.2112 -0.5827
  157MOL   Cl5219084   7.672   4.489   8.981 -0.3920 -0.1683 -0.1541
  157MOL    C5319085   7.864   4.677   8.903  0.8628 -0.0480 -0.0062
  157MOL    H5419086   7.962   4.688   8.857  0.4482 -0.8491 -1.1110
  157MOL    H5519087   7.792   4.731   8.842  1.0137 -1.6767 -1.6889
  157MOL    C5619088   7.878   4.746   9.037  0.2568  0.0173 -0.1667
  157MOL   Cl5719089   8.018   4.685   9.126 -0.0347 -0.0697  0.4664
  157MOL   Cl5819090   7.742   4.714   9.149 -0.4540 -0.0581  0.3469
  157MOL    C5919091   7.876   4.903   9.030  0.2227 -0.2171 -0.5641
  157MOL    H6019092   7.780   4.928   8.986 -0.6690 -2.0073  0.3596
  157MOL    H6119093   7.883   4.935   9.134  1.2610 -1.9684 -0.0810
  157MOL    C6219094   7.990   4.982   8.958  0.7585 -0.8980  0.1886
  157MOL   Cl6319095   7.965   4.959   8.781 -0.4297  0.2376  0.2322
  157MOL   Cl6419096   8.157   4.929   8.989  0.2151 -0.4096  0.0071
  157MOL    C6519097   7.995   5.131   8.988  0.4267 -0.0103  0.1203
  157MOL    H6619098   8.034   5.135   9.090  1.0637 -0.7267 -0.0883
  157MOL    H6719099   8.078   5.174   8.930  1.9336  0.5789  2.6283
  157MOL    C6819100   7.872   5.228   8.978  0.2967 -0.4941 -0.2175
  157MOL   Cl6919101   7.943   5.370   9.065 -0.1400  0.2935 -0.1213
  157MOL   Cl7019102   7.724   5.177   9.066 -0.1293  0.1573 -0.0100
  157MOL    C7119103   7.839   5.266   8.836 -0.1847 -0.4397  0.0012
  157MOL    H7219104   7.928   5.308   8.789  0.0795 -0.1324  0.7699
  157MOL    H7319105   7.826   5.171   8.783 -1.0776  0.4184 -1.3543
  157MOL    C7419106   7.718   5.354   8.798 -0.4262  0.7239  0.3180
  157MOL   Cl7519107   7.564   5.243   8.776 -0.1297 -0.0824  0.0024
  157MOL   Cl7619108   7.761   5.404   8.631  0.0026 -0.2723 -0.0806
  157MOL    C7719109   7.697   5.476   8.885  0.1966 -0.4776 -0.2401
  157MOL    H7819110   7.706   5.454   8.991  0.2049  1.7364  0.2505
  157MOL    H7919111   7.777   5.544   8.854  0.4106 -0.7104 -0.2018
  157MOL    C8019112   7.566   5.550   8.880 -0.0370  0.1612  0.3444
  157MOL   Cl8119113   7.582   5.704   8.977  0.0654 -0.0000 -0.4492
  157MOL   Cl8219114   7.442   5.453   8.962  0.2151 -0.0519  0.2024
  157MOL    C8319115   7.507   5.589   8.737 -0.6010 -0.1321 -0.1227
  157MOL    H8419116   7.516   5.499   8.675 -0.5141  0.8110 -1.5012
  157MOL    H8519117   7.399   5.599   8.747 -0.3893  0.4000  1.7045
  157MOL    C8619118   7.558   5.721   8.656  0.2295 -0.3640 -0.7892
  157MOL   Cl8719119   7.554   5.683   8.485 -0.0093  0.0305  0.1959
  157MOL   Cl8819120   7.735   5.763   8.689  0.4435  0.2637  0.0108
  157MOL    C8919121   7.455   5.840   8.692 -0.6272 -0.2637 -0.0996
  157MOL    H9019122   7.362   5.824   8.638 -1.4333  2.9954  0.1812
  157MOL    H9119123   7.430   5.828   8.797 -1.2102  2.3342  0.1018
  157MOL    C9219124   7.492   5.993   8.681  0.2980  0.9679  0.1342
  157MOL   Cl9319125   7.598   6.032   8.813 -0.4503  0.2506 -0.2071
  157MOL   Cl9419126   7.339   6.086   8.714 -0.1774  0.4795  0.0889
  157MOL    C9519127   7.549   6.025   8.539 -0.2303 -0.5201  0.2309
  157MOL    H9619128   7.644   5.973   8.523 -0.7578 -1.7814  1.0907
  157MOL    H9719129   7.491   5.988   8.456  0.3514 -1.3590  0.1860
  157MOL    C9819130   7.579   6.173   8.486  0.1960 -0.5062  0.8266
  157MOL   Cl9919131   7.437   6.269   8.448 -0.1190  0.3335 -0.1285
  157MOL  Cl10019132   7.665   6.158   8.326  0.0015 -0.2034  0.0145
  157MOL   C10119133   7.658   6.272   8.578 -0.9289  0.2113 -0.1993
  157MOL   H10219134   7.649   6.376   8.548 -0.9039  0.5668  1.0209
  157MOL   H10319135   7.616   6.267   8.679  1.2827 -1.5929  0.6687
  157MOL   C10419136   7.815   6.270   8.587  0.4806  0.3225  0.2797
  157MOL  Cl10519137   7.898   6.299   8.431  0.0766  0.2464 -0.1081
  157MOL  Cl10619138   7.865   6.105   8.638 -0.5639  0.1027 -0.3086
  157MOL   C10719139   7.878   6.368   8.688 -0.8527 -0.2588 -0.1937
  157MOL   H10819140   7.984   6.347   8.699 -0.9307 -2.3571 -2.7272
  157MOL   H10919141   7.879   6.459   8.628 -0.1897  1.3359  2.2075
  157MOL   C11019142   7.829   6.402   8.825 -0.1723  0.3511  0.0376
  157MOL  Cl11119143   7.664   6.473   8.830  0.0429 -0.0344 -0.0705
  157MOL  Cl11219144   7.939   6.531   8.872  0.3391 -0.3518  0.0481
  157MOL   C11319145   7.840   6.271   8.919 -0.1900  0.3062  0.1052
  157MOL   H11419146   7.790   6.185   8.876  0.3965  0.0156  0.0057
  157MOL   H11519147   7.940   6.229   8.920 -1.8714 -3.8738  0.0493
  157MOL   C11619148   7.790   6.271   9.068 -1.0840 -0.1023  0.2990
  157MOL  Cl11719149   7.841   6.114   9.129 -0.2933  0.0151  0.1892
  157MOL  Cl11819150   7.611   6.277   9.080 -0.6731  0.4611 -0.4604
  157MOL   C11919151   7.847   6.376   9.166 -0.4011  0.1574  0.5174
  157MOL   H12019152   7.827   6.477   9.132 -2.4875 -0.5222 -0.3571
  157MOL   H12119153   7.800   6.368   0.083 -5.1220 -1.0567 -1.7376
  157MOL   H12219154   7.956   6.370   9.165 -0.1587  3.3513 -2.4817
  158MOL     C119155   5.140   4.657   2.072  0.1897 -0.5050 -1.1100
  158MOL    Cl219156   5.069   4.500   2.098  0.1921 -0.3237  0.1475
  158MOL    Cl319157   5.229   4.646   1.910  0.0040 -0.1516  0.0684
  158MOL     C419158   5.048   4.779   2.089  0.2132 -0.6433  0.2428
  158MOL     H519159   5.104   4.858   2.040 -0.6067 -0.3254 -0.1824
  158MOL     H619160   4.958   4.762   2.029  0.7042 -2.3304 -0.0606
  158MOL     H719161   5.213   4.666   2.152 -2.4103  0.3291  1.2491
  158MOL     C819162   5.011   4.815   2.238 -0.0026  0.0356  0.4943
  158MOL    Cl919163   5.158   4.855   2.330  0.0521  0.1256 -0.0601
  158MOL   Cl1019164   4.935   4.680   2.310  0.0711 -0.2368 -0.2139
  158MOL    C1119165   4.908   4.932   2.256 -0.7429 -0.4402 -1.5618
  158MOL    H1219166   4.814   4.879   2.240  0.4327 -2.3800 -2.2372
  158MOL    H1319167   4.897   4.954   2.363 -1.1020 -0.9950 -1.4823
  158MOL    C1419168   4.912   5.068   2.169  0.1910  0.2559  0.1943
  158MOL   Cl1519169   4.896   5.027   1.994 -0.2803  0.0639  0.4741
  158MOL   Cl1619170   5.076   5.147   2.193  0.0912 -0.6703 -0.2253
  158MOL    C1719171   4.805   5.181   2.205  0.6212  0.5255  0.3141
  158MOL    H1819172   4.838   5.254   2.279  1.0013 -0.1252  0.7887
  158MOL    H1919173   4.806   5.239   2.112 -1.2747 -1.9755 -1.3270
  158MOL    C2019174   4.658   5.137   2.235 -0.1849  0.5860  0.2319
  158MOL   Cl2119175   4.639   5.072   2.398  0.3207 -0.2774  0.0488
  158MOL   Cl2219176   4.614   4.997   2.129 -0.0440  0.2068 -0.3244
  158MOL    C2319177   4.551   5.242   2.191  0.1846  0.1396 -0.1117
  158MOL    H2419178   4.588   5.338   2.226  1.2366 -0.5594  0.7204
  158MOL    H2519179   4.553   5.246   2.082  1.4650 -0.6243 -0.1193
  158MOL    C2619180   4.406   5.231   2.236  0.3771 -0.2337 -0.3686
  158MOL   Cl2719181   4.325   5.369   2.160 -0.0419 -0.0803 -0.1545
  158MOL   Cl2819182   4.399   5.243   2.419  0.2231 -0.1278  0.3412
  158MOL    C2919183   4.329   5.101   2.197 -0.6305  0.2722 -0.0473
  158MOL    H3019184   4.366   5.082   2.097  2.4772  1.1629  0.8727
  158MOL    H3119185   4.369   5.021   2.260 -2.5268 -0.7707 -0.1206
  158MOL    C3219186   4.168   5.092   2.201  0.4302 -0.0900  0.2245
  158MOL   Cl3319187   4.084   5.192   2.082  0.4943  0.3263 -0.0859
  158MOL   Cl3419188   4.113   5.140   2.368  0.0274  0.1120  0.0351
  158MOL    C3519189   4.106   4.948   2.210  0.3014  0.3179  0.0158
  158MOL    H3619190   4.140   4.897   2.300  2.8656 -1.6832 -2.0037
  158MOL    H3719191   3.998   4.953   2.224  0.3088  0.5463 -0.0115
  158MOL    C3819192   4.114   4.847   2.095  0.9822 -0.3647 -0.1419
  158MOL   Cl3919193   4.283   4.818   2.049  0.3425 -0.1890 -0.2046
  158MOL   Cl4019194   4.029   4.917   1.951  0.6313  0.1383 -0.1395
  158MOL    C4119195   4.054   4.708   2.125 -0.2104  0.3197  0.2030
  158MOL    H4219196   4.060   4.653   2.031 -1.5389  2.8562 -1.3970
  158MOL    H4319197   4.133   4.660   2.183  0.6646  2.0408  0.4665
  158MOL    C4419198   3.923   4.679   2.184  0.0999  0.9735 -0.0985
  158MOL   Cl4519199   3.796   4.771   2.105  0.2383  0.2002 -0.1605
  158MOL   Cl4619200   3.908   4.746   2.350 -0.1890  0.1282  0.0854
  158MOL    C4719201   3.868   4.530   2.175 -0.2021  0.3956  0.8064
  158MOL    H4819202   3.779   4.529   2.238  0.2454  1.7702  1.4823
  158MOL    H4919203   3.829   4.520   2.074  0.2863 -2.4965  0.8381
  158MOL    C5019204   3.959   4.405   2.201  0.1185  0.4855 -0.6194
  158MOL   Cl5119205   4.038   4.431   2.364  0.2364  0.0667 -0.1309
  158MOL   Cl5219206   4.075   4.379   2.071  0.1149 -0.0423  0.0180
  158MOL    C5319207   3.890   4.264   2.222  0.4556  0.4724  0.4700
  158MOL    H5419208   3.972   4.193   2.207  0.2321  0.5210 -1.1165
  158MOL    H5519209   3.846   4.247   2.320 -1.2532  1.2132 -0.1444
  158MOL    C5619210   3.788   4.216   2.116 -0.3505 -0.6500  0.1482
  158MOL   Cl5719211   3.839   4.229   1.940 -0.2790  0.0904  0.0556
  158MOL   Cl5819212   3.641   4.307   2.117 -0.1155  0.1048  0.3994
  158MOL    C5919213   3.739   4.068   2.137 -0.1858 -0.8812  0.0067
  158MOL    H6019214   3.683   4.064   2.230 -1.7374 -0.4283 -0.8945
  158MOL    H6119215   3.681   4.053   2.046 -1.4978 -0.7141  0.8057
  158MOL    C6219216   3.847   3.952   2.158  0.5055  0.0790 -0.1922
  158MOL   Cl6319217   3.925   3.959   2.326 -0.4484  0.1152  0.2801
  158MOL   Cl6419218   3.971   3.952   2.030  0.0141  0.2344  0.0673
  158MOL    C6519219   3.787   3.803   2.151  0.9143 -0.0208 -0.0756
  158MOL    H6619220   3.857   3.730   2.112  0.7883  1.0598 -2.3616
  158MOL    H6719221   3.770   3.782   2.257  0.5884 -1.1104 -0.3327
  158MOL    C6819222   3.665   3.767   2.058  0.5062 -0.7335 -0.0847
  158MOL   Cl6919223   3.702   3.827   1.894 -0.0050  0.0068  0.5355
  158MOL   Cl7019224   3.518   3.850   2.119  0.0720 -0.2923  0.2366
  158MOL    C7119225   3.620   3.617   2.047  0.1384 -0.3557 -0.5036
  158MOL    H7219226   3.522   3.628   2.000  1.1186 -1.7016 -2.9655
  158MOL    H7319227   3.682   3.578   1.966  1.9288  1.2083  0.0780
  158MOL    C7419228   3.620   3.511   2.156 -0.3897  0.5649 -0.2115
  158MOL   Cl7519229   3.565   3.572   2.302  0.0209  0.0819 -0.0522
  158MOL   Cl7619230   3.796   3.466   2.181  0.3540 -0.2224  0.1081
  158MOL    C7719231   3.531   3.389   2.111 -0.0103  0.0547  1.0574
  158MOL    H7819232   3.538   3.322   2.197  0.5318 -1.5627 -0.2262
  158MOL    H7919233   3.426   3.417   2.108 -0.3119 -1.2337 -1.6795
  158MOL    C8019234   3.552   3.306   1.986  0.3043 -0.4912  0.4218
  158MOL   Cl8119235   3.736   3.266   1.962 -0.0447 -0.3905  0.2046
  158MOL   Cl8219236   3.491   3.401   1.844  0.4064 -0.2898 -0.2910
  158MOL    C8319237   3.493   3.167   2.007 -0.3334 -0.6792 -0.0138
  158MOL    H8419238   3.535   3.116   1.921  3.0957  1.7751  0.1317
  158MOL    H8519239   3.539   3.139   2.102 -0.3769 -3.1839 -0.7098
  158MOL    C8619240   3.341   3.144   2.025  0.1846 -0.7795  0.6153
  158MOL   Cl8719241   3.264   3.192   1.865 -0.2661 -0.2917  0.4556
  158MOL   Cl8819242   3.262   3.232   2.159  0.8539 -0.2452  0.2479
  158MOL    C8919243   3.317   2.991   2.036  0.0746  0.1331 -0.2974
  158MOL    H9019244   3.211   2.980   2.057 -0.1557 -0.2173 -1.5782
  158MOL    H9119245   3.328   2.950   1.935  3.0185 -1.3753  0.5761
  158MOL    C9219246   3.406   2.901   2.130 -0.2147  0.1129  0.3775
  158MOL   Cl9319247   3.430   2.988   2.289  0.3199  0.4709 -0.0099
  158MOL   Cl9419248   3.557   2.861   2.050  0.1130  0.4201  0.0419
  158MOL    C9519249   3.337   2.761   2.168  0.0325  0.2913 -0.1208
  158MOL    H9619250   3.380   2.723   2.261  0.4791  2.7372  0.7045
  158MOL    H9719251   3.236   2.788   2.198  0.5796  0.3625  1.7554
  158MOL    C9819252   3.324   2.645   2.071 -0.4583  0.1890  0.3757
  158MOL   Cl9919253   3.251   2.696   1.909  0.0441 -0.1421 -0.1372
  158MOL  Cl10019254   3.199   2.540   2.136  0.5394  0.0101  0.0490
  158MOL   C10119255   3.450   2.561   2.029  0.0402  0.1801 -0.7445
  158MOL   H10219256   3.425   2.487   1.954 -0.5588 -0.3117 -0.0683
  158MOL   H10319257   3.527   2.623   1.982  3.3847 -2.4869  0.9258
  158MOL   C10419258   3.534   2.496   2.142 -0.4939 -0.4784  0.6235
  158MOL  Cl10519259   3.607   2.621   2.237 -0.6110  0.3462 -0.3680
  158MOL  Cl10619260   3.665   2.415   2.064 -0.0908  0.6082 -0.1076
  158MOL   C10719261   3.459   2.396   2.239  0.3321 -0.4068  0.3471
  158MOL   H10819262   3.392   2.455   2.300  0.6606 -1.6613  1.9450
  158MOL   H10919263   3.391   2.342   2.172  0.5081 -0.2356  0.0253
  158MOL   C11019264   3.531   2.290   2.326 -0.5615 -0.1915 -0.2468
  158MOL  Cl11119265   3.676   2.351   2.405  0.2855 -0.0353  0.1129
  158MOL  Cl11219266   3.577   2.156   2.217 -0.0350  0.2082  0.3117
  158MOL   C11319267   3.428   2.242   2.438  0.0517  0.0774 -0.2472
  158MOL   H11419268   3.411   2.322   2.510 -1.9902 -0.3551 -0.2146
  158MOL   H11519269   3.326   2.228   2.401  0.9990  0.4200 -3.1067
  158MOL   C11619270   3.460   2.116   2.522  0.6374  0.3124  0.0844
  158MOL  Cl11719271   3.425   1.975   2.422 -0.2267 -0.0568 -0.3307
  158MOL  Cl11819272   3.338   2.131   2.657 -0.0149  0.1531  0.0018
  158MOL   C11919273   3.599   2.115   2.588 -0.4414  0.2597  0.0739
  158MOL   H12019274   3.606   2.215   2.631 -0.4305  0.9787 -1.5752
  158MOL   H12119275   3.608   2.032   2.658 -0.0241 -0.5859 -0.9654
  158MOL   H12219276   3.684   2.095   2.523  0.2607 -2.0010  1.6221
  159MOL     C119277   5.640   3.152   8.545  0.2933 -0.2367 -0.2787
  159MOL    Cl219278   5.676   3.042   8.418 -0.1234  0.2308 -0.0741
  159MOL    Cl319279   5.792   3.204   8.625 -0.2292 -0.0343  0.2262
  159MOL     C419280   5.575   3.286   8.496  0.3403 -0.7978  0.4808
  159MOL     H519281   5.601   3.361   8.571  1.1672 -0.6968  0.0982
  159MOL     H619282   5.624   3.320   8.405 -0.8873 -3.6350 -1.2815
  159MOL     H719283   5.582   3.102   8.622  0.8994 -0.4167  0.0684
  159MOL     C819284   5.426   3.277   8.466 -0.3168 -0.9451 -0.6184
  159MOL    Cl919285   5.379   3.438   8.394  0.0165 -0.0930  0.0156
  159MOL   Cl1019286   5.333   3.260   8.621 -0.0528 -0.2243 -0.2024
  159MOL    C1119287   5.387   3.168   8.367 -0.1816 -0.3084  0.8837
  159MOL    H1219288   5.467   3.161   8.294 -0.6713  0.5910  0.2483
  159MOL    H1319289   5.398   3.073   8.420 -2.1407 -1.0504  0.0330
  159MOL    C1419290   5.246   3.156   8.295  0.4714 -0.1463  0.4427
  159MOL   Cl1519291   5.105   3.167   8.400  0.0720  0.1343 -0.0545
  159MOL   Cl1619292   5.225   2.983   8.242  0.0398 -0.0643  0.5119
  159MOL    C1719293   5.216   3.251   8.182 -0.2138  0.4796  0.4002
  159MOL    H1819294   5.121   3.220   8.138 -1.0683 -1.8863  3.7704
  159MOL    H1919295   5.210   3.350   8.227  1.3209  1.0039 -0.4903
  159MOL    C2019296   5.312   3.262   8.053  0.8744 -0.7642  0.0694
  159MOL   Cl2119297   5.324   3.126   7.953  0.1511  0.6433  0.1311
  159MOL   Cl2219298   5.477   3.294   8.099 -0.1535 -0.3245  0.5006
  159MOL    C2319299   5.288   3.382   7.959  0.6138  0.6900 -0.2240
  159MOL    H2419300   5.323   3.474   8.007 -0.0736  0.5975  0.4581
  159MOL    H2519301   5.363   3.369   7.881 -0.8980 -0.2324 -1.5357
  159MOL    C2619302   5.147   3.415   7.901  0.0087  0.5102  0.1443
  159MOL   Cl2719303   5.051   3.496   8.019  0.4741  0.4198  0.1531
  159MOL   Cl2819304   5.063   3.259   7.871 -0.0947 -0.3938  0.4833
  159MOL    C2919305   5.156   3.491   7.763  0.4625 -0.3317  0.7659
  159MOL    H3019306   5.241   3.558   7.774 -0.6919  1.3679 -0.2877
  159MOL    H3119307   5.182   3.417   7.687  1.8931  2.2028 -1.3074
  159MOL    C3219308   5.048   3.579   7.695 -0.2860  0.1217  0.4557
  159MOL   Cl3319309   5.096   3.611   7.530 -0.1267 -0.0712  0.0836
  159MOL   Cl3419310   5.052   3.734   7.788  0.3278  0.0786 -0.0686
  159MOL    C3519311   4.902   3.527   7.702  0.6163 -0.1302 -0.7651
  159MOL    H3619312   4.891   3.475   7.797  0.4721  0.6020 -0.3802
  159MOL    H3719313   4.832   3.609   7.716 -0.6593 -1.7024  2.4552
  159MOL    C3819314   4.829   3.442   7.597  0.0514  0.7387  0.3825
  159MOL   Cl3919315   4.801   3.542   7.455 -0.2211  0.0807  0.1123
  159MOL   Cl4019316   4.678   3.393   7.667 -0.0924 -0.1571  0.0203
  159MOL    C4119317   4.913   3.324   7.541  0.4673  0.6631  0.2880
  159MOL    H4219318   4.993   3.366   7.480  0.4437 -0.8497 -0.8131
  159MOL    H4319319   4.967   3.270   7.619 -1.0957  0.3228  1.1602
  159MOL    C4419320   4.854   3.212   7.452  1.2067 -0.5866  0.2875
  159MOL   Cl4519321   4.750   3.272   7.317  0.1295  0.5395 -0.2904
  159MOL   Cl4619322   4.751   3.101   7.552 -0.0944 -0.1388  0.3669
  159MOL    C4719323   4.947   3.102   7.396  0.0373 -0.3947  0.0745
  159MOL    H4819324   4.986   3.033   7.470  1.3181 -1.8834 -1.9265
  159MOL    H4919325   4.884   3.034   7.339 -1.2287  2.8775 -2.6273
  159MOL    C5019326   5.073   3.129   7.316 -0.4827 -0.0813  0.1184
  159MOL   Cl5119327   5.194   3.203   7.425 -0.6493  0.0549 -0.0343
  159MOL   Cl5219328   5.038   3.252   7.196 -0.4716  0.3713  0.2098
  159MOL    C5319329   5.140   3.001   7.240  0.8468 -0.4917  0.6565
  159MOL    H5419330   5.071   2.971   7.161  1.1906  3.5470 -1.3000
  159MOL    H5519331   5.224   3.038   7.181  0.3469 -1.0350 -0.4012
  159MOL    C5619332   5.182   2.876   7.323  0.6343  0.9012  0.1277
  159MOL   Cl5719333   5.026   2.790   7.347  0.3240 -0.1081  0.1469
  159MOL   Cl5819334   5.245   2.911   7.489  0.0289  0.2102 -0.0790
  159MOL    C5919335   5.290   2.793   7.247  0.0888  0.6022  0.2021
  159MOL    H6019336   5.355   2.865   7.197  0.1599  1.6029  1.7112
  159MOL    H6119337   5.347   2.750   7.329 -0.9513 -0.1068  0.5709
  159MOL    C6219338   5.261   2.680   7.143  0.0171  0.3743  0.0774
  159MOL   Cl6319339   5.140   2.755   7.036  0.4435  0.3264 -0.1780
  159MOL   Cl6419340   5.188   2.544   7.230  0.2639 -0.4371 -0.1938
  159MOL    C6519341   5.398   2.635   7.069  0.3234  0.3889 -0.4518
  159MOL    H6619342   5.461   2.718   7.038 -0.4321  0.8771 -0.6893
  159MOL    H6719343   5.461   2.590   7.147 -1.5852 -1.8854 -0.1580
  159MOL    C6819344   5.400   2.530   6.949 -0.3437  0.0552 -0.5883
  159MOL   Cl6919345   5.366   2.362   7.008 -0.0278  0.1554  0.2735
  159MOL   Cl7019346   5.565   2.523   6.885 -0.0098  0.0898 -0.1011
  159MOL    C7119347   5.295   2.560   6.840  0.2241 -0.7352  0.4579
  159MOL    H7219348   5.290   2.471   6.777 -1.4780 -0.5401  0.2715
  159MOL    H7319349   5.195   2.556   6.883 -0.4499 -3.0178 -1.2502
  159MOL    C7419350   5.309   2.677   6.730 -0.2315 -0.1935 -0.3607
  159MOL   Cl7519351   5.415   2.619   6.602 -0.5334  0.2347  0.1768
  159MOL   Cl7619352   5.368   2.836   6.791  0.2244  0.4871  0.2583
  159MOL    C7719353   5.172   2.708   6.655  0.3574  0.6165  0.5999
  159MOL    H7819354   5.135   2.606   6.642  3.1632 -0.2611 -1.1234
  159MOL    H7919355   5.108   2.748   6.733 -0.7292 -1.8959  1.0307
  159MOL    C8019356   5.154   2.781   6.519  0.4073 -0.0227  0.1129
  159MOL   Cl8119357   4.979   2.786   6.498 -0.0582 -0.0573  0.4729
  159MOL   Cl8219358   5.202   2.666   6.390  0.0547  0.2834 -0.1611
  159MOL    C8319359   5.222   2.919   6.495  0.2921 -0.6573 -0.1317
  159MOL    H8419360   5.313   2.914   6.556 -0.3337  0.9101  0.9560
  159MOL    H8519361   5.255   2.937   6.393 -1.3001  1.2626 -0.3424
  159MOL    C8619362   5.157   3.050   6.550 -0.3812  0.7463  0.3570
  159MOL   Cl8719363   5.077   3.019   6.709 -0.1824 -0.2679  0.4892
  159MOL   Cl8819364   5.026   3.102   6.435  0.1951 -0.3062  0.0176
  159MOL    C8919365   5.276   3.157   6.547  0.2082 -0.4663  0.0027
  159MOL    H9019366   5.377   3.116   6.549  0.3252 -0.1520  0.5949
  159MOL    H9119367   5.265   3.196   6.446  1.3272  1.9098  0.7587
  159MOL    C9219368   5.280   3.280   6.644  0.7482 -0.3778  0.8459
  159MOL   Cl9319369   5.334   3.213   6.801  0.4064  0.1610  0.3424
  159MOL   Cl9419370   5.119   3.349   6.658  0.1198  0.0290  0.2556
  159MOL    C9519371   5.380   3.388   6.602  0.8511  0.1384  0.0662
  159MOL    H9619372   5.355   3.463   6.677 -0.1949  1.3520 -1.4550
  159MOL    H9719373   5.477   3.342   6.616  0.1961 -0.9879  0.9911
  159MOL    C9819374   5.388   3.449   6.462 -0.2909  0.9776 -0.0062
  159MOL   Cl9919375   5.229   3.502   6.398 -0.3353  0.0392  0.3835
  159MOL  Cl10019376   5.442   3.319   6.345  0.4151 -0.3992  0.3024
  159MOL   C10119377   5.503   3.559   6.445  1.4593 -0.0038 -0.3263
  159MOL   H10219378   5.589   3.499   6.474  1.1462 -0.8556 -1.1253
  159MOL   H10319379   5.511   3.565   6.336  0.8209  0.0680 -0.3763
  159MOL   C10419380   5.493   3.705   6.508  0.0469  0.4401  0.1706
  159MOL  Cl10519381   5.379   3.796   6.424 -0.0486  0.3500  0.5563
  159MOL  Cl10619382   5.651   3.782   6.477 -0.0258  0.1603 -0.4313
  159MOL   C10719383   5.459   3.703   6.660  0.6510  0.3867 -0.6513
  159MOL   H10819384   5.355   3.672   6.674 -0.0180  2.5023 -0.6166
  159MOL   H10919385   5.516   3.624   6.708  0.8869  0.4041 -0.9013
  159MOL   C11019386   5.485   3.826   6.756 -0.0178  0.0380 -0.1908
  159MOL  Cl11119387   5.659   3.827   6.792  0.0024 -0.2276 -0.0908
  159MOL  Cl11219388   5.405   3.784   6.910 -0.0203 -0.0038 -0.0164
  159MOL   C11319389   5.433   3.967   6.704 -0.3103  0.6114  0.0038
  159MOL   H11419390   5.487   3.983   6.611  1.2146 -2.7216  0.2313
  159MOL   H11519391   5.334   3.947   6.663 -1.3071 -0.3632  2.8065
  159MOL   C11619392   5.433   4.087   6.794 -0.8991  0.1726  0.0948
  159MOL  Cl11719393   5.284   4.088   6.885 -0.0503 -0.4033 -0.1532
  159MOL  Cl11819394   5.455   4.232   6.695  0.2368 -0.0655 -0.1495
  159MOL   C11919395   5.548   4.107   6.893  0.5651 -0.1591  0.2995
  159MOL   H12019396   5.641   4.102   6.837  0.0196 -0.7758 -0.5481
  159MOL   H12119397   5.538   4.199   6.952 -1.8934  0.8236 -1.5618
  159MOL   H12219398   5.544   4.026   6.966  1.2210  1.9200  2.7165
  160MOL     C119399   1.872   7.078   8.714  0.1742  0.0581 -0.1656
  160MOL    Cl219400   1.871   7.100   8.896  0.4315  0.1705 -0.1932
  160MOL    Cl319401   1.761   7.215   8.658  0.0517  0.1352  0.0041
  160MOL     C419402   2.022   7.102   8.657  0.1811 -0.1619  0.1130
  160MOL     H519403   2.062   7.194   8.700 -0.1298 -0.1281  0.3290
  160MOL     H619404   2.070   7.018   8.706  0.1356 -0.6372 -0.6536
  160MOL     H719405   1.809   6.994   8.686 -0.0478  0.5090 -1.0236
  160MOL     C819406   2.045   7.083   8.514 -0.2263  0.6531  0.3908
  160MOL    Cl919407   2.018   6.906   8.484 -0.0952  0.3212 -0.0262
  160MOL   Cl1019408   2.226   7.101   8.488 -0.2945 -0.2431  0.0615
  160MOL    C1119409   1.959   7.171   8.412  0.1541  0.3098  0.2161
  160MOL    H1219410   1.863   7.118   8.409  1.1117 -1.5856  2.0246
  160MOL    H1319411   1.946   7.266   8.464 -0.9905 -0.1534  0.8058
  160MOL    C1419412   2.007   7.214   8.271  0.0490 -0.1316  1.2157
  160MOL   Cl1519413   2.130   7.343   8.271  0.0413  0.1787  0.2121
  160MOL   Cl1619414   1.863   7.289   8.185 -0.0037  0.2725 -0.2632
  160MOL    C1719415   2.063   7.093   8.189  0.6145 -0.0215  0.3976
  160MOL    H1819416   2.144   7.043   8.243  0.8120 -2.1847 -1.7738
  160MOL    H1919417   1.983   7.019   8.189  0.1576  0.4250 -1.8352
  160MOL    C2019418   2.123   7.103   8.043 -0.2124  0.2829  0.2465
  160MOL   Cl2119419   2.117   6.937   7.976  0.1909 -0.1378 -0.3365
  160MOL   Cl2219420   2.295   7.153   8.065  0.6734  0.2463  0.4418
  160MOL    C2319421   2.047   7.204   7.948 -0.3539 -0.3111  0.4886
  160MOL    H2419422   1.941   7.181   7.957 -0.4604 -0.7499 -1.5795
  160MOL    H2519423   2.053   7.303   7.991 -0.3163  0.6971 -1.7610
  160MOL    C2619424   2.058   7.192   7.793  0.0239 -0.6144  0.1432
  160MOL   Cl2719425   2.001   7.352   7.740  0.0124 -0.3630  0.2071
  160MOL   Cl2819426   1.956   7.069   7.727 -0.1136  0.0008  0.1537
  160MOL    C2919427   2.208   7.172   7.746  0.0093  0.0727 -0.4886
  160MOL    H3019428   2.262   7.240   7.812 -1.0602  0.4273  0.0323
  160MOL    H3119429   2.227   7.067   7.768 -0.9491 -0.1899 -0.8993
  160MOL    C3219430   2.266   7.190   7.606  0.1220  0.0784 -0.2645
  160MOL   Cl3319431   2.439   7.143   7.609 -0.1099 -0.1210 -0.4101
  160MOL   Cl3419432   2.272   7.362   7.573  0.2269 -0.1921 -0.2079
  160MOL    C3519433   2.186   7.115   7.498  0.0148  0.3259  0.0771
  160MOL    H3619434   2.155   7.021   7.543 -1.8604  0.0148 -1.7929
  160MOL    H3719435   2.088   7.160   7.485 -0.1833 -0.4258 -1.0941
  160MOL    C3819436   2.241   7.075   7.357 -0.4557 -0.0994  0.0694
  160MOL   Cl3919437   2.334   7.204   7.275 -0.0917  0.1756 -0.2995
  160MOL   Cl4019438   2.101   7.043   7.253  0.3491  0.1498 -0.3255
  160MOL    C4119439   2.323   6.941   7.360  0.3844  0.2284 -0.1638
  160MOL    H4219440   2.373   6.929   7.456 -1.4875 -1.1267  0.6654
  160MOL    H4319441   2.258   6.854   7.361 -0.0689  0.5605  2.1860
  160MOL    C4419442   2.434   6.911   7.256  0.2131  0.0236  0.2851
  160MOL   Cl4519443   2.587   6.999   7.274  0.2583 -0.7149 -0.1908
  160MOL   Cl4619444   2.389   6.947   7.087 -0.0304  0.5210  0.0244
  160MOL    C4719445   2.466   6.753   7.245 -0.3601 -0.9183  0.3738
  160MOL    H4819446   2.376   6.704   7.210 -1.8252  1.8107  0.1488
  160MOL    H4919447   2.543   6.745   7.169 -1.8605 -1.8555 -1.0738
  160MOL    C5019448   2.515   6.667   7.364  0.4069 -0.4944 -1.1318
  160MOL   Cl5119449   2.392   6.657   7.489  0.1150 -0.3290  0.1562
  160MOL   Cl5219450   2.667   6.738   7.438  0.1448 -0.2323  0.2772
  160MOL    C5319451   2.556   6.520   7.332  0.4869  0.1651  0.1052
  160MOL    H5419452   2.596   6.480   7.426 -0.8359 -1.4470  0.0194
  160MOL    H5519453   2.459   6.471   7.318  0.2881  1.0853 -1.8734
  160MOL    C5619454   2.645   6.482   7.213  0.9323 -0.1569 -0.1881
  160MOL   Cl5719455   2.577   6.514   7.059 -0.6233  0.0335  0.1031
  160MOL   Cl5819456   2.633   6.307   7.238  0.3777  0.1222 -0.0463
  160MOL    C5919457   2.794   6.539   7.230  0.5283 -0.3209 -0.1059
  160MOL    H6019458   2.788   6.638   7.184 -1.5886  0.1985  1.2168
  160MOL    H6119459   2.806   6.554   7.337  1.1053  2.0524 -0.4766
  160MOL    C6219460   2.914   6.461   7.170  0.3240  0.2789 -0.2680
  160MOL   Cl6319461   2.934   6.308   7.265 -0.2801 -0.0419 -0.1897
  160MOL   Cl6419462   3.050   6.568   7.211  0.3416 -0.0378 -0.0722
  160MOL    C6519463   2.902   6.422   7.022  1.0702  0.4198 -0.1584
  160MOL    H6619464   2.813   6.360   7.013  1.6031 -0.3561 -0.2392
  160MOL    H6719465   2.883   6.518   6.975  1.9057  1.3414  1.3527
  160MOL    C6819466   3.007   6.350   6.939  0.3020  0.8233 -0.6709
  160MOL   Cl6919467   3.056   6.198   7.001 -0.3379 -0.1142 -0.2098
  160MOL   Cl7019468   3.149   6.455   6.932 -0.1527  0.0630 -0.0861
  160MOL    C7119469   2.979   6.330   6.791 -0.5786 -0.0198  0.5459
  160MOL    H7219470   3.012   6.420   6.740 -2.3362  0.9221  1.0365
  160MOL    H7319471   3.046   6.250   6.759 -1.2904 -0.5636  0.4011
  160MOL    C7419472   2.839   6.296   6.741  0.3255  0.5379  0.0142
  160MOL   Cl7519473   2.742   6.440   6.763  0.2020  0.4034 -0.4909
  160MOL   Cl7619474   2.772   6.164   6.831 -0.0059  0.3593  0.0956
  160MOL    C7719475   2.849   6.260   6.587 -0.4943  0.2484 -0.3075
  160MOL    H7819476   2.913   6.334   6.540 -0.1249  0.0552 -0.1129
  160MOL    H7919477   2.901   6.165   6.573 -0.2395  0.7259 -2.7500
  160MOL    C8019478   2.729   6.249   6.497  1.3779  0.6781 -0.3517
  160MOL   Cl8119479   2.808   6.202   6.344  0.5191 -0.0058  0.0956
  160MOL   Cl8219480   2.671   6.418   6.466 -0.3880  0.2068 -0.0297
  160MOL    C8319481   2.616   6.149   6.528  0.2259 -0.4441  0.3997
  160MOL    H8419482   2.656   6.060   6.576 -0.3901 -1.5488 -1.0985
  160MOL    H8519483   2.552   6.199   6.601 -1.1849  0.3946 -1.3721
  160MOL    C8619484   2.521   6.090   6.420  0.3531  0.0334 -1.0657
  160MOL   Cl8719485   2.432   6.216   6.330  0.4150  0.0135 -0.1005
  160MOL   Cl8819486   2.403   5.991   6.521  0.0775  0.1798  0.2443
  160MOL    C8919487   2.598   5.984   6.326 -0.3006 -0.6894  0.1175
  160MOL    H9019488   2.636   6.044   6.243  2.4759 -0.3994  1.5247
  160MOL    H9119489   2.688   5.943   6.371  0.4173 -1.2005 -1.7312
  160MOL    C9219490   2.535   5.870   6.248  0.4788 -0.1733 -0.0469
  160MOL   Cl9319491   2.538   5.737   6.361  0.3824 -0.0980  0.0852
  160MOL   Cl9419492   2.637   5.836   6.108  0.1929 -0.0483  0.4667
  160MOL    C9519493   2.394   5.900   6.185 -0.5755  0.6929 -0.1124
  160MOL    H9619494   2.330   5.946   6.260 -2.1917 -0.5033 -0.7495
  160MOL    H9719495   2.403   5.972   6.103 -0.3853  2.2935  1.2896
  160MOL    C9819496   2.305   5.789   6.124  0.0235  0.2333  0.3527
  160MOL   Cl9919497   2.192   5.876   6.013 -0.1835 -0.4086 -0.3196
  160MOL  Cl10019498   2.219   5.723   6.263 -0.0340 -0.0810 -0.1051
  160MOL   C10119499   2.376   5.675   6.054 -0.7792  0.2153  0.4499
  160MOL   H10219500   2.423   5.721   5.967  0.6139 -0.2687  0.9385
  160MOL   H10319501   2.465   5.638   6.105 -0.6249  0.7322  0.5562
  160MOL   C10419502   2.298   5.542   6.008 -0.3438  0.0507 -0.5269
  160MOL  Cl10519503   2.269   5.445   6.159 -0.3334  0.2885  0.1574
  160MOL  Cl10619504   2.425   5.453   5.917  0.2744  0.4982 -0.0973
  160MOL   C10719505   2.168   5.563   5.924 -0.0950  0.1223 -0.1892
  160MOL   H10819506   2.100   5.612   5.994 -3.4336 -0.8458 -2.6196
  160MOL   H10919507   2.182   5.651   5.861 -0.3900  0.0979 -0.2889
  160MOL   C11019508   2.094   5.454   5.848  0.1987 -0.2261 -0.6533
  160MOL  Cl11119509   2.081   5.303   5.944 -0.0982  0.7886 -0.1654
  160MOL  Cl11219510   2.184   5.429   5.701 -0.0888 -0.5814 -0.0083
  160MOL   C11319511   1.952   5.496   5.796  0.2238  0.7359 -0.0756
  160MOL   H11419512   1.968   5.567   5.715  1.9548 -2.0638 -2.2673
  160MOL   H11519513   1.906   5.410   5.747  0.0074 -0.3315  1.9506
  160MOL   C11619514   1.846   5.569   5.895  0.4515  0.1280  0.5292
  160MOL  Cl11719515   1.867   5.746   5.901  0.0392 -0.3674 -0.2063
  160MOL  Cl11819516   1.847   5.507   6.059 -0.3009 -0.0507 -0.2400
  160MOL   C11919517   1.706   5.551   5.841 -0.0196 -0.6958  0.0737
  160MOL   H12019518   1.634   5.597   5.908  2.0984  2.8873  0.0258
  160MOL   H12119519   1.696   5.605   5.747  2.5150 -1.3721 -0.6253
  160MOL   H12219520   1.680   5.446   5.827  0.7929 -0.8804 -0.1130
  161MOL     C119521   1.229   6.465   1.847  0.0350 -0.1103 -0.0443
  161MOL    Cl219522   1.381   6.463   1.753 -0.6155  0.0105 -0.3458
  161MOL    Cl319523   1.187   6.297   1.884 -0.3415 -0.0599  0.3204
  161MOL     C419524   1.258   6.553   1.965 -1.0634 -0.2201 -0.0774
  161MOL     H519525   1.338   6.503   2.020 -0.3724  0.2501 -0.6518
  161MOL     H619526   1.301   6.645   1.926  2.9120 -1.4446  1.2120
  161MOL     H719527   1.158   6.520   1.785 -0.3608 -0.0357  0.4717
  161MOL     C819528   1.136   6.605   2.053  0.4280  0.0928  0.6010
  161MOL    Cl919529   1.024   6.463   2.084 -0.3300 -0.2925  0.1253
  161MOL   Cl1019530   1.059   6.713   1.937 -0.4001  0.2269  0.2820
  161MOL    C1119531   1.172   6.673   2.195 -0.3882 -0.2587  0.5849
  161MOL    H1219532   1.087   6.677   2.263 -1.6357 -0.7176 -0.9073
  161MOL    H1319533   1.232   6.596   2.243  0.5365 -0.2917 -0.6231
  161MOL    C1419534   1.252   6.807   2.214  0.5081  0.1015 -0.1119
  161MOL   Cl1519535   1.142   6.939   2.167  0.5276  0.2635 -0.6119
  161MOL   Cl1619536   1.382   6.799   2.099 -0.0114  0.1710  0.3359
  161MOL    C1719537   1.304   6.842   2.355 -0.2629 -0.0055  0.2767
  161MOL    H1819538   1.220   6.829   2.423 -0.8564  1.8455 -0.0769
  161MOL    H1919539   1.373   6.761   2.381  0.3571  0.5467  0.3536
  161MOL    C2019540   1.380   6.974   2.397 -0.3898 -1.3195  0.1543
  161MOL   Cl2119541   1.277   7.113   2.401 -0.1708  0.2800  0.0591
  161MOL   Cl2219542   1.505   7.018   2.270  0.2942 -0.2174  0.2134
  161MOL    C2319543   1.468   6.969   2.529 -0.2452 -0.4723  1.3299
  161MOL    H2419544   1.542   6.892   2.509 -2.0362 -1.1495 -3.4020
  161MOL    H2519545   1.522   7.063   2.542 -3.0397  1.2560  0.8761
  161MOL    C2619546   1.407   6.928   2.664 -0.5102 -0.1147  0.6402
  161MOL   Cl2719547   1.526   6.975   2.787 -0.2169  0.0016 -0.0496
  161MOL   Cl2819548   1.399   6.756   2.673 -0.7858 -0.0403 -0.0876
  161MOL    C2919549   1.268   6.995   2.703 -0.0956  0.3517  0.4041
  161MOL    H3019550   1.289   7.097   2.671  0.6718 -0.5422 -2.0366
  161MOL    H3119551   1.201   6.956   2.627 -1.3380  1.0592  1.1244
  161MOL    C3219552   1.197   6.985   2.839 -0.3341  0.3128  0.4707
  161MOL   Cl3319553   1.267   7.112   2.944  0.0209  0.0642 -0.0880
  161MOL   Cl3419554   1.225   6.831   2.924 -0.1120  0.1586 -0.5411
  161MOL    C3519555   1.043   7.027   2.833 -0.5171  0.4162  0.0287
  161MOL    H3619556   1.001   7.020   2.934 -0.5810 -0.3688 -0.0544
  161MOL    H3719557   1.025   7.133   2.813  0.3336  0.6618  0.5145
  161MOL    C3819558   0.939   6.943   2.748  0.1549  0.1907  0.3906
  161MOL   Cl3919559   0.956   6.759   2.757 -0.2691  0.0708 -0.3331
  161MOL   Cl4019560   0.953   6.988   2.577 -0.1012  0.0595  0.1767
  161MOL    C4119561   0.798   6.976   2.802  0.5144 -0.5095 -0.3953
  161MOL    H4219562   0.793   6.944   2.906  0.2992 -0.9004 -0.5234
  161MOL    H4319563   0.793   7.085   2.802  0.9258 -0.4899 -0.1943
  161MOL    C4419564   0.662   6.930   2.734 -0.3353  0.0813 -0.4799
  161MOL   Cl4519565   0.655   6.754   2.714 -0.1126 -0.2513  0.2436
  161MOL   Cl4619566   0.627   6.990   2.574 -0.0812 -0.2769 -0.0157
  161MOL    C4719567   0.528   6.970   2.807  0.3925  0.2991  0.2111
  161MOL    H4819568   0.506   7.075   2.792  1.3160  0.8460  2.4809
  161MOL    H4919569   0.454   6.910   2.754 -0.5811  1.1379  0.6021
  161MOL    C5019570   0.505   6.958   2.958  0.7843 -0.1597  0.4993
  161MOL   Cl5119571   0.611   7.077   3.040  0.1346 -0.1590 -0.4360
  161MOL   Cl5219572   0.571   6.795   3.023 -0.4416  0.0233  0.2323
  161MOL    C5319573   0.353   6.961   3.002 -0.2878 -0.4985 -0.4246
  161MOL    H5419574   0.304   6.875   2.958 -2.6703  0.7684 -0.3094
  161MOL    H5519575   0.360   6.953   3.111 -1.5980 -0.3458 -0.3314
  161MOL    C5619576   0.257   7.074   2.962 -0.0010 -0.0367  0.0580
  161MOL   Cl5719577   0.233   7.081   2.784 -0.5302 -0.5103 -0.4462
  161MOL   Cl5819578   0.345   7.225   3.021  0.3880 -0.0032 -0.2415
  161MOL    C5919579   0.118   7.072   3.026 -0.2317  0.2828 -0.0077
  161MOL    H6019580   0.128   7.086   3.134 -0.6626  0.4390  0.0124
  161MOL    H6119581   0.062   7.152   2.978  1.8481  0.5531 -2.0601
  161MOL    C6219582   0.046   6.940   3.025 -0.3365 -0.1092 -0.4690
  161MOL   Cl6319583   0.108   6.841   3.153 -0.5643 -0.1679 -0.0359
  161MOL   Cl6419584   0.058   6.841   2.874 -0.2082 -0.1261  0.1356
  161MOL    C6519585   9.080   6.963   3.066 -0.4731 -0.0444 -0.0117
  161MOL    H6619586   9.043   6.868   3.104  0.7581 -0.4281  0.2681
  161MOL    H6719587   9.086   7.030   3.151  0.0120  1.5624 -1.2885
  161MOL    C6819588   8.978   6.992   2.959 -0.6866 -0.5487 -0.4620
  161MOL   Cl6919589   8.942   6.844   2.871  0.2994  0.3359 -0.1508
  161MOL   Cl7019590   9.034   7.116   2.837  0.0905 -0.2025 -0.0937
  161MOL    C7119591   8.848   7.049   3.026  0.6247  0.1426 -0.1411
  161MOL    H7219592   8.828   6.975   3.104 -1.0164  1.8519  1.1190
  161MOL    H7319593   8.878   7.138   3.082 -0.0311  1.1180 -1.3316
  161MOL    C7419594   8.714   7.075   2.945 -0.6513 -0.3259  0.0375
  161MOL   Cl7519595   8.606   7.164   3.059  0.0391  0.2105 -0.1915
  161MOL   Cl7619596   8.633   6.920   2.918 -0.0287  0.1988  0.1103
  161MOL    C7719597   8.734   7.149   2.806 -0.4178  0.2638 -0.3159
  161MOL    H7819598   8.817   7.220   2.818 -1.9148  1.6289  2.3121
  161MOL    H7919599   8.789   7.078   2.744 -0.9758  0.2283 -0.7682
  161MOL    C8019600   8.612   7.222   2.743 -0.7630  0.3686  0.5529
  161MOL   Cl8119601   8.462   7.128   2.746 -0.0583 -0.4235  0.2446
  161MOL   Cl8219602   8.650   7.232   2.574 -0.0184 -0.1385  0.1818
  161MOL    C8319603   8.592   7.374   2.793  0.6366 -0.4632  0.6759
  161MOL    H8419604   8.568   7.357   2.898  0.6877 -1.3663  0.5392
  161MOL    H8519605   8.692   7.417   2.801 -0.0434  0.8316  2.8052
  161MOL    C8619606   8.490   7.474   2.734  0.2741  0.3570 -0.2974
  161MOL   Cl8719607   8.332   7.407   2.733  0.3143 -0.1604  0.0077
  161MOL   Cl8819608   8.519   7.522   2.565  0.1441 -0.0130 -0.4419
  161MOL    C8919609   8.483   7.603   2.821 -0.3375 -0.1183 -0.1153
  161MOL    H9019610   8.424   7.671   2.759  0.3070  0.5704  0.0151
  161MOL    H9119611   8.415   7.569   2.899 -1.0580  1.2408 -0.1137
  161MOL    C9219612   8.606   7.691   2.876 -0.4104  0.2496 -0.3877
  161MOL   Cl9319613   8.731   7.695   2.755 -0.2597  0.0859 -0.6224
  161MOL   Cl9419614   8.675   7.603   3.015 -0.1860 -0.0822 -0.1912
  161MOL    C9519615   8.588   7.844   2.899 -0.1768  0.6981  0.0081
  161MOL    H9619616   8.678   7.885   2.945  0.5238 -0.1356 -0.6250
  161MOL    H9719617   8.586   7.890   2.800  0.9698  1.1791  0.2001
  161MOL    C9819618   8.473   7.896   2.995  0.5758  0.1707 -0.1464
  161MOL   Cl9919619   8.451   7.789   3.134  0.3458  0.6735  0.2861
  161MOL  Cl10019620   8.316   7.899   2.908 -0.0322 -0.2016 -0.4467
  161MOL   C10119621   8.506   8.043   3.037  0.4424  0.3488 -0.2362
  161MOL   H10219622   8.598   8.040   3.094  0.3459 -1.1932 -0.1286
  161MOL   H10319623   8.532   8.102   2.949  1.2186  3.3258  1.9226
  161MOL   C10419624   8.408   8.133   3.125  0.1798  0.9013  0.1520
  161MOL  Cl10519625   8.314   8.034   3.239  0.1086 -0.1509 -0.4333
  161MOL  Cl10619626   8.295   8.200   2.999 -0.2092  0.0446  0.0286
  161MOL   C10719627   8.476   8.248   3.196  0.2502  0.7507  0.6923
  161MOL   H10819628   8.500   8.323   3.120  1.2774  0.7198  0.9844
  161MOL   H10919629   8.403   8.293   3.264  0.4725 -0.0622  1.4770
  161MOL   C11019630   8.611   8.223   3.277  0.3188 -0.0083  0.2719
  161MOL  Cl11119631   8.745   8.231   3.155 -0.0855  0.0324  0.1614
  161MOL  Cl11219632   8.635   8.064   3.363 -0.1334  0.1402 -0.2565
  161MOL   C11319633   8.629   8.330   3.389  0.2763  0.1733 -0.0583
  161MOL   H11419634   8.572   8.313   3.480 -0.3862  2.9224  0.0839
  161MOL   H11519635   8.733   8.312   3.417 -0.0039 -0.9369  0.3074
  161MOL   C11619636   8.605   8.485   3.353  0.7798  0.2894  0.5625
  161MOL  Cl11719637   8.655   8.530   3.187 -0.0474  0.3329 -0.2629
  161MOL  Cl11819638   8.711   8.578   3.466 -0.0321  0.3023  0.4065
  161MOL   C11919639   8.465   8.545   3.374 -0.4532  0.1134 -0.1259
  161MOL   H12019640   8.423   8.520   3.472  0.8767  1.9614  0.9432
  161MOL   H12119641   8.462   8.653   3.367  0.1438  0.2587  1.6711
  161MOL   H12219642   8.398   8.497   3.302 -0.7756 -0.8889  0.8107
  162MOL     C119643   5.230   0.108   1.772 -0.2024  0.6467  0.4228
  162MOL    Cl219644   5.392   0.131   1.689  0.2932  0.2259 -0.0347
  162MOL    Cl319645   5.127   0.037   1.652  0.0478  0.0654 -0.2079
  162MOL     C419646   5.227   0.018   1.905  0.4722  0.3902 -0.5773
  162MOL     H519647   5.127   9.160   1.924  1.1080 -0.5369  1.0603
  162MOL     H619648   5.286   9.106   1.905  1.4418  0.9942  0.0287
  162MOL     H719649   5.188   0.207   1.783 -0.6322  0.9181 -3.0317
  162MOL     C819650   5.288   0.095   2.033  0.5958 -0.1741 -0.5343
  162MOL    Cl919651   5.208   0.247   2.036  0.0691 -0.0562 -0.3201
  162MOL   Cl1019652   5.469   0.096   2.007  0.3670  0.2023 -0.2815
  162MOL    C1119653   5.235   0.017   2.159  0.0627  0.2054 -0.1675
  162MOL    H1219654   5.128   0.034   2.163 -0.4872 -2.4328 -2.4154
  162MOL    H1319655   5.252   9.093   2.132 -1.4869  0.5227 -2.4940
  162MOL    C1419656   5.286   0.045   2.306  0.6395  0.3101  0.9023
  162MOL   Cl1519657   5.278   0.218   2.352 -0.2704  0.1956  0.1012
  162MOL   Cl1619658   5.460   0.000   2.322  0.1010  0.2629 -0.3606
  162MOL    C1719659   5.202   9.135   2.407  0.2771  1.3348 -0.2837
  162MOL    H1819660   5.243   9.035   2.421  0.1274  1.4036  0.6772
  162MOL    H1919661   5.226   9.177   2.505  2.0255 -0.1191 -0.0852
  162MOL    C2019662   5.042   9.120   2.408 -0.5025  0.2067 -1.2289
  162MOL   Cl2119663   5.011   9.007   2.274  0.0346 -0.0844 -0.0286
  162MOL   Cl2219664   4.963   0.094   2.363  0.2874  0.2535 -0.2902
  162MOL    C2319665   4.987   9.061   2.537 -0.2471 -0.4951 -0.2428
  162MOL    H2419666   4.996   9.148   2.603 -0.2363 -0.6434 -0.0513
  162MOL    H2519667   4.880   9.062   2.521 -0.1508 -1.9052 -1.0750
  162MOL    C2619668   5.036   8.931   2.608 -0.1133 -0.9795  0.4294
  162MOL   Cl2719669   5.184   8.978   2.695 -0.2825 -0.0182  0.1392
  162MOL   Cl2819670   5.065   8.806   2.487  0.3283  0.0767 -0.0749
  162MOL    C2919671   4.919   8.875   2.697  0.7702  0.0230  0.0649
  162MOL    H3019672   4.884   8.954   2.763 -0.5711 -0.8764  0.4574
  162MOL    H3119673   4.836   8.845   2.633  0.6783 -1.6391  0.9344
  162MOL    C3219674   4.940   8.746   2.787 -0.9020  0.0279  0.2239
  162MOL   Cl3319675   4.916   8.597   2.699 -0.2562 -0.1685 -0.3425
  162MOL   Cl3419676   4.796   8.753   2.894 -0.0096 -0.0704  0.0523
  162MOL    C3519677   5.069   8.751   2.877  0.1753  0.0837  0.1931
  162MOL    H3619678   5.159   8.748   2.815  2.2407 -0.9125  3.1614
  162MOL    H3719679   5.064   8.849   2.926 -0.7236  0.7274 -1.1368
  162MOL    C3819680   5.115   8.646   2.987 -0.2393 -0.6407 -0.0129
  162MOL   Cl3919681   5.260   8.711   3.076  0.0192 -0.3511  0.7475
  162MOL   Cl4019682   5.168   8.495   2.916  0.1907 -0.0056 -0.1575
  162MOL    C4119683   5.009   8.601   3.092 -0.7344  0.1607 -0.0337
  162MOL    H4219684   4.960   8.695   3.116 -2.5934 -1.0162  0.8752
  162MOL    H4319685   4.932   8.540   3.045  1.3617 -0.3029 -3.0559
  162MOL    C4419686   5.036   8.533   3.231 -0.0150  0.1309  0.6295
  162MOL   Cl4519687   5.140   8.632   3.339 -0.3155  0.0425 -0.4945
  162MOL   Cl4619688   5.122   8.380   3.207  0.4740  0.2495  0.2265
  162MOL    C4719689   4.910   8.501   3.314 -0.2875 -0.2481 -1.0688
  162MOL    H4819690   4.851   8.418   3.275 -3.4950  0.6483  1.6878
  162MOL    H4919691   4.944   8.480   3.416 -1.3619  0.7370 -0.4958
  162MOL    C5019692   4.795   8.602   3.334  0.6139  0.3915  0.5682
  162MOL   Cl5119693   4.692   8.608   3.190 -0.2886 -0.0076 -0.2542
  162MOL   Cl5219694   4.846   8.766   3.359 -0.1494  0.2342 -0.0936
  162MOL    C5319695   4.694   8.547   3.435 -0.1365 -0.3674  0.2871
  162MOL    H5419696   4.597   8.595   3.429 -0.1539 -0.6176 -1.9363
  162MOL    H5519697   4.668   8.446   3.403 -3.8215 -0.1232  2.2708
  162MOL    C5619698   4.729   8.513   3.587 -0.3175  0.5763 -0.1805
  162MOL   Cl5719699   4.832   8.643   3.648 -0.1307 -0.0751  0.3826
  162MOL   Cl5819700   4.820   8.363   3.596  0.1008 -0.0601 -0.0821
  162MOL    C5919701   4.609   8.506   3.687 -0.0738  0.2584  0.1915
  162MOL    H6019702   4.662   8.479   3.779  1.2404  0.5678 -0.4691
  162MOL    H6119703   4.577   8.610   3.688  0.1276  0.3178  1.3086
  162MOL    C6219704   4.482   8.415   3.662 -0.1838  0.2759  1.0987
  162MOL   Cl6319705   4.530   8.241   3.674  0.1800  0.3234  0.4394
  162MOL   Cl6419706   4.412   8.438   3.492 -0.2014 -0.3350  0.3592
  162MOL    C6519707   4.366   8.434   3.751 -0.1374 -0.1096 -0.0441
  162MOL    H6619708   4.284   8.391   3.695 -0.6450 -2.6397  2.5214
  162MOL    H6719709   4.381   8.365   3.834  0.0304 -0.9254 -0.7437
  162MOL    C6819710   4.327   8.573   3.809 -0.3492  0.4697 -0.6394
  162MOL   Cl6919711   4.458   8.619   3.923 -0.2440 -0.3952  0.1737
  162MOL   Cl7019712   4.175   8.539   3.886  0.1275  0.4607  0.0050
  162MOL    C7119713   4.303   8.680   3.702 -0.4755 -0.2979 -0.0783
  162MOL    H7219714   4.394   8.682   3.643 -0.3978 -2.1755 -0.0801
  162MOL    H7319715   4.233   8.638   3.629  1.4958 -2.1085 -0.9898
  162MOL    C7419716   4.264   8.830   3.732 -0.5587 -0.4093 -0.3214
  162MOL   Cl7519717   4.304   8.905   3.575  0.4402  0.0966  0.2253
  162MOL   Cl7619718   4.368   8.908   3.848 -0.1965 -0.0113 -0.0295
  162MOL    C7719719   4.113   8.851   3.772 -0.2226 -0.1727 -0.2813
  162MOL    H7819720   4.058   8.774   3.718  1.4632 -0.7820 -1.1552
  162MOL    H7919721   4.119   8.827   3.878  0.6757 -0.5951 -0.4259
  162MOL    C8019722   4.040   8.990   3.741  0.0341 -0.1945 -0.3386
  162MOL   Cl8119723   3.882   8.985   3.830 -0.2699 -0.1815  0.4472
  162MOL   Cl8219724   4.003   8.994   3.564 -0.4107 -0.0894 -0.1073
  162MOL    C8319725   4.120   9.117   3.779 -0.1376  0.0809  0.6551
  162MOL    H8419726   4.216   9.114   3.729 -1.1296  2.0728 -1.4765
  162MOL    H8519727   4.063   0.015   3.730 -0.8736 -1.8073 -1.6033
  162MOL    C8619728   4.122   9.169   3.929  0.2790 -0.6057 -0.0790
  162MOL   Cl8719729   4.119   9.036   4.048  0.1731  0.1187  0.0945
  162MOL   Cl8819730   3.982   0.091   3.961 -0.1533 -0.1857 -0.1087
  162MOL    C8919731   4.253   0.067   3.956 -0.3664 -0.1323 -0.5228
  162MOL    H9019732   4.277   0.076   4.062 -1.6022 -2.3576 -0.0165
  162MOL    H9119733   4.326   9.178   3.915 -1.5594 -1.3012 -0.7112
  162MOL    C9219734   4.270   0.216   3.902 -0.5150 -0.0151  0.7587
  162MOL   Cl9319735   4.214   0.241   3.731 -0.1133  0.0476  0.0284
  162MOL   Cl9419736   4.446   0.238   3.896  0.2320  0.4449 -0.2290
  162MOL    C9519737   4.202   0.323   3.987 -0.2709  0.1101  0.1515
  162MOL    H9619738   4.096   0.308   4.008  0.1698  0.3360  2.7624
  162MOL    H9719739   4.234   0.304   4.090  0.1903  1.2212  0.2174
  162MOL    C9819740   4.206   0.484   3.953  0.7829  0.9557  0.0400
  162MOL   Cl9919741   4.151   0.572   4.101  0.1538 -0.4025  0.1104
  162MOL  Cl10019742   4.082   0.514   3.834 -0.0178  0.3745 -0.3975
  162MOL   C10119743   4.340   0.542   3.893  0.5590  0.1886 -0.2511
  162MOL   H10219744   4.375   0.468   3.821  0.1663  0.6323 -0.9053
  162MOL   H10319745   4.310   0.635   3.845  0.2159 -0.0511 -0.4995
  162MOL   C10419746   4.450   0.579   3.997 -0.8085  0.5284 -0.1414
  162MOL  Cl10519747   4.456   0.455   4.134  0.4170 -0.3678  0.1773
  162MOL  Cl10619748   4.412   0.749   4.061 -0.2434 -0.0577 -0.3094
  162MOL   C10719749   4.589   0.589   3.924  0.0681  0.1433 -0.2380
  162MOL   H10819750   4.605   0.507   3.854  2.2661  0.1031  0.2948
  162MOL   H10919751   4.590   0.675   3.857  2.6804  0.5099  0.2345
  162MOL   C11019752   4.723   0.579   4.003 -0.0600 -0.1971 -0.6434
  162MOL  Cl11119753   4.849   0.644   3.891 -0.1624 -0.0511 -0.3645
  162MOL  Cl11219754   4.750   0.407   4.047 -0.4268  0.3359 -0.1586
  162MOL   C11319755   4.726   0.676   4.129 -0.4855 -0.2643 -0.0450
  162MOL   H11419756   4.684   0.773   4.104  0.1780 -0.3114 -1.4088
  162MOL   H11519757   4.649   0.636   4.195 -2.5789  1.1370 -1.5768
  162MOL   C11619758   4.861   0.693   4.216 -0.1652 -0.1914  0.0395
  162MOL  Cl11719759   4.816   0.799   4.359 -0.5092 -0.4646 -0.0115
  162MOL  Cl11819760   4.977   0.788   4.123 -0.2310 -0.4252  0.3856
  162MOL   C11919761   4.936   0.567   4.257 -0.5698 -0.6725  0.8960
  162MOL   H12019762   4.976   0.530   4.162  0.0011  0.5882  0.6430
  162MOL   H12119763   5.024   0.580   4.319  0.7560 -2.7071 -0.4864
  162MOL   H12219764   4.879   0.481   4.293 -1.9341  0.0936  0.5737
  163MOL     C119765   5.396   3.943   7.801 -0.7163 -0.0375 -0.0578
  163MOL    Cl219766   5.533   3.982   7.692  0.1145 -0.4327 -0.3689
  163MOL    Cl319767   5.385   3.769   7.810  0.4029  0.1641  0.1555
  163MOL     C419768   5.417   4.015   7.940 -0.6451 -0.1004  0.8304
  163MOL     H519769   5.497   3.966   7.994  0.9740  0.2519 -1.1673
  163MOL     H619770   5.455   4.114   7.915 -0.0324 -0.5178  0.0686
  163MOL     H719771   5.313   3.993   7.752  0.3860  2.6071  0.6684
  163MOL     C819772   5.294   4.050   8.033 -0.4851 -0.9113 -0.4036
  163MOL    Cl919773   5.223   3.896   8.105  0.3564  0.2061 -0.2212
  163MOL   Cl1019774   5.158   4.123   7.931  0.2148 -0.0876  0.0092
  163MOL    C1119775   5.331   4.155   8.139  0.0023  0.0730 -0.2586
  163MOL    H1219776   5.351   4.242   8.076  0.7040 -0.5826 -0.9500
  163MOL    H1319777   5.241   4.170   8.198 -0.6814  1.3913 -1.5931
  163MOL    C1419778   5.452   4.140   8.245 -0.4363  0.8363  0.5258
  163MOL   Cl1519779   5.607   4.123   8.155 -0.0100 -0.1231  0.0478
  163MOL   Cl1619780   5.434   3.992   8.337 -0.0207 -0.1983  0.0601
  163MOL    C1719781   5.472   4.269   8.330  0.0169 -0.0648  0.4732
  163MOL    H1819782   5.553   4.257   8.401  0.2065  0.6280  0.3721
  163MOL    H1919783   5.512   4.351   8.270 -0.3764 -0.0498  0.2285
  163MOL    C2019784   5.358   4.334   8.408  0.4342  0.4832 -0.0550
  163MOL   Cl2119785   5.261   4.433   8.298  0.3278 -0.0483  0.2936
  163MOL   Cl2219786   5.441   4.443   8.524  0.0088  0.1307  0.2961
  163MOL    C2319787   5.274   4.235   8.496 -0.8871  0.4762 -0.1082
  163MOL    H2419788   5.241   4.161   8.423  1.5419  1.1402 -1.9167
  163MOL    H2519789   5.340   4.180   8.563 -2.0316 -0.4113  0.3119
  163MOL    C2619790   5.145   4.282   8.569 -0.3898 -0.3738  0.4416
  163MOL   Cl2719791   5.080   4.143   8.652  0.3681 -0.2401  0.1592
  163MOL   Cl2819792   5.025   4.314   8.441 -0.2197  0.2892  0.1411
  163MOL    C2919793   5.165   4.407   8.663  0.2651  0.6305 -1.2895
  163MOL    H3019794   5.211   4.491   8.610  0.9874  2.5434  2.2080
  163MOL    H3119795   5.060   4.435   8.673 -0.0810 -1.4742  1.4100
  163MOL    C3219796   5.218   4.401   8.808  0.1032 -0.0659  0.3383
  163MOL   Cl3319797   5.275   4.563   8.845 -0.1743 -0.1305  0.0270
  163MOL   Cl3419798   5.359   4.295   8.810 -0.0649  0.2208  0.1491
  163MOL    C3519799   5.119   4.359   8.913  0.1989 -0.1674  0.5066
  163MOL    H3619800   5.024   4.399   8.877 -0.0829 -0.8736  0.4540
  163MOL    H3719801   5.098   4.253   8.899  0.4956 -0.1879  0.2321
  163MOL    C3819802   5.134   4.373   9.069  0.3840  0.3992 -0.0254
  163MOL   Cl3919803   4.977   4.316   9.120 -0.1068 -0.4086 -0.0572
  163MOL   Cl4019804   5.149   4.542   9.118 -0.0828  0.1089 -0.2383
  163MOL    C4119805   5.252   4.281   9.132 -0.8045 -0.3172 -0.3720
  163MOL    H4219806   5.251   4.190   9.072 -2.9873 -0.5982  0.0492
  163MOL    H4319807   5.343   4.336   9.112 -1.6368  1.0711 -0.4110
  163MOL    C4419808   5.246   4.234   0.105 -0.2220  0.1114  0.5155
  163MOL   Cl4519809   5.113   4.123   0.147 -0.1640 -0.4086 -0.1432
  163MOL   Cl4619810   5.226   4.381   0.208  0.0911  0.0075  0.0834
  163MOL    C4719811   5.384   4.168   0.157  1.2800 -0.6009 -0.1120
  163MOL    H4819812   5.465   4.233   0.123  1.2360 -0.5665 -0.1490
  163MOL    H4919813   5.389   4.183   0.265  1.8510  0.6476 -0.2992
  163MOL    C5019814   5.431   4.022   0.121  0.3838 -1.5451 -0.0049
  163MOL   Cl5119815   5.611   4.014   0.148  0.2836  0.1502  0.5005
  163MOL   Cl5219816   5.393   3.979   9.135 -0.1518 -0.1786  0.3820
  163MOL    C5319817   5.367   3.928   0.227 -0.3141 -0.2377 -0.0963
  163MOL    H5419818   5.424   3.936   0.320  1.0037  2.8750 -1.0982
  163MOL    H5519819   5.266   3.963   0.250 -0.7084 -0.8675 -0.8625
  163MOL    C5619820   5.356   3.777   0.192 -0.9614  0.7646 -0.8950
  163MOL   Cl5719821   5.353   3.694   0.354 -0.2092  0.0955  0.1063
  163MOL   Cl5819822   5.508   3.708   0.122  0.2384 -0.3406  0.4150
  163MOL    C5919823   5.233   3.738   0.104  0.8875  0.0034 -0.6073
  163MOL    H6019824   5.162   3.814   0.138  0.0121 -1.0633 -0.0183
  163MOL    H6119825   5.262   3.772   0.005 -1.1711 -0.8276 -1.5324
  163MOL    C6219826   5.170   3.596   0.078  0.2911 -0.6166 -0.0846
  163MOL   Cl6319827   5.120   3.521   0.230  0.3278  0.3378 -0.0498
  163MOL   Cl6419828   5.297   3.502   9.170  0.0488 -0.0862  0.0678
  163MOL    C6519829   5.064   3.606   9.149  0.7518  0.3062 -0.3391
  163MOL    H6619830   5.116   3.623   9.055 -0.0634  0.2875 -0.7996
  163MOL    H6719831   5.019   3.507   9.141 -0.6843  0.8762  0.4927
  163MOL    C6819832   4.952   3.712   9.137  0.2698 -0.1397  0.1575
  163MOL   Cl6919833   5.020   3.866   9.089 -0.0584  0.1784 -0.2345
  163MOL   Cl7019834   4.867   3.709   0.119  0.0481  0.2025  0.0629
  163MOL    C7119835   4.845   3.685   9.025 -0.0245  0.4486  0.5704
  163MOL    H7219836   4.889   3.704   8.927 -1.7981 -1.4842 -0.6371
  163MOL    H7319837   4.829   3.577   9.031 -1.5477  0.4048 -3.1487
  163MOL    C7419838   4.708   3.766   9.032  0.5064  0.7434 -0.5747
  163MOL   Cl7519839   4.601   3.683   9.142 -0.0462 -0.3594 -0.1931
  163MOL   Cl7619840   4.652   3.744   8.863 -0.6801 -0.0459 -0.1062
  163MOL    C7719841   4.713   3.919   9.064 -0.1303 -0.1445  0.1570
  163MOL    H7819842   4.757   3.932   9.163  1.8390  1.3415 -0.8803
  163MOL    H7919843   4.795   3.963   9.008 -0.8225  0.0625 -0.6970
  163MOL    C8019844   4.593   4.018   9.056  0.1708 -0.1408  0.3211
  163MOL   Cl8119845   4.551   4.065   8.889  0.0052  0.2453  0.1934
  163MOL   Cl8219846   4.660   4.166   9.134  0.3858 -0.2157 -0.2251
  163MOL    C8319847   4.469   3.974   9.145  0.1497 -1.1668 -0.0392
  163MOL    H8419848   4.397   3.930   9.075  1.0109  0.0284 -1.7131
  163MOL    H8519849   4.503   3.900   0.037  0.7922 -2.2254 -1.3830
  163MOL    C8619850   4.374   4.081   0.038 -0.0037  0.1218  0.1919
  163MOL   Cl8719851   4.342   4.211   9.104  0.2496  0.0731 -0.1480
  163MOL   Cl8819852   4.464   4.156   0.180  0.4241  0.4820  0.1012
  163MOL    C8919853   4.237   4.035   0.095  0.4284  0.5001  0.1901
  163MOL    H9019854   4.188   4.126   0.128  0.6657  1.0121 -0.8515
  163MOL    H9119855   4.171   4.017   0.010 -0.6226 -0.9752  1.2819
  163MOL    C9219856   4.232   3.903   0.181 -0.0905  0.2970  1.1097
  163MOL   Cl9319857   4.247   3.779   0.045 -0.4389 -0.1976 -0.0838
  163MOL   Cl9419858   4.063   3.905   0.243 -0.3464 -0.4870  0.2429
  163MOL    C9519859   4.333   3.892   0.295 -0.1479 -0.7064  0.0419
  163MOL    H9619860   4.430   3.888   0.246 -1.1053 -0.8151 -1.9092
  163MOL    H9719861   4.336   3.987   0.348 -0.5563  0.2711 -1.6361
  163MOL    C9819862   4.319   3.787   0.406 -0.4595 -0.1991  0.6820
  163MOL   Cl9919863   4.235   3.636   0.348  0.3760 -0.0236  0.1402
  163MOL  Cl10019864   4.215   3.850   0.536 -0.1123  0.1483 -0.0714
  163MOL   C10119865   4.455   3.736   0.456 -0.5520  0.2174 -0.3927
  163MOL   H10219866   4.437   3.648   0.518  0.2892 -1.0913 -1.9863
  163MOL   H10319867   4.506   3.696   0.369  0.4016  0.6134 -0.0269
  163MOL   C10419868   4.559   3.819   0.527 -0.3406  0.4230 -0.1784
  163MOL  Cl10519869   4.491   3.884   0.670  0.1005 -0.0688 -0.2205
  163MOL  Cl10619870   4.611   3.949   0.414 -0.0570 -0.0155 -0.1950
  163MOL   C10719871   4.691   3.730   0.559  0.2730  0.1925 -0.2269
  163MOL   H10819872   4.641   3.652   0.616 -2.1984  0.5581 -1.8095
  163MOL   H10919873   4.727   3.699   0.461  0.6749 -0.1932  0.0435
  163MOL   C11019874   4.801   3.768   0.664  0.3103 -0.6725 -0.5498
  163MOL  Cl11119875   4.920   3.632   0.659 -0.1633 -0.3615  0.3540
  163MOL  Cl11219876   4.741   3.772   0.832  0.3092  0.1489 -0.3494
  163MOL   C11319877   4.867   3.909   0.639 -0.0537 -0.2114 -0.0239
  163MOL   H11419878   4.778   3.970   0.628 -0.8982 -1.3182  0.5955
  163MOL   H11519879   4.916   3.941   0.731 -0.3944  0.5462 -0.1064
  163MOL   C11619880   4.974   3.946   0.531 -0.1354  0.6913  0.3420
  163MOL  Cl11719881   4.996   4.116   0.512  0.1997  0.3624  0.2124
  163MOL  Cl11819882   4.922   3.872   0.380  0.1294 -0.3308  0.1645
  163MOL   C11919883   5.112   3.890   0.569 -0.2641 -0.9982 -0.1791
  163MOL   H12019884   5.154   3.924   0.664  0.5906  1.9410 -1.5584
  163MOL   H12119885   5.122   3.782   0.560  2.2963 -0.6656 -1.9856
  163MOL   H12219886   5.180   3.940   0.500 -0.1326  0.8488  1.2554
  164MOL     C119887   8.303   2.993   1.734 -0.4440 -0.6242 -0.0731
  164MOL    Cl219888   8.194   2.873   1.816 -0.0861  0.0777  0.4633
  164MOL    Cl319889   8.311   2.952   1.568 -0.1821 -0.1519 -0.0524
  164MOL     C419890   8.264   3.139   1.752 -0.3110 -0.6754  0.0267
  164MOL     H519891   8.328   3.205   1.695  0.5457  0.6356  2.4112
  164MOL     H619892   8.171   3.153   1.696 -1.0448  0.3836  1.4638
  164MOL     H719893   8.409   2.982   1.759 -0.4022  1.3751  0.7078
  164MOL     C819894   8.249   3.201   1.895  0.2259 -0.3202 -0.1910
  164MOL    Cl919895   8.233   3.377   1.884  0.3591  0.1985  0.2818
  164MOL   Cl1019896   8.408   3.160   1.964 -0.3365  0.0736 -0.2663
  164MOL    C1119897   8.137   3.137   1.987 -0.5992 -0.6577 -0.2613
  164MOL    H1219898   8.153   3.029   1.992 -0.7941 -0.6402  0.7955
  164MOL    H1319899   8.157   3.172   2.088 -0.5490 -0.4669 -0.3369
  164MOL    C1419900   7.992   3.157   1.958  0.1958  0.4889  0.3912
  164MOL   Cl1519901   7.919   3.055   2.088  0.4262 -0.4682  0.0429
  164MOL   Cl1619902   7.948   3.100   1.794  0.0795  0.1290  0.1386
  164MOL    C1719903   7.948   3.304   1.963 -0.3096  0.7363  0.2388
  164MOL    H1819904   8.002   3.350   2.046  1.5955 -1.1885  0.0853
  164MOL    H1919905   7.972   3.363   1.875 -0.4505  1.9602  1.0150
  164MOL    C2019906   7.787   3.330   1.979  0.5453 -0.8782 -0.2406
  164MOL   Cl2119907   7.767   3.509   1.957  0.3592 -0.0795 -0.2836
  164MOL   Cl2219908   7.728   3.299   2.144  0.0600  0.0241  0.0307
  164MOL    C2319909   7.688   3.266   1.871 -0.2360  0.0641  0.2209
  164MOL    H2419910   7.705   3.326   1.781  0.3408 -1.9237 -1.0338
  164MOL    H2519911   7.704   3.162   1.843 -0.2639  0.7125 -2.3886
  164MOL    C2619912   7.533   3.261   1.895 -0.2094  0.8776 -0.3193
  164MOL   Cl2719913   7.505   3.135   2.021  0.2335 -0.1767 -0.0435
  164MOL   Cl2819914   7.447   3.190   1.747  0.1520  0.2858 -0.1265
  164MOL    C2919915   7.472   3.401   1.928 -0.0301 -0.4548  0.4725
  164MOL    H3019916   7.480   3.425   2.034 -2.8844  1.7142  0.2720
  164MOL    H3119917   7.526   3.486   1.886  0.9805  0.4722  3.5244
  164MOL    C3219918   7.324   3.437   1.910 -0.4479  0.0522 -0.0178
  164MOL   Cl3319919   7.307   3.583   2.002  0.1134 -0.0064  0.1684
  164MOL   Cl3419920   7.223   3.321   2.005  0.0986 -0.2280 -0.0795
  164MOL    C3519921   7.262   3.454   1.763 -0.3070 -0.1421 -0.0986
  164MOL    H3619922   7.263   3.357   1.713  0.2934  0.7293 -1.8042
  164MOL    H3719923   7.157   3.470   1.788 -0.4655  0.3146 -1.0628
  164MOL    C3819924   7.317   3.574   1.666  0.1319  0.3640 -0.4134
  164MOL   Cl3919925   7.494   3.570   1.642 -0.2884 -0.0477  0.1596
  164MOL   Cl4019926   7.278   3.743   1.719  0.1330 -0.2445  0.0198
  164MOL    C4119927   7.260   3.559   1.525  0.3071 -0.9790 -0.8982
  164MOL    H4219928   7.301   3.642   1.467 -0.8732 -0.7936 -1.4783
  164MOL    H4319929   7.307   3.476   1.473  2.7263 -1.0676  1.3466
  164MOL    C4419930   7.114   3.551   1.478 -0.2930 -0.2554  0.7041
  164MOL   Cl4519931   7.021   3.693   1.544 -0.2127  0.4176 -0.1496
  164MOL   Cl4619932   7.051   3.398   1.543  0.2992  0.5633 -0.1107
  164MOL    C4719933   7.112   3.558   1.320  0.6277  0.3622  0.8393
  164MOL    H4819934   7.139   3.660   1.296  2.2199 -0.3695 -0.5182
  164MOL    H4919935   7.201   3.507   1.283  0.4158  1.1464 -0.7866
  164MOL    C5019936   6.988   3.511   1.232 -0.1535  0.0054 -0.5521
  164MOL   Cl5119937   6.991   3.336   1.221 -0.1882 -0.1563  0.0708
  164MOL   Cl5219938   7.017   3.572   1.071 -0.2789  0.0028 -0.0183
  164MOL    C5319939   6.850   3.565   1.290  0.2765 -0.6252 -0.6174
  164MOL    H5419940   6.830   3.522   1.388  1.8679  1.0875  0.4947
  164MOL    H5519941   6.859   3.671   1.315  1.1354 -1.2418  1.7774
  164MOL    C5619942   6.715   3.556   1.211  0.2624 -0.7847 -0.6386
  164MOL   Cl5719943   6.683   3.391   1.152  0.0964  0.0298  0.0351
  164MOL   Cl5819944   6.718   3.648   1.066  0.3981  0.0661 -0.1122
  164MOL    C5919945   6.593   3.614   1.282 -0.3581 -0.1370 -0.4824
  164MOL    H6019946   6.583   3.720   1.260 -0.6447 -0.1170 -0.2542
  164MOL    H6119947   6.513   3.559   1.232 -1.8212  1.1931  0.3392
  164MOL    C6219948   6.559   3.593   1.429 -0.6473  0.4241  0.7229
  164MOL   Cl6319949   6.669   3.679   1.535  0.1519  0.0925  0.0997
  164MOL   Cl6419950   6.593   3.420   1.483 -0.1499  0.1868  0.0249
  164MOL    C6519951   6.410   3.606   1.468  0.0007 -0.3947  0.5228
  164MOL    H6619952   6.353   3.546   1.396 -1.1048  1.1260  0.1188
  164MOL    H6719953   6.405   3.567   1.570  0.5893 -0.2062  0.6256
  164MOL    C6819954   6.338   3.741   1.452 -0.5574  0.5443 -0.3988
  164MOL   Cl6919955   6.350   3.792   1.276 -0.1756 -0.4886 -0.1397
  164MOL   Cl7019956   6.413   3.861   1.563 -0.2973  0.3394  0.3734
  164MOL    C7119957   6.195   3.752   1.504 -0.6297 -0.1869 -0.1380
  164MOL    H7219958   6.197   3.759   1.613  4.3242 -0.9844 -0.1045
  164MOL    H7319959   6.164   3.848   1.464  1.0911  0.5652  0.3231
  164MOL    C7419960   6.084   3.663   1.446  0.1561  0.1342  0.0501
  164MOL   Cl7519961   6.110   3.492   1.490 -0.1814 -0.0504 -0.3781
  164MOL   Cl7619962   6.076   3.649   1.273  0.0338 -0.3364  0.0124
  164MOL    C7719963   5.942   3.709   1.492 -0.9255 -1.1079  0.6917
  164MOL    H7819964   5.939   3.810   1.451  1.2330 -0.7880  1.2922
  164MOL    H7919965   5.870   3.651   1.433 -0.9302 -0.1849 -0.2159
  164MOL    C8019966   5.907   3.719   1.640 -0.6454 -0.8332 -0.0129
  164MOL   Cl8119967   5.942   3.882   1.704  0.0269 -0.2380  0.1753
  164MOL   Cl8219968   5.989   3.612   1.763 -0.3459 -0.0854  0.2315
  164MOL    C8319969   5.752   3.686   1.652  0.0082  0.0906  0.5932
  164MOL    H8419970   5.731   3.598   1.592 -0.6420 -0.2401  1.2992
  164MOL    H8519971   5.736   3.667   1.758  1.9611 -0.7535  0.7523
  164MOL    C8619972   5.642   3.793   1.620 -0.1658 -0.5036  0.1036
  164MOL   Cl8719973   5.492   3.688   1.605  0.1778  0.0666 -0.5749
  164MOL   Cl8819974   5.670   3.875   1.455 -0.5310  0.1192 -0.2188
  164MOL    C8919975   5.616   3.917   1.723  0.4125  0.5822  0.4990
  164MOL    H9019976   5.641   3.890   1.825 -2.5675  2.1666  1.7174
  164MOL    H9119977   5.691   3.990   1.692  0.2008  0.9017  0.7329
  164MOL    C9219978   5.479   4.000   1.741  0.7665 -0.0374  0.0555
  164MOL   Cl9319979   5.505   4.135   1.848  0.0104  0.1976  0.1012
  164MOL   Cl9419980   5.338   3.910   1.804 -0.2710  0.0982  0.4502
  164MOL    C9519981   5.434   4.061   1.609 -0.3615  0.1385  0.6174
  164MOL    H9619982   5.528   4.094   1.565  0.7184 -1.1140  1.9376
  164MOL    H9719983   5.402   3.980   1.544 -1.9015 -0.2356  1.8230
  164MOL    C9819984   5.336   4.183   1.592 -0.3021  0.0961  0.3513
  164MOL   Cl9919985   5.317   4.197   1.413 -0.0866 -0.3127 -0.6367
  164MOL  Cl10019986   5.412   4.341   1.640  0.4828 -0.3213  0.0721
  164MOL   C10119987   5.203   4.159   1.659 -0.2518  0.2328  0.1796
  164MOL   H10219988   5.178   4.055   1.638  2.5329 -0.2525 -0.9095
  164MOL   H10319989   5.230   4.161   1.765 -0.0840  0.2630  0.1361
  164MOL   C10419990   5.073   4.242   1.629  0.1989  0.1807 -0.3893
  164MOL  Cl10519991   4.962   4.186   1.765 -0.4947 -0.0227  0.1504
  164MOL  Cl10619992   4.991   4.189   1.480 -0.0198 -0.3144  0.1351
  164MOL   C10719993   5.094   4.399   1.629 -0.0428 -0.7278 -0.1234
  164MOL   H10819994   5.159   4.421   1.713  1.0816  0.8188 -1.3508
  164MOL   H10919995   5.157   4.413   1.541  0.8925 -2.4050  0.2518
  164MOL   C11019996   4.979   4.503   1.630  0.4688 -0.4516  0.3531
  164MOL  Cl11119997   4.921   4.512   1.798 -0.2523 -0.0182  0.1639
  164MOL  Cl11219998   4.840   4.461   1.528  0.1083 -0.5379  0.3970
  164MOL   C11319999   5.044   4.645   1.596  0.4293  0.4096 -0.4880
  164MOL   H11420000   5.110   4.670   1.679  0.8740  0.3314 -0.8167
  164MOL   H11520001   5.103   4.640   1.505  0.9332 -0.2578 -0.1320
  164MOL   C11620002   4.961   4.771   1.573 -0.6186 -0.0697 -0.0585
  164MOL  Cl11720003   4.875   4.752   1.419 -0.2336  0.4641  0.1665
  164MOL  Cl11820004   5.072   4.905   1.568  0.0111 -0.3374  0.0113
  164MOL   C11920005   4.848   4.795   1.683  0.0547 -0.7256  0.5105
  164MOL   H12020006   4.770   4.719   1.673 -2.3109  1.6640  0.0080
  164MOL   H12120007   4.895   4.774   1.778 -0.2934 -0.7783  0.6728
  164MOL   H12220008   4.815   4.899   1.685  1.4049 -0.3112  2.1058
  165MOL     C120009   4.479   1.459   1.453  0.8632 -0.6299 -0.6990
  165MOL    Cl220010   4.364   1.374   1.552  0.2280  0.1697 -0.6270
  165MOL    Cl320011   4.490   1.355   1.309 -0.2577  0.0464 -0.3725
  165MOL     C420012   4.404   1.591   1.407 -0.9565  0.7570  0.6419
  165MOL     H520013   4.460   1.623   1.319  1.3597  1.0211  2.1795
  165MOL     H620014   4.302   1.574   1.373 -0.0857  0.8829 -2.1405
  165MOL     H720015   4.567   1.468   1.516  0.0219 -0.6380  0.4806
  165MOL     C820016   4.429   1.711   1.498 -1.2947  0.3936 -0.0719
  165MOL    Cl920017   4.350   1.846   1.419 -0.0109 -0.2126  0.0275
  165MOL   Cl1020018   4.608   1.738   1.494  0.3513 -0.0851 -0.1704
  165MOL    C1120019   4.358   1.677   1.638  0.2575  0.0600 -0.1654
  165MOL    H1220020   4.261   1.631   1.622  0.2822 -1.2287  3.0882
  165MOL    H1320021   4.424   1.611   1.695 -0.7467 -1.8668 -1.1862
  165MOL    C1420022   4.320   1.789   1.733 -0.0282  0.6593 -0.5777
  165MOL   Cl1520023   4.276   1.707   1.883  0.1623 -0.3912  0.0867
  165MOL   Cl1620024   4.172   1.865   1.680 -0.1838 -0.4149  0.3966
  165MOL    C1720025   4.442   1.893   1.747 -0.5673 -0.1082 -0.4691
  165MOL    H1820026   4.536   1.837   1.739 -2.2100 -2.8618 -1.3096
  165MOL    H1920027   4.441   1.968   1.668 -1.0106  0.4056  0.0265
  165MOL    C2020028   4.464   1.979   1.874 -0.8377  0.0217 -0.4074
  165MOL   Cl2120029   4.615   2.073   1.848  0.4301 -0.1083  0.2480
  165MOL   Cl2220030   4.495   1.870   2.011 -0.4532  0.1540  0.1324
  165MOL    C2320031   4.338   2.064   1.904  0.0629  0.0738 -0.1900
  165MOL    H2420032   4.313   2.110   1.809  2.0076  0.9001 -0.3226
  165MOL    H2520033   4.264   1.985   1.922 -1.0519  0.7171 -1.8694
  165MOL    C2620034   4.330   2.164   2.018 -0.2188 -0.1372 -0.1649
  165MOL   Cl2720035   4.174   2.241   1.995  0.1988  0.0526  0.1801
  165MOL   Cl2820036   4.455   2.290   1.985 -0.2172  0.2622 -0.0108
  165MOL    C2920037   4.359   2.106   2.160 -0.6196  0.1829  0.2859
  165MOL    H3020038   4.305   2.013   2.180 -1.0547  0.1845 -0.8787
  165MOL    H3120039   4.466   2.091   2.175 -1.1851 -2.9081  1.6573
  165MOL    C3220040   4.309   2.187   2.286 -0.6074  0.2249  0.2055
  165MOL   Cl3320041   4.133   2.191   2.299  0.3467 -0.1454  0.5191
  165MOL   Cl3420042   4.356   2.359   2.283 -0.4918  0.1093 -0.6959
  165MOL    C3520043   4.342   2.114   2.425  0.0455  0.3186 -0.5165
  165MOL    H3620044   4.305   2.190   2.493 -0.1345 -0.9384  0.8221
  165MOL    H3720045   4.276   2.027   2.434  2.2336 -1.5681 -2.0849
  165MOL    C3820046   4.476   2.061   2.469 -0.7248 -0.0399 -0.0437
  165MOL   Cl3920047   4.608   2.159   2.390 -0.1273 -0.2001  0.0094
  165MOL   Cl4020048   4.482   1.897   2.407 -0.1407  0.1013  0.2434
  165MOL    C4120049   4.500   2.063   2.618  0.0809  0.0164 -0.6845
  165MOL    H4220050   4.605   2.060   2.646  0.1264  0.1477 -0.8470
  165MOL    H4320051   4.467   2.164   2.642 -1.3353 -1.3677  3.7996
  165MOL    C4420052   4.430   1.970   2.724  0.4525 -0.1709 -0.1678
  165MOL   Cl4520053   4.511   1.804   2.731  0.1787 -0.0321 -0.0384
  165MOL   Cl4620054   4.261   1.936   2.681  0.5977 -0.1152 -0.0132
  165MOL    C4720055   4.440   2.001   2.873 -0.4740  0.4342 -0.0987
  165MOL    H4820056   4.390   1.919   2.924  0.8618 -0.8219 -0.7432
  165MOL    H4920057   4.544   1.989   2.903 -0.2095  0.4320 -1.0014
  165MOL    C5020058   4.408   2.134   2.935  0.6048  0.0021  0.1714
  165MOL   Cl5120059   4.534   2.251   2.905 -0.1184  0.1924  0.3580
  165MOL   Cl5220060   4.410   2.102   3.111 -0.3153  0.0166 -0.1799
  165MOL    C5320061   4.274   2.188   2.893  0.1122 -0.0768  0.4674
  165MOL    H5420062   4.284   2.252   2.805  0.5539 -0.0535  0.5347
  165MOL    H5520063   4.204   2.110   2.863  0.8199 -0.4154 -0.3251
  165MOL    C5620064   4.191   2.287   2.981  0.1967 -0.6658  0.3263
  165MOL   Cl5720065   4.293   2.422   3.052 -0.0281 -0.1557 -0.3607
  165MOL   Cl5820066   4.101   2.198   3.107  0.0259 -0.1094  0.0535
  165MOL    C5920067   4.083   2.367   2.896 -0.5121 -0.6775  0.7428
  165MOL    H6020068   4.023   2.410   2.977 -0.8574  0.1064  0.0729
  165MOL    H6120069   4.124   2.462   2.863  0.1250 -0.3666  2.3578
  165MOL    C6220070   3.987   2.303   2.794  0.1507 -0.3656 -0.1794
  165MOL   Cl6320071   3.923   2.144   2.835 -0.3009  0.0529 -0.5814
  165MOL   Cl6420072   4.088   2.289   2.642  0.4651  0.3462  0.1756
  165MOL    C6520073   3.861   2.386   2.747 -0.3075  0.1739  0.9594
  165MOL    H6620074   3.908   2.467   2.691 -0.7022 -1.1455 -1.3834
  165MOL    H6720075   3.820   2.329   2.663 -1.5196  0.1552  1.5640
  165MOL    C6820076   3.755   2.447   2.836  0.0445 -1.0477 -0.2403
  165MOL   Cl6920077   3.613   2.472   2.737 -0.1913 -0.0796  0.3108
  165MOL   Cl7020078   3.817   2.608   2.890 -0.3491  0.2449  0.0075
  165MOL    C7120079   3.717   2.367   2.962 -0.4374 -0.3967 -0.2215
  165MOL    H7220080   3.690   2.265   2.934  0.6117 -1.1193  1.3301
  165MOL    H7320081   3.805   2.368   3.026  0.8459  1.5293 -1.9781
  165MOL    C7420082   3.589   2.402   3.051  0.2067 -1.2348  0.2209
  165MOL   Cl7520083   3.451   2.318   2.995  0.0795  0.4948  0.4346
  165MOL   Cl7620084   3.549   2.580   3.031  0.0323  0.3459  0.3360
  165MOL    C7720085   3.608   2.384   3.205 -0.4299 -0.1155  0.2128
  165MOL    H7820086   3.698   2.441   3.229 -0.2703 -0.8830  1.4517
  165MOL    H7920087   3.523   2.432   3.253 -0.7376 -0.2204 -0.2281
  165MOL    C8020088   3.631   2.239   3.265 -0.2755 -0.4915 -0.4489
  165MOL   Cl8120089   3.685   2.271   3.430 -0.1742 -0.4613  0.1864
  165MOL   Cl8220090   3.756   2.152   3.177 -0.0728  0.0139  0.0779
  165MOL    C8320091   3.503   2.156   3.277  0.9159 -0.3602 -0.4564
  165MOL    H8420092   3.411   2.213   3.289 -0.8941 -2.3883 -3.7718
  165MOL    H8520093   3.484   2.115   3.178 -1.4058 -0.5708  0.0391
  165MOL    C8620094   3.479   2.042   3.386  0.4122  0.3720  0.5267
  165MOL   Cl8720095   3.329   1.955   3.336 -0.0776  0.1410  0.4425
  165MOL   Cl8820096   3.434   2.129   3.538 -0.1023  0.0296  0.1574
  165MOL    C8920097   3.607   1.943   3.396 -0.3721 -0.0627  0.7730
  165MOL    H9020098   3.602   1.882   3.306 -1.2259  2.4250 -0.9112
  165MOL    H9120099   3.699   2.001   3.392 -0.9260  0.7067 -1.0302
  165MOL    C9220100   3.633   1.850   3.512  0.6875 -0.2083  0.8645
  165MOL   Cl9320101   3.704   1.953   3.633 -0.0463  0.1211  0.2625
  165MOL   Cl9420102   3.770   1.744   3.458  0.3502  0.3190  0.3084
  165MOL    C9520103   3.511   1.753   3.548  0.1400 -0.5627 -0.0980
  165MOL    H9620104   3.419   1.809   3.558 -0.0592 -0.9605  0.3255
  165MOL    H9720105   3.491   1.693   3.460  0.5311  0.1019 -0.6465
  165MOL    C9820106   3.511   1.654   3.674 -0.6397 -0.9497  0.4682
  165MOL   Cl9920107   3.647   1.536   3.657 -0.1441  0.1471  0.1978
  165MOL  Cl10020108   3.354   1.574   3.671  0.1447 -0.0882 -0.0008
  165MOL   C10120109   3.536   1.731   3.808 -0.4511 -0.9280 -0.1737
  165MOL   H10220110   3.636   1.773   3.806 -0.6127 -0.5725 -1.0420
  165MOL   H10320111   3.465   1.813   3.803 -1.6360 -2.0297 -2.0400
  165MOL   C10420112   3.509   1.673   3.953  0.0617  0.0165 -0.2146
  165MOL  Cl10520113   3.339   1.633   3.973 -0.2201 -0.4643  0.0087
  165MOL  Cl10620114   3.549   1.800   4.066 -0.0289  0.1292  0.1168
  165MOL   C10720115   3.593   1.545   3.978 -0.7343 -0.0190  0.3871
  165MOL   H10820116   3.561   1.468   3.909  2.7578 -1.0194 -0.1983
  165MOL   H10920117   3.698   1.563   3.955 -0.4947 -2.3441 -0.4556
  165MOL   C11020118   3.601   1.482   4.121  0.2966  0.1472 -0.1192
  165MOL  Cl11120119   3.705   1.345   4.091  0.0124 -0.2309 -0.3425
  165MOL  Cl11220120   3.446   1.415   4.180  0.2531  0.4366 -0.0220
  165MOL   C11320121   3.675   1.571   4.237  0.0098 -0.3679  0.5159
  165MOL   H11420122   3.761   1.618   4.189 -1.7882  3.1363  0.5792
  165MOL   H11520123   3.618   1.655   4.276  1.8987  0.7467  0.9616
  165MOL   C11620124   3.734   1.491   4.359 -0.1863 -0.3521 -0.3800
  165MOL  Cl11720125   3.737   1.614   4.484 -0.1629 -0.0825 -0.0800
  165MOL  Cl11820126   3.901   1.431   4.323 -0.1287  0.0894 -0.2983
  165MOL   C11920127   3.660   1.375   4.433 -0.2814 -0.0008 -0.3082
  165MOL   H12020128   3.572   1.414   4.483 -0.2299 -1.0991  0.6376
  165MOL   H12120129   3.635   1.288   4.373 -0.9994  0.3493 -0.5267
  165MOL   H12220130   3.719   1.338   4.516  0.2477  0.4720 -0.4685
  166MOL     C120131   7.192   5.817   9.065  0.0213  0.1689  0.3296
  166MOL    Cl220132   7.337   5.926   9.056  0.3315  0.3688  0.6500
  166MOL    Cl320133   7.146   5.758   8.899 -0.0133 -0.0759  0.1122
  166MOL     C420134   7.234   5.712   9.164  0.1453 -0.6366  0.7309
  166MOL     H520135   7.325   5.663   9.129  1.7474  2.4999  0.2750
  166MOL     H620136   7.269   5.755   0.077  0.2278  0.7740  0.0658
  166MOL     H720137   7.101   5.867   9.098  1.3224  1.4417  2.1273
  166MOL     C820138   7.134   5.609   0.040 -0.0812  0.6902 -1.2035
  166MOL    Cl920139   7.020   5.553   9.097 -0.0500  0.3393 -0.1512
  166MOL   Cl1020140   7.027   5.687   0.155 -0.6758  0.6856  0.3449
  166MOL    C1120141   7.202   5.485   0.103 -0.1916 -0.2183  0.1103
  166MOL    H1220142   7.118   5.428   0.141  0.4141 -1.1468  0.0632
  166MOL    H1320143   7.232   5.427   0.015 -0.7265  1.6908 -1.3808
  166MOL    C1420144   7.310   5.491   0.213 -0.1076  0.5403 -0.4677
  166MOL   Cl1520145   7.264   5.603   0.347 -0.0506  0.2999  0.1141
  166MOL   Cl1620146   7.468   5.528   0.150 -0.2122  0.1779 -0.2516
  166MOL    C1720147   7.315   5.348   0.274  0.3201 -0.6893 -0.2363
  166MOL    H1820148   7.408   5.346   0.331  0.0346  2.5061  0.4157
  166MOL    H1920149   7.232   5.344   0.345 -0.9739 -0.8362 -1.7373
  166MOL    C2020150   7.309   5.217   0.196 -0.0203 -0.0793 -0.1485
  166MOL   Cl2120151   7.422   5.218   0.061 -0.1659  0.2539 -0.2736
  166MOL   Cl2220152   7.147   5.182   0.124 -0.4666  0.0060  0.4154
  166MOL    C2320153   7.351   5.091   0.281  0.4569 -0.3886  0.1544
  166MOL    H2420154   7.331   5.014   0.206  0.3732  0.3191 -0.5581
  166MOL    H2520155   7.459   5.100   0.290  0.7244  1.9757 -4.0063
  166MOL    C2620156   7.306   5.047   0.422 -0.1738 -0.7074 -0.6578
  166MOL   Cl2720157   7.130   5.056   0.433  0.2298 -0.0285  0.4102
  166MOL   Cl2820158   7.370   5.158   0.548 -0.0577  0.2414  0.2836
  166MOL    C2920159   7.338   4.901   0.457 -0.9499  0.1762 -0.3470
  166MOL    H3020160   7.299   4.877   0.556  0.8315  1.5754  0.7161
  166MOL    H3120161   7.279   4.832   0.396 -2.2210 -1.1410  2.2840
  166MOL    C3220162   7.481   4.846   0.441 -0.2942  0.7991  0.4728
  166MOL   Cl3320163   7.618   4.951   0.497 -0.0691  0.3738  0.3277
  166MOL   Cl3420164   7.505   4.824   0.259  0.0322  0.3968  0.0024
  166MOL    C3520165   7.503   4.713   0.511  0.2602  0.0685  0.1508
  166MOL    H3620166   7.436   4.642   0.463 -0.0255  0.3355  0.1544
  166MOL    H3720167   7.609   4.690   0.499 -0.2107 -1.8444 -0.4623
  166MOL    C3820168   7.473   4.703   0.660  0.7498 -0.1350  0.2213
  166MOL   Cl3920169   7.302   4.640   0.681 -0.4396 -0.1253  0.0650
  166MOL   Cl4020170   7.491   4.854   0.759  0.0331  0.0160 -0.0054
  166MOL    C4120171   7.564   4.603   0.738  0.3957 -0.4097 -0.6995
  166MOL    H4220172   7.653   4.659   0.763 -0.8519  1.5243 -0.5269
  166MOL    H4320173   7.519   4.607   0.837  2.1155  0.3308  0.0654
  166MOL    C4420174   7.579   4.450   0.714  1.0434 -0.1405  0.7320
  166MOL   Cl4520175   7.629   4.419   0.540  0.2736 -0.1906  0.0831
  166MOL   Cl4620176   7.426   4.361   0.747  0.0746 -0.3973  0.0683
  166MOL    C4720177   7.694   4.397   0.818 -0.3621 -0.0407 -0.0744
  166MOL    H4820178   7.778   4.466   0.812 -1.5954  1.3026 -2.3602
  166MOL    H4920179   7.660   4.423   0.918 -0.1544 -2.8070  0.7477
  166MOL    C5020180   7.751   4.247   0.834  0.4341 -0.1560 -0.7371
  166MOL   Cl5120181   7.619   4.139   0.905 -0.1884  0.1195  0.0440
  166MOL   Cl5220182   7.896   4.240   0.943  0.1230 -0.4433  0.0869
  166MOL    C5320183   7.794   4.196   0.690 -0.1272  0.7134  0.1311
  166MOL    H5420184   7.703   4.190   0.630  1.1652  0.1845 -1.8281
  166MOL    H5520185   7.840   4.281   0.640  0.6590  0.4472  0.3857
  166MOL    C5620186   7.872   4.064   0.666 -1.0790 -0.4239 -0.3455
  166MOL   Cl5720187   8.048   4.094   0.679 -0.2265 -0.8145  0.0537
  166MOL   Cl5820188   7.852   4.020   0.495  0.0433  0.0028 -0.2200
  166MOL    C5920189   7.830   3.942   0.769  0.9021  0.0126  0.0527
  166MOL    H6020190   7.844   3.984   0.868  1.1604 -0.0806  0.0577
  166MOL    H6120191   7.724   3.933   0.745  0.6456 -1.4940  1.6458
  166MOL    C6220192   7.893   3.800   0.780 -0.2861  0.4174  0.1946
  166MOL   Cl6320193   8.061   3.801   0.839  0.2326  0.1368  0.5820
  166MOL   Cl6420194   7.893   3.719   0.620 -0.5112 -0.0035 -0.1920
  166MOL    C6520195   7.802   3.706   0.857  0.1796  0.3027 -0.4501
  166MOL    H6620196   7.703   3.697   0.814 -0.0041  0.0471  0.0263
  166MOL    H6720197   7.847   3.607   0.853 -1.8389 -0.7812  2.3782
  166MOL    C6820198   7.770   3.742   1.012 -0.1562 -0.0043  0.1713
  166MOL   Cl6920199   7.610   3.830   1.026 -0.2050 -0.0705 -0.0329
  166MOL   Cl7020200   7.889   3.841   1.090 -0.1369  0.2044  0.1848
  166MOL    C7120201   7.775   3.616   1.096  0.3372  0.3760 -0.3041
  166MOL    H7220202   7.731   3.534   1.038 -2.9881  0.5700  1.7831
  166MOL    H7320203   7.882   3.604   1.110 -0.0597 -1.3851  1.5913
  166MOL    C7420204   7.710   3.605   1.240  0.2360 -0.6065 -0.0375
  166MOL   Cl7520205   7.533   3.597   1.234  0.0884 -0.2221  0.1417
  166MOL   Cl7620206   7.742   3.752   1.330 -0.0638  0.1969 -0.0896
  166MOL    C7720207   7.762   3.491   1.316  0.1824 -0.0953 -0.2574
  166MOL    H7820208   7.863   3.522   1.342 -1.0489  1.9894  2.1807
  166MOL    H7920209   7.712   3.496   1.413 -0.6459  0.0609 -0.6850
  166MOL    C8020210   7.759   3.346   1.257  0.3398  0.7432  0.0535
  166MOL   Cl8120211   7.790   3.240   1.402  0.1349 -0.2315 -0.1154
  166MOL   Cl8220212   7.906   3.323   1.166  0.3656 -0.0118 -0.5223
  166MOL    C8320213   7.636   3.296   1.174  0.0784  0.0292 -0.5580
  166MOL    H8420214   7.596   3.382   1.119 -1.0563 -0.1942 -0.1066
  166MOL    H8520215   7.657   3.233   1.088 -1.4327 -0.5843 -0.5035
  166MOL    C8620216   7.522   3.224   1.252 -0.3197 -0.4602 -0.6339
  166MOL   Cl8720217   7.375   3.259   1.169  0.2258 -0.2790 -0.1059
  166MOL   Cl8820218   7.488   3.307   1.409  0.1015  0.1484 -0.2366
  166MOL    C8920219   7.538   3.072   1.293  0.4232 -0.7671 -0.8930
  166MOL    H9020220   7.589   3.050   1.386  1.6077 -1.5521 -1.7197
  166MOL    H9120221   7.440   3.040   1.328  0.0558 -1.0674 -2.1433
  166MOL    C9220222   7.592   2.976   1.190  0.1173 -0.1248  0.5353
  166MOL   Cl9320223   7.541   3.020   1.025 -0.1134 -0.1944  0.0344
  166MOL   Cl9420224   7.507   2.825   1.221 -0.1805  0.1577  0.3134
  166MOL    C9520225   7.747   2.943   1.205 -0.3832 -0.2987 -0.0458
  166MOL    H9620226   7.794   3.036   1.234  1.1228 -0.4098 -2.0317
  166MOL    H9720227   7.746   2.881   1.294  1.4612  0.5390  0.5830
  166MOL    C9820228   7.833   2.856   1.103 -0.4094  0.4990  0.6798
  166MOL   Cl9920229   7.848   2.950   0.955 -0.1427 -0.4788 -0.2908
  166MOL  Cl10020230   7.738   2.714   1.056 -0.2542 -0.3053  0.2187
  166MOL   C10120231   7.978   2.802   1.148 -0.2164  0.1681  0.5189
  166MOL   H10220232   7.956   2.709   1.202  2.7404 -0.8825  0.0156
  166MOL   H10320233   8.018   2.777   1.049  2.5928 -2.3988  2.2119
  166MOL   C10420234   8.074   2.898   1.219 -0.1898 -0.1499  0.3240
  166MOL  Cl10520235   8.207   2.789   1.260 -0.1988  0.2311  0.2977
  166MOL  Cl10620236   8.002   2.939   1.371 -0.2417 -0.3505 -0.0839
  166MOL   C10720237   8.128   3.016   1.147 -0.2693  0.2165 -0.5931
  166MOL   H10820238   8.168   2.971   1.056 -2.3873 -1.3865 -0.7677
  166MOL   H10920239   8.044   3.083   1.124  2.1240  2.4880 -3.1448
  166MOL   C11020240   8.228   3.114   1.201  0.0233 -0.4826 -0.1177
  166MOL  Cl11120241   8.163   3.206   1.341  0.1353  0.5511 -0.0256
  166MOL  Cl11220242   8.248   3.226   1.057 -0.1745 -0.1806 -0.3385
  166MOL   C11320243   8.364   3.049   1.230  0.6373 -0.1664  0.4251
  166MOL   H11420244   8.364   2.986   1.319 -1.0548  0.2827  0.7529
  166MOL   H11520245   8.387   2.974   1.154  0.4230  0.6427 -0.4434
  166MOL   C11620246   8.484   3.146   1.244 -0.6016 -0.1525 -0.7115
  166MOL  Cl11720247   8.545   3.204   1.084 -0.1947 -0.3300 -0.2260
  166MOL  Cl11820248   8.609   3.044   1.320  0.0095  0.1608 -0.1047
  166MOL   C11920249   8.474   3.264   1.330  0.6433 -0.1345  0.0833
  166MOL   H12020250   8.563   3.326   1.329  0.0450  0.7278 -0.6473
  166MOL   H12120251   8.398   3.331   1.289 -2.0858 -3.3991 -0.4165
  166MOL   H12220252   8.447   3.244   1.434 -1.5584 -2.0373 -0.8069
  167MOL     C120253   2.786   7.955   0.910  0.1975 -0.2810 -0.0786
  167MOL    Cl220254   2.848   7.811   0.822 -0.1139 -0.1296 -0.0400
  167MOL    Cl320255   2.768   8.089   0.791 -0.2798 -0.5507 -0.2427
  167MOL     C420256   2.644   7.906   0.965  0.1985 -0.2408  0.6541
  167MOL     H520257   2.580   7.880   0.881 -0.6227  2.2957  0.4360
  167MOL     H620258   2.662   7.808   1.009  2.6921  0.1618  0.5949
  167MOL     H720259   2.858   7.973   0.989 -0.1627 -1.0021  0.4172
  167MOL     C820260   2.564   7.999   1.067 -0.1010 -0.1655 -0.2754
  167MOL    Cl920261   2.520   8.153   0.984 -0.2189  0.1537 -0.4649
  167MOL   Cl1020262   2.688   8.044   1.182 -0.2201 -0.1977 -0.1559
  167MOL    C1120263   2.444   7.945   1.154  0.3595  0.1038 -0.1066
  167MOL    H1220264   2.487   7.874   1.224  3.2825  0.3740 -1.5407
  167MOL    H1320265   2.406   8.031   1.209 -0.4685 -1.0092  1.0693
  167MOL    C1420266   2.318   7.883   1.096 -0.3710 -0.3420  0.0560
  167MOL   Cl1520267   2.362   7.752   0.985 -0.4288  0.1260 -0.1512
  167MOL   Cl1620268   2.234   8.004   0.992  0.2170  0.0365  0.1882
  167MOL    C1720269   2.235   7.835   1.217  0.7064 -0.2377 -0.2630
  167MOL    H1820270   2.284   7.755   1.273 -0.8877 -0.0182  1.4718
  167MOL    H1920271   2.233   7.915   1.291 -1.9331  1.2249 -1.8720
  167MOL    C2020272   2.080   7.803   1.200  0.6200  0.4987  0.3179
  167MOL   Cl2120273   2.057   7.701   1.056  0.3470 -0.1644 -0.1076
  167MOL   Cl2220274   2.001   7.962   1.182 -0.1193  0.0884  0.2600
  167MOL    C2320275   2.002   7.730   1.319  0.8204  0.2194  0.0602
  167MOL    H2420276   1.940   7.807   1.365  0.2317  1.4515 -2.6836
  167MOL    H2520277   1.932   7.659   1.276  0.8855 -1.1377  2.0971
  167MOL    C2620278   2.078   7.660   1.434  0.4680  1.1961 -0.2537
  167MOL   Cl2720279   2.158   7.787   1.522 -0.3109 -0.2560  0.1669
  167MOL   Cl2820280   2.190   7.536   1.376 -0.0892 -0.3006 -0.0591
  167MOL    C2920281   2.001   7.587   1.542  0.6474  0.0253 -0.1072
  167MOL    H3020282   2.070   7.550   1.617  1.2109  0.9525 -0.1574
  167MOL    H3120283   1.960   7.665   1.608  2.7136  2.0642 -1.1562
  167MOL    C3220284   1.882   7.493   1.501 -0.3129 -0.4873 -0.1764
  167MOL   Cl3320285   1.923   7.372   1.376  0.2575  0.1895 -0.7496
  167MOL   Cl3420286   1.740   7.593   1.438 -0.4384  0.1034  0.1310
  167MOL    C3520287   1.827   7.413   1.624 -0.2262  0.6718  0.4074
  167MOL    H3620288   1.764   7.480   1.683 -1.9169  0.1678 -0.8018
  167MOL    H3720289   1.757   7.346   1.574  0.2087  0.9454 -0.5781
  167MOL    C3820290   1.917   7.328   1.724  0.2027 -0.3257  0.1281
  167MOL   Cl3920291   1.803   7.220   1.808  0.5427  0.3033  0.2760
  167MOL   Cl4020292   1.982   7.441   1.846 -0.4877  0.3627 -0.2906
  167MOL    C4120293   2.029   7.254   1.644  0.6423  1.4448  0.0041
  167MOL    H4220294   1.982   7.198   1.563  0.0216  1.1397  0.5827
  167MOL    H4320295   2.104   7.317   1.595  3.2542 -1.2760  0.3622
  167MOL    C4420296   2.122   7.147   1.719  0.1317  0.0738  0.6109
  167MOL   Cl4520297   2.035   7.011   1.793  0.2692  0.6319 -0.0234
  167MOL   Cl4620298   2.213   7.225   1.857 -0.0998  0.2124 -0.3230
  167MOL    C4720299   2.228   7.067   1.634 -0.2820 -0.4687  0.7236
  167MOL    H4820300   2.298   7.027   1.709 -1.4467  0.5026  2.3645
  167MOL    H4920301   2.188   6.982   1.579  0.2341  0.1570 -0.6431
  167MOL    C5020302   2.310   7.146   1.521  0.5204  0.6242  0.1079
  167MOL   Cl5120303   2.385   7.295   1.597 -0.2601 -0.3142  0.3484
  167MOL   Cl5220304   2.211   7.211   1.389  0.2963  0.0462  0.2186
  167MOL    C5320305   2.430   7.073   1.454  0.5770  0.3808 -0.4994
  167MOL    H5420306   2.397   7.039   1.356 -0.7808  1.9329 -0.5904
  167MOL    H5520307   2.493   7.155   1.421  0.0294 -0.5271 -3.9413
  167MOL    C5620308   2.506   6.961   1.532 -1.0108 -0.4592  0.3964
  167MOL   Cl5720309   2.394   6.817   1.543 -0.0399 -0.5373 -0.1239
  167MOL   Cl5820310   2.551   7.025   1.697  0.1215  0.0505 -0.2195
  167MOL    C5920311   2.631   6.913   1.446  0.0044 -0.2061  0.3260
  167MOL    H6020312   2.604   6.878   1.346  1.5895  0.6912 -0.4301
  167MOL    H6120313   2.689   7.004   1.430  1.0792 -1.2194 -1.6272
  167MOL    C6220314   2.734   6.801   1.495 -0.0984  0.6123 -0.0289
  167MOL   Cl6320315   2.816   6.875   1.629 -0.2795 -0.0161 -0.2562
  167MOL   Cl6420316   2.844   6.775   1.351 -0.0665  0.2981  0.0396
  167MOL    C6520317   2.670   6.663   1.530 -0.0325  0.2536  0.0710
  167MOL    H6620318   2.626   6.681   1.629  0.2825 -0.5558  0.3613
  167MOL    H6720319   2.603   6.632   1.449 -0.8899 -0.5219  1.0582
  167MOL    C6820320   2.754   6.538   1.556 -0.5324 -0.1436 -0.2996
  167MOL   Cl6920321   2.873   6.568   1.689  0.2554 -0.0546  0.1552
  167MOL   Cl7020322   2.849   6.494   1.414 -0.3112  0.2384 -0.5454
  167MOL    C7120323   2.678   6.411   1.597  0.7643  0.1705 -0.8718
  167MOL    H7220324   2.742   6.323   1.585 -0.9496 -1.1508 -0.7001
  167MOL    H7320325   2.657   6.425   1.703  0.9094  1.0145 -0.9570
  167MOL    C7420326   2.553   6.355   1.526  0.4650 -0.3580 -0.1424
  167MOL   Cl7520327   2.417   6.470   1.567 -0.4006 -0.5181 -0.2560
  167MOL   Cl7620328   2.508   6.198   1.605  0.3445 -0.3491  0.1654
  167MOL    C7720329   2.558   6.339   1.369 -0.5428 -0.5151  0.2514
  167MOL    H7820330   2.633   6.408   1.330 -1.3311  0.2106 -0.0007
  167MOL    H7920331   2.590   6.238   1.345  0.2166 -1.1465  3.6522
  167MOL    C8020332   2.439   6.357   1.275 -0.3082  0.5318  0.0058
  167MOL   Cl8120333   2.500   6.314   1.116  0.3007 -0.1008 -0.3239
  167MOL   Cl8220334   2.399   6.534   1.266  0.4251  0.0340  0.0742
  167MOL    C8320335   2.317   6.266   1.324 -0.2438  0.3692 -0.5055
  167MOL    H8420336   2.338   6.166   1.286  0.0638  0.1699  0.1944
  167MOL    H8520337   2.318   6.247   1.431 -3.5253  0.9224 -0.3124
  167MOL    C8620338   2.173   6.297   1.286 -0.9229  0.0046  0.0654
  167MOL   Cl8720339   2.120   6.422   1.399 -0.5037  0.0915 -0.3323
  167MOL   Cl8820340   2.066   6.155   1.328  0.1840  0.3113 -0.3081
  167MOL    C8920341   2.157   6.335   1.140  0.4115  0.2223 -0.0824
  167MOL    H9020342   2.242   6.397   1.114  1.5500 -2.0859 -2.0997
  167MOL    H9120343   2.158   6.236   1.093  0.5314  1.0349 -1.8461
  167MOL    C9220344   2.034   6.410   1.087  0.1982  0.4909 -0.8315
  167MOL   Cl9320345   2.038   6.586   1.112  0.3062 -0.0891  0.5582
  167MOL   Cl9420346   1.880   6.345   1.146 -0.2527  0.1649  0.4420
  167MOL    C9520347   2.023   6.385   0.930  0.2437 -0.4050 -0.3845
  167MOL    H9620348   2.004   6.278   0.925 -0.2605 -0.4394  2.0526
  167MOL    H9720349   1.931   6.434   0.899  1.2028  0.6149 -1.6793
  167MOL    C9820350   2.142   6.402   0.833 -0.7688  0.6042  0.0127
  167MOL   Cl9920351   2.270   6.289   0.860 -0.1383 -0.5062  0.1631
  167MOL  Cl10020352   2.213   6.565   0.835 -0.0517 -0.2077  0.2509
  167MOL   C10120353   2.099   6.379   0.678  0.2098 -0.2065 -0.3047
  167MOL   H10220354   2.039   6.464   0.646  2.2745  1.8853  1.1808
  167MOL   H10320355   2.199   6.386   0.636  1.2519 -1.9610  1.7881
  167MOL   C10420356   2.017   6.251   0.626 -0.0845 -0.1709  0.3943
  167MOL  Cl10520357   1.841   6.276   0.655 -0.0278  0.0655 -0.2303
  167MOL  Cl10620358   2.079   6.108   0.724 -0.3985 -0.2390 -0.0997
  167MOL   C10720359   2.048   6.212   0.481  0.2631 -0.1598  0.7880
  167MOL   H10820360   2.151   6.175   0.480  0.8859  1.5289  0.5678
  167MOL   H10920361   2.002   6.117   0.456  0.0201 -0.1801  1.3301
  167MOL   C11020362   2.025   6.319   0.370  0.2481 -0.1139  0.6218
  167MOL  Cl11120363   2.162   6.423   0.374  0.0844 -0.5163  0.4451
  167MOL  Cl11220364   1.871   6.410   0.378  0.4939 -0.0574  0.0333
  167MOL   C11320365   2.027   6.242   0.233  0.3195 -0.1695 -0.0900
  167MOL   H11420366   2.045   6.314   0.153 -0.3738  0.5378  0.3829
  167MOL   H11520367   2.120   6.185   0.238  0.0531 -0.7306 -1.4292
  167MOL   C11620368   1.925   6.153   0.167  0.5445 -0.5860 -0.0775
  167MOL  Cl11720369   1.994   6.097   0.012  0.1476 -0.1661 -0.0192
  167MOL  Cl11820370   1.784   6.239   0.118  0.0460 -0.2206  0.6067
  167MOL   C11920371   1.865   6.030   0.239  0.0303 -0.6249 -0.4015
  167MOL   H12020372   1.793   5.984   0.171  0.2671 -0.6326 -0.6497
  167MOL   H12120373   1.951   5.974   0.276  1.1819  1.9641  0.9975
  167MOL   H12220374   1.804   6.060   0.324 -0.8793  0.9010 -1.5611
  168MOL     C120375   1.723   8.522   6.106 -0.0949 -0.1210  1.0591
  168MOL    Cl220376   1.662   8.356   6.082  0.0557 -0.2710  0.1013
  168MOL    Cl320377   1.882   8.538   6.182  0.4326  0.2252 -0.0951
  168MOL     C420378   1.744   8.584   5.968  0.6130  0.3095  0.4059
  168MOL     H520379   1.796   8.679   5.981  0.4180  0.6143 -0.9572
  168MOL     H620380   1.815   8.523   5.912  0.9359  2.3525 -1.4856
  168MOL     H720381   1.650   8.569   6.171 -1.2055 -0.2909 -0.0463
  168MOL     C820382   1.622   8.611   5.883  0.5197 -0.3285  0.2697
  168MOL    Cl920383   1.483   8.650   5.987 -0.2601  0.1814 -0.2016
  168MOL   Cl1020384   1.567   8.469   5.795 -0.1429 -0.0264 -0.3491
  168MOL    C1120385   1.637   8.731   5.785 -0.5519  0.2439  0.2472
  168MOL    H1220386   1.552   8.719   5.717  0.4174 -1.5813 -0.6713
  168MOL    H1320387   1.626   8.820   5.847 -1.1546  0.1289  0.3100
  168MOL    C1420388   1.762   8.757   5.693  0.3426  0.3032  0.4174
  168MOL   Cl1520389   1.814   8.600   5.603  0.0287 -0.0739  0.0826
  168MOL   Cl1620390   1.898   8.809   5.789 -0.4349 -0.1771  0.3482
  168MOL    C1720391   1.725   8.859   5.582 -0.2476  0.3104 -0.0165
  168MOL    H1820392   1.817   8.881   5.527 -0.2168 -1.6911 -0.7966
  168MOL    H1920393   1.658   8.811   5.511 -1.5985  0.5813  1.0511
  168MOL    C2020394   1.660   8.998   5.615 -0.2332 -0.1934  0.0422
  168MOL   Cl2120395   1.718   9.060   5.768  0.4945 -0.1916 -0.2444
  168MOL   Cl2220396   1.480   8.973   5.603 -0.1276  0.4877  0.1658
  168MOL    C2320397   1.693   9.117   5.515 -0.7021 -0.4581  0.0554
  168MOL    H2420398   1.661   0.030   5.562 -1.2436 -0.3881 -0.4390
  168MOL    H2520399   1.802   9.119   5.512 -0.6749  1.3170  1.3587
  168MOL    C2620400   1.656   9.132   5.356  0.2237 -0.6190  0.4707
  168MOL   Cl2720401   1.737   9.002   5.265 -0.0787  0.1721  0.2351
  168MOL   Cl2820402   1.707   0.107   5.289 -0.1575  0.3239 -0.1013
  168MOL    C2920403   1.502   9.125   5.330  0.1241 -0.2376 -0.4515
  168MOL    H3020404   1.485   9.019   5.351  0.1580  0.1590  1.6995
  168MOL    H3120405   1.456   0.006   5.407  1.2862  0.3818 -0.2313
  168MOL    C3220406   1.420   9.157   5.205 -0.5545  0.1268  0.5162
  168MOL   Cl3320407   1.416   0.151   5.176  0.1435  0.1977  0.0431
  168MOL   Cl3420408   1.256   9.112   5.240  0.0808 -0.0354  0.0151
  168MOL    C3520409   1.458   9.074   5.074 -1.1802  0.1544 -0.2267
  168MOL    H3620410   1.565   9.097   5.066 -1.0361 -0.3951  0.1411
  168MOL    H3720411   1.454   8.968   5.098 -1.1486  0.0189 -0.7967
  168MOL    C3820412   1.405   9.103   4.936 -0.1590  0.5349  0.1676
  168MOL   Cl3920413   1.477   8.959   4.849 -0.3056  0.3190  0.3657
  168MOL   Cl4020414   1.473   0.071   4.864  0.6485 -0.1202  0.0223
  168MOL    C4120415   1.250   9.109   4.928 -0.7009 -0.1575 -0.0799
  168MOL    H4220416   1.206   9.030   4.988 -1.2543  1.1024  1.1881
  168MOL    H4320417   1.219   0.020   4.979  2.1402  0.7434  0.1019
  168MOL    C4420418   1.169   9.105   4.791 -0.1174 -0.5391 -0.6533
  168MOL   Cl4520419   1.179   8.946   4.713 -0.0549  0.3443 -0.3743
  168MOL   Cl4620420   1.235   0.049   4.685 -0.2519 -0.1566 -0.1484
  168MOL    C4720421   1.017   9.128   4.829  0.0372  0.0146  0.1750
  168MOL    H4820422   0.977   9.039   4.879 -0.5449  0.4339  0.4759
  168MOL    H4920423   0.997   0.010   4.916  0.8859  1.1974 -0.4695
  168MOL    C5020424   0.908   9.175   4.725 -0.5352 -0.6279 -0.3558
  168MOL   Cl5120425   0.940   0.167   4.707 -0.5170  0.0072 -0.2814
  168MOL   Cl5220426   0.748   9.146   4.803 -0.3953 -0.2142  0.3784
  168MOL    C5320427   0.922   9.103   4.588 -0.1803 -0.5160 -0.0626
  168MOL    H5420428   1.025   9.125   4.559 -0.6928 -1.1551 -2.3792
  168MOL    H5520429   0.911   8.999   4.619  2.8713 -0.5884  0.9153
  168MOL    C5620430   0.822   9.132   4.468  0.4437  0.5847  0.3625
  168MOL   Cl5720431   0.834   0.126   4.419  0.2291  0.1585  0.1051
  168MOL   Cl5820432   0.653   9.089   4.507 -0.1682 -0.0393  0.5447
  168MOL    C5920433   0.863   9.058   4.332  0.1058 -0.1858 -1.2100
  168MOL    H6020434   0.808   9.105   4.250  0.3585  0.0966 -1.2158
  168MOL    H6120435   0.968   9.075   4.309  0.3027  0.5067  0.1377
  168MOL    C6220436   0.839   8.904   4.317 -0.0719 -0.6651 -0.4912
  168MOL   Cl6320437   0.965   8.838   4.422  0.1912 -0.2723  0.1359
  168MOL   Cl6420438   0.899   8.867   4.158  0.0423  0.1407  0.1671
  168MOL    C6520439   0.693   8.847   4.348 -0.2399  0.0291 -0.6366
  168MOL    H6620440   0.677   8.852   4.455  0.2472 -1.1413 -0.5031
  168MOL    H6720441   0.618   8.919   4.314 -2.4656 -1.4637  1.0086
  168MOL    C6820442   0.647   8.713   4.305  0.3463  0.2520 -0.5016
  168MOL   Cl6920443   0.616   8.719   4.130 -0.4456  0.1024 -0.1135
  168MOL   Cl7020444   0.498   8.682   4.398  0.2632  0.1800 -0.0122
  168MOL    C7120445   0.746   8.607   4.345 -0.1843  0.2985  0.2001
  168MOL    H7220446   0.835   8.625   4.284 -0.2575 -3.3317 -1.1234
  168MOL    H7320447   0.770   8.612   4.451  1.6381 -2.7698  0.0135
  168MOL    C7420448   0.723   8.453   4.327 -0.0311 -0.1590 -0.3905
  168MOL   Cl7520449   0.621   8.420   4.182  0.1271 -0.2003 -0.2511
  168MOL   Cl7620450   0.627   8.385   4.464 -0.1579 -0.0243 -0.1941
  168MOL    C7720451   0.849   8.372   4.304  0.2850  0.0130  0.2336
  168MOL    H7820452   0.813   8.270   4.301 -0.5533  0.3421 -1.1517
  168MOL    H7920453   0.877   8.400   4.203 -0.7463 -2.5976 -0.8041
  168MOL    C8020454   0.976   8.375   4.402 -0.6398 -0.4707  0.2381
  168MOL   Cl8120455   1.051   8.539   4.422  0.1163  0.4143  0.0595
  168MOL   Cl8220456   1.098   8.277   4.323 -0.3431  0.0504  0.1861
  168MOL    C8320457   0.939   8.321   4.541  0.3354  0.0924  0.2787
  168MOL    H8420458   0.894   8.406   4.592  1.3033  0.0231  1.2700
  168MOL    H8520459   0.858   8.249   4.534 -0.4658  1.0102 -0.0259
  168MOL    C8620460   1.040   8.267   4.646  0.1904 -0.2553  0.5514
  168MOL   Cl8720461   1.079   8.099   4.604 -0.1676 -0.4269 -0.0005
  168MOL   Cl8820462   0.952   8.262   4.797 -0.2899  0.2092 -0.0982
  168MOL    C8920463   1.168   8.353   4.653  0.0159 -0.2609 -0.3503
  168MOL    H9020464   1.225   8.330   4.563 -0.7502  1.9491 -1.4200
  168MOL    H9120465   1.139   8.458   4.650  2.0572  0.2603 -2.0176
  168MOL    C9220466   1.270   8.335   4.775 -0.5635 -0.2423 -0.0566
  168MOL   Cl9320467   1.285   8.163   4.837 -0.2115 -0.0675 -0.4541
  168MOL   Cl9420468   1.206   8.437   4.915 -0.0368  0.1236  0.1385
  168MOL    C9520469   1.421   8.372   4.746 -0.7737  0.1299  0.8848
  168MOL    H9620470   1.486   8.369   4.834 -1.0328  1.8083  1.1408
  168MOL    H9720471   1.467   8.291   4.689 -0.6494  0.0528  1.0937
  168MOL    C9820472   1.462   8.507   4.679 -0.3923  1.3286  0.5836
  168MOL   Cl9920473   1.369   8.646   4.744 -0.4123  0.2980  0.2519
  168MOL  Cl10020474   1.402   8.505   4.508 -0.1530  0.4715 -0.0826
  168MOL   C10120475   1.607   8.547   4.658 -0.4217  0.0427  0.0072
  168MOL   H10220476   1.650   8.503   4.568 -0.3909 -1.3127  0.6728
  168MOL   H10320477   1.609   8.652   4.631  1.0435  0.0180 -0.0565
  168MOL   C10420478   1.716   8.532   4.776  0.1889 -0.1587 -0.0263
  168MOL  Cl10520479   1.850   8.635   4.720 -0.0424 -0.8492 -0.2695
  168MOL  Cl10620480   1.764   8.356   4.781  0.0823 -0.5535 -0.2867
  168MOL   C10720481   1.657   8.594   4.905 -0.5451 -0.0681  0.1192
  168MOL   H10820482   1.638   8.701   4.901 -2.6581 -0.4070  0.0344
  168MOL   H10920483   1.559   8.547   4.915 -0.4356  0.0454  1.8862
  168MOL   C11020484   1.734   8.559   5.037  0.3228  0.0704  0.6527
  168MOL  Cl11120485   1.695   8.393   5.089  0.2434  0.2211  0.7395
  168MOL  Cl11220486   1.652   8.667   5.154  0.4659 -0.2265  0.1156
  168MOL   C11320487   1.886   8.579   5.038  0.4663 -0.2942 -0.9670
  168MOL   H11420488   1.930   8.526   4.953 -0.6115 -0.9718 -1.1175
  168MOL   H11520489   1.905   8.686   5.034 -1.2864  0.1991  2.2945
  168MOL   C11620490   1.974   8.518   5.152  0.7066  0.0792 -0.1198
  168MOL  Cl11720491   2.125   8.606   5.133  0.0151 -0.0313 -0.0106
  168MOL  Cl11820492   2.017   8.350   5.122  0.0059 -0.0184 -0.1296
  168MOL   C11920493   1.916   8.532   5.291  0.1440  0.0195 -0.1145
  168MOL   H12020494   1.985   8.506   5.372 -0.6876  1.0373  0.9345
  168MOL   H12120495   1.900   8.639   5.299  0.2207  0.1794 -1.8797
  168MOL   H12220496   1.827   8.480   5.325  1.1581 -2.0023 -0.4513
  169MOL     C120497   3.433   9.120   5.318  0.0260  0.2190 -0.0558
  169MOL    Cl220498   3.400   9.080   5.496 -0.3757 -0.0323  0.1642
  169MOL    Cl320499   3.283   9.166   5.232 -0.1591  0.0403 -0.1621
  169MOL     C420500   3.547   0.050   5.309  0.0409 -0.0123  0.6543
  169MOL     H520501   3.528   0.104   5.217 -1.5294 -0.8427  0.4802
  169MOL     H620502   3.535   0.121   5.392  1.1085 -0.0554  0.8584
  169MOL     H720503   3.475   9.025   5.283 -0.5585 -0.0520 -0.0351
  169MOL     C820504   3.697   0.002   5.300 -0.2706  0.0418 -0.3348
  169MOL    Cl920505   3.710   9.108   5.140  0.1430 -0.2163  0.1356
  169MOL   Cl1020506   3.722   9.050   5.423 -0.1231  0.2647  0.0422
  169MOL    C1120507   3.813   0.108   5.301  0.5102 -0.1221  0.6693
  169MOL    H1220508   3.899   0.042   5.306  0.4646 -0.2094  0.3414
  169MOL    H1320509   3.828   0.154   5.203  1.4071  0.6151  1.1425
  169MOL    C1420510   3.819   0.217   5.414 -0.5167 -0.0324 -0.0416
  169MOL   Cl1520511   3.695   0.345   5.381  0.0699 -0.1008  0.2361
  169MOL   Cl1620512   3.980   0.300   5.402  0.4588  0.4429  0.2905
  169MOL    C1720513   3.791   0.163   5.557  0.1921  0.2060  0.0136
  169MOL    H1820514   3.685   0.140   5.555  0.7389 -2.4293 -1.0590
  169MOL    H1920515   3.845   0.068   5.562 -0.9607 -0.6609 -3.0844
  169MOL    C2020516   3.831   0.242   5.686  0.1627  0.3022 -0.0767
  169MOL   Cl2120517   3.826   0.421   5.654  0.4627 -0.5541 -0.0537
  169MOL   Cl2220518   3.997   0.215   5.730  0.0829  0.0137  0.4134
  169MOL    C2320519   3.742   0.211   5.804  0.0673 -0.0161 -0.3776
  169MOL    H2420520   3.754   0.286   5.883  0.7854 -0.1652 -0.3499
  169MOL    H2520521   3.639   0.215   5.768 -0.5662 -0.7721  1.3269
  169MOL    C2620522   3.734   0.072   5.878  0.8676  0.2605 -1.0008
  169MOL   Cl2720523   3.893   0.034   5.953 -0.1525 -0.0082  0.3519
  169MOL   Cl2820524   3.673   9.135   5.766 -0.5442  0.4035 -0.0278
  169MOL    C2920525   3.637   0.085   6.001  0.3334  0.0599  0.1718
  169MOL    H3020526   3.651   9.172   6.055  0.2946 -0.9179 -1.4785
  169MOL    H3120527   3.682   0.160   6.066  0.5148 -0.4232  0.6050
  169MOL    C3220528   3.485   0.118   6.010  0.3385 -0.0350  0.0991
  169MOL   Cl3320529   3.380   0.001   5.942  0.1123 -0.0396  0.5566
  169MOL   Cl3420530   3.440   0.268   5.928 -0.3187 -0.0226  0.4937
  169MOL    C3520531   3.432   0.113   6.163  0.8628  0.3356  0.1324
  169MOL    H3620532   3.330   0.152   6.157 -0.2320 -2.3704  0.2242
  169MOL    H3720533   3.414   0.013   6.204 -0.3132 -0.7711 -2.9590
  169MOL    C3820534   3.493   0.205   6.276 -0.0971  0.8358 -0.4501
  169MOL   Cl3920535   3.567   0.352   6.212 -0.0515 -0.2895 -0.3773
  169MOL   Cl4020536   3.621   0.101   6.332 -0.1682  0.2919  0.0528
  169MOL    C4120537   3.408   0.231   6.397  0.1610 -0.2235 -0.4680
  169MOL    H4220538   3.384   0.131   6.434  0.3608 -0.1388 -0.1049
  169MOL    H4320539   3.479   0.283   6.462 -1.3773  0.2994  0.8312
  169MOL    C4420540   3.278   0.316   6.396 -0.1074 -0.1601  0.0480
  169MOL   Cl4520541   3.141   0.213   6.340 -0.0965  0.2489  0.0307
  169MOL   Cl4620542   3.292   0.458   6.277 -0.6429 -0.1931 -0.5796
  169MOL    C4720543   3.252   0.383   6.534  0.3385  0.4519  0.1703
  169MOL    H4820544   3.317   0.468   6.554  0.7290  0.0728  0.5305
  169MOL    H4920545   3.165   0.444   6.510  0.1927  0.1378 -0.1099
  169MOL    C5020546   3.232   0.307   6.666  0.1085  0.4457 -0.8515
  169MOL   Cl5120547   3.384   0.254   6.741 -0.2711  0.2861  0.0361
  169MOL   Cl5220548   3.124   0.158   6.657 -0.1010  0.0845 -0.3554
  169MOL    C5320549   3.172   0.412   6.770  0.3212 -0.1649  0.4151
  169MOL    H5420550   3.208   0.380   6.868  1.1542  2.3371  0.9575
  169MOL    H5520551   3.228   0.506   6.761  1.3409 -0.6422  1.6257
  169MOL    C5620552   3.024   0.451   6.780  0.3116  0.2992 -0.6373
  169MOL   Cl5720553   2.944   0.476   6.621 -0.2603  0.0822  0.0913
  169MOL   Cl5820554   3.010   0.612   6.857 -0.0452  0.3121  0.1506
  169MOL    C5920555   2.932   0.345   6.860  0.1764  0.7171  0.5984
  169MOL    H6020556   2.832   0.387   6.857  0.7787  2.1080 -0.4676
  169MOL    H6120557   2.927   0.252   6.803 -1.2451  0.0003  1.8504
  169MOL    C6220558   2.970   0.284   7.003  0.0091  0.0685  0.3733
  169MOL   Cl6320559   3.066   0.404   7.093 -0.0405 -0.1854 -0.4302
  169MOL   Cl6420560   3.064   0.133   6.978 -0.1724 -0.1271 -0.1613
  169MOL    C6520561   2.840   0.255   7.080  0.2806 -0.0420  0.5318
  169MOL    H6620562   2.782   0.347   7.069 -0.3845 -0.3148  1.6741
  169MOL    H6720563   2.786   0.182   7.019  1.1324  0.2774 -0.6168
  169MOL    C6820564   2.839   0.216   7.230  0.4509  0.1535  0.8619
  169MOL   Cl6920565   2.890   0.048   7.233 -0.1951 -0.1065  0.2715
  169MOL   Cl7020566   2.670   0.218   7.270  0.2623 -0.1220 -0.1198
  169MOL    C7120567   2.920   0.304   7.329  1.0050  0.4741 -0.0711
  169MOL    H7220568   3.022   0.279   7.302  1.0462  1.5969 -0.9784
  169MOL    H7320569   2.900   0.406   7.295  1.2098  0.9603  1.2148
  169MOL    C7420570   2.909   0.309   7.484 -0.2608 -0.7646 -0.5866
  169MOL   Cl7520571   3.020   0.435   7.540  0.4253  0.2021 -0.1729
  169MOL   Cl7620572   2.986   0.152   7.548 -0.1584 -0.0333  0.0238
  169MOL    C7720573   2.765   0.328   7.551 -0.3072  0.5665  0.1000
  169MOL    H7820574   2.718   0.416   7.506  1.5296 -0.0880 -3.2898
  169MOL    H7920575   2.704   0.242   7.522  3.4850 -0.9013 -4.0603
  169MOL    C8020576   2.743   0.348   7.700  0.0370 -0.5796 -1.0442
  169MOL   Cl8120577   2.567   0.377   7.713 -0.0592  0.5619 -0.0728
  169MOL   Cl8220578   2.825   0.496   7.755  0.0831  0.3112 -0.0773
  169MOL    C8320579   2.788   0.220   7.788 -0.4374 -0.4997 -0.3738
  169MOL    H8420580   2.759   0.129   7.737 -2.6635  0.3563 -0.6784
  169MOL    H8520581   2.897   0.220   7.796 -0.2512  0.8770 -2.5172
  169MOL    C8620582   2.743   0.217   7.936  0.1068 -0.1690  0.2500
  169MOL   Cl8720583   2.830   0.096   8.028 -0.1204  0.2264  0.3361
  169MOL   Cl8820584   2.576   0.144   7.926  0.2705 -0.0987 -0.3017
  169MOL    C8920585   2.744   0.347   8.027  0.7270  0.0352  0.4044
  169MOL    H9020586   2.685   0.418   7.970  0.7157 -1.2518 -1.2483
  169MOL    H9120587   2.689   0.314   8.114  0.5746  1.6098  0.9030
  169MOL    C9220588   2.875   0.408   8.079 -0.0327 -1.1838 -0.1720
  169MOL   Cl9320589   2.839   0.584   8.085  0.0507 -0.3574  0.1563
  169MOL   Cl9420590   3.017   0.391   7.965  0.0028 -0.2301  0.1216
  169MOL    C9520591   2.906   0.360   8.220 -0.3211  0.1467  0.2357
  169MOL    H9620592   2.820   0.392   8.279 -0.9977 -0.3309 -0.4741
  169MOL    H9720593   2.922   0.252   8.216  0.0676  0.1280  2.0179
  169MOL    C9820594   3.031   0.405   8.311  0.3356  0.3280  0.2810
  169MOL   Cl9920595   3.026   0.583   8.338 -0.5503  0.1628  0.1261
  169MOL  Cl10020596   3.186   0.367   8.225 -0.4447  0.7204  0.0128
  169MOL   C10120597   3.040   0.348   8.457  0.2771 -0.4557  0.3615
  169MOL   H10220598   3.137   0.374   8.498 -0.1181 -1.3420  1.8956
  169MOL   H10320599   2.974   0.399   8.526  1.3238 -0.3620  1.3005
  169MOL   C10420600   3.011   0.195   8.486 -0.6547  0.0858 -0.1961
  169MOL  Cl10520601   3.101   0.098   8.367 -0.3539 -0.2254 -0.0261
  169MOL  Cl10620602   2.841   0.160   8.472 -0.0391  0.5672 -0.0591
  169MOL   C10720603   3.052   0.173   8.638 -0.0097 -0.0720  0.1200
  169MOL   H10820604   3.150   0.219   8.646  0.4969 -1.3439  1.4612
  169MOL   H10920605   2.992   0.247   8.692 -1.5664 -1.4692  0.3357
  169MOL   C11020606   3.044   0.041   8.712 -0.5306 -0.7040  0.3555
  169MOL  Cl11120607   3.099   9.091   8.606  0.1238  0.2979  0.0187
  169MOL  Cl11220608   2.875   0.002   8.765  0.2319  0.2418  0.8049
  169MOL   C11320609   3.111   0.032   8.853 -0.8121  0.3623 -0.0920
  169MOL   H11420610   3.054   0.083   8.930  0.6894  2.9529 -0.6446
  169MOL   H11520611   3.114   9.106   8.878 -0.6379  0.3647 -0.1099
  169MOL   C11620612   3.256   0.083   8.874 -0.2300  0.1261  0.0819
  169MOL  Cl11720613   3.258   0.258   8.900 -0.4864  0.3448  0.0827
  169MOL  Cl11820614   3.369   0.049   8.743  0.3862 -0.1822 -0.0579
  169MOL   C11920615   3.317   0.028   9.007  0.1815 -0.5328  0.5708
  169MOL   H12020616   3.262   0.056   9.096 -1.9929 -0.6492 -0.7134
  169MOL   H12120617   3.337   9.101   9.009  0.4416 -0.4828  0.7572
  169MOL   H12220618   3.422   0.054   9.020  0.6593 -2.0771 -0.0482
  170MOL     C120619   8.565   4.684   0.121  0.2511  0.5355  0.0169
  170MOL    Cl220620   8.396   4.727   0.140 -0.2489  0.0931  0.2958
  170MOL    Cl320621   8.628   4.646   0.282 -0.2579 -0.0205 -0.2297
  170MOL     C420622   8.600   4.560   0.028  0.1566 -0.1667 -0.5010
  170MOL     H520623   8.706   4.538   0.039 -0.1657 -0.9180  1.2643
  170MOL     H620624   8.556   4.470   0.071  0.3625  0.1432  0.3796
  170MOL     H720625   8.614   4.776   0.090 -0.0757  1.0482  1.0155
  170MOL     C820626   8.556   4.558   9.056 -0.7359  0.5759  0.1607
  170MOL    Cl920627   8.594   4.719   8.986  0.0846 -0.1883  0.0996
  170MOL   Cl1020628   8.378   4.539   9.045 -0.0209  0.2676  0.0533
  170MOL    C1120629   8.627   4.458   8.972  0.0826  0.2591 -0.1720
  170MOL    H1220630   8.594   4.487   8.873 -3.3140 -0.8892  0.5562
  170MOL    H1320631   8.731   4.492   8.978  0.0392  0.3993 -0.2255
  170MOL    C1420632   8.631   4.305   8.988  0.0589 -0.8829  0.2644
  170MOL   Cl1520633   8.466   4.235   9.016 -0.2697 -0.0323  0.3028
  170MOL   Cl1620634   8.727   4.272   9.140 -0.5693 -0.2934  0.0897
  170MOL    C1720635   8.685   4.228   8.860  0.6004 -0.4463 -0.6727
  170MOL    H1820636   8.658   4.123   8.874 -1.1504  0.3103  2.1658
  170MOL    H1920637   8.621   4.254   8.776  2.2001  4.5433 -0.5200
  170MOL    C2020638   8.831   4.235   8.804 -0.2386 -0.1107 -0.0229
  170MOL   Cl2120639   8.941   4.170   8.935 -0.1140 -0.0469  0.0496
  170MOL   Cl2220640   8.874   4.408   8.785  0.2636  0.2641 -0.0774
  170MOL    C2320641   8.857   4.162   8.672  0.0587  0.1761  0.6189
  170MOL    H2420642   8.824   4.220   8.586 -0.8486 -1.6569 -0.3003
  170MOL    H2520643   8.966   4.155   8.663  0.1047  3.1248 -1.7527
  170MOL    C2620644   8.797   4.023   8.633 -0.6278  0.2806 -0.2478
  170MOL   Cl2720645   8.850   3.993   8.465  0.0384 -0.1282  0.0722
  170MOL   Cl2820646   8.623   4.040   8.618  0.4054  0.0961 -0.3638
  170MOL    C2920647   8.846   3.915   8.740  0.7163 -0.2703  0.3692
  170MOL    H3020648   8.955   3.909   8.743  0.7150 -0.1768  0.6172
  170MOL    H3120649   8.822   3.951   8.840 -0.8495  1.3597 -0.5770
  170MOL    C3220650   8.782   3.773   8.741  0.9784 -0.4190 -0.3611
  170MOL   Cl3320651   8.609   3.780   8.776  0.3155 -0.1076  0.5415
  170MOL   Cl3420652   8.859   3.693   8.883  0.0855 -0.2266 -0.3705
  170MOL    C3520653   8.811   3.683   8.613  0.7584  0.4100 -0.6836
  170MOL    H3620654   8.739   3.602   8.627  1.6937 -0.6120 -1.6972
  170MOL    H3720655   8.784   3.743   8.526 -0.5768  0.6701 -0.1092
  170MOL    C3820656   8.949   3.620   8.576 -0.0681  1.0356 -0.0325
  170MOL   Cl3920657   8.991   3.477   8.678  0.1826 -0.1994 -0.0201
  170MOL   Cl4020658   9.082   3.734   8.590 -0.5878 -0.1484  0.0275
  170MOL    C4120659   8.943   3.568   8.431 -0.2264  0.0774 -0.6891
  170MOL    H4220660   8.924   3.653   8.365  2.0732  0.2556 -1.1623
  170MOL    H4320661   9.045   3.534   8.412  0.0427  0.5445 -0.1028
  170MOL    C4420662   8.835   3.463   8.381 -0.1427 -0.0100 -0.4224
  170MOL   Cl4520663   8.894   3.423   8.215  0.1728 -0.0327 -0.3296
  170MOL   Cl4620664   8.677   3.540   8.364 -0.3716 -0.0838  0.5545
  170MOL    C4720665   8.814   3.329   8.461 -0.4535  0.9259  0.0149
  170MOL    H4820666   8.913   3.282   8.461 -1.2556 -0.8509 -1.5018
  170MOL    H4920667   8.790   3.344   8.567 -2.9451 -0.6654 -0.2846
  170MOL    C5020668   8.714   3.216   8.402 -0.2880 -0.3253 -0.2014
  170MOL   Cl5120669   8.652   3.237   8.230 -0.2281 -0.0882  0.3624
  170MOL   Cl5220670   8.564   3.196   8.494 -0.0918 -0.1408 -0.3546
  170MOL    C5320671   8.787   3.073   8.393 -0.1114  0.2404 -0.1070
  170MOL    H5420672   8.736   3.001   8.329  0.9434  0.1527 -0.8533
  170MOL    H5520673   8.880   3.096   8.342  0.8360 -0.9012  1.0619
  170MOL    C5620674   8.826   2.994   8.525  0.4964  0.6982 -0.1795
  170MOL   Cl5720675   8.687   2.918   8.605  0.2607  0.2853 -0.0859
  170MOL   Cl5820676   8.890   3.108   8.648  0.3055  0.1418 -0.8525
  170MOL    C5920677   8.936   2.894   8.483 -0.0928 -0.4284 -0.6284
  170MOL    H6020678   8.904   2.863   8.384 -2.4992  0.7338 -0.2560
  170MOL    H6120679   9.025   2.948   8.455  1.0008 -1.5709  0.5581
  170MOL    C6220680   8.976   2.766   8.574 -0.1417  0.0387 -0.1789
  170MOL   Cl6320681   9.123   2.689   8.506  0.3133  0.4122  0.1359
  170MOL   Cl6420682   8.838   2.659   8.561 -0.2957  0.0140 -0.1039
  170MOL    C6520683   8.999   2.792   8.727  0.3615  0.3956 -0.5461
  170MOL    H6620684   8.907   2.839   8.763  0.8267  0.6513  0.3235
  170MOL    H6720685   8.999   2.692   8.770  0.2139  0.5908 -0.0828
  170MOL    C6820686   9.130   2.864   8.791 -0.2389  0.0457 -0.6320
  170MOL   Cl6920687   0.007   3.011   8.700 -0.0176  0.2203 -0.4145
  170MOL   Cl7020688   0.083   2.743   8.788  0.3114  0.2326  0.5025
  170MOL    C7120689   9.121   2.876   8.950  0.2954  0.4081 -0.2220
  170MOL    H7220690   9.080   2.786   8.995  0.6968  1.2120  1.8063
  170MOL    H7320691   0.046   2.872   8.979  1.1426  2.9199 -2.7666
  170MOL    C7420692   9.032   2.974   9.027 -0.0915 -0.1454  0.0253
  170MOL   Cl7520693   9.062   2.945   0.020 -0.2243  0.0423 -0.2768
  170MOL   Cl7620694   8.862   2.935   8.989 -0.1622 -0.2824  0.4599
  170MOL    C7720695   9.069   3.127   8.992 -0.7572  0.1186  0.1695
  170MOL    H7820696   9.170   3.152   9.025  0.7006 -1.5751 -2.7800
  170MOL    H7920697   9.068   3.137   8.884  0.3539 -0.4572  0.0925
  170MOL    C8020698   8.981   3.254   9.027  0.0988  0.1015  0.1157
  170MOL   Cl8120699   8.838   3.269   8.917  0.0263  0.5794  0.1440
  170MOL   Cl8220700   9.091   3.389   8.993  0.1199  0.4839 -0.2364
  170MOL    C8320701   8.946   3.252   9.180 -0.2825 -1.0965  0.2080
  170MOL    H8420702   8.876   3.169   9.175 -0.7903 -0.6692  0.2241
  170MOL    H8520703   9.023   3.206   0.062 -0.9684 -2.7208 -0.1149
  170MOL    C8620704   8.892   3.377   0.072 -0.0376 -0.6300  0.4604
  170MOL   Cl8720705   8.783   3.321   0.203  0.0919  0.1099 -0.0940
  170MOL   Cl8820706   8.799   3.487   9.139 -0.7151 -0.1238 -0.0529
  170MOL    C8920707   9.017   3.450   0.146  0.1280 -0.0104  0.5424
  170MOL    H9020708   9.037   3.384   0.230 -1.1218  1.5563  2.1151
  170MOL    H9120709   9.106   3.444   0.084  0.4210  2.3713  0.6792
  170MOL    C9220710   9.005   3.600   0.204  0.1081  1.0579  0.7131
  170MOL   Cl9320711   9.143   3.606   0.314 -0.1925  0.1453  0.0340
  170MOL   Cl9420712   8.857   3.612   0.289  0.2464 -0.2196  0.3539
  170MOL    C9520713   9.022   3.709   0.092  0.2704  0.5217  0.5482
  170MOL    H9620714   9.059   3.655   0.005  1.4610 -0.8947  1.8902
  170MOL    H9720715   8.919   3.739   0.074  1.1220  2.2906 -1.6729
  170MOL    C9820716   9.098   3.841   0.108 -0.3261  1.1424 -0.0934
  170MOL   Cl9920717   9.059   3.920   9.133  0.2211 -0.2002  0.4426
  170MOL  Cl10020718   0.099   3.798   0.109 -0.2623 -0.0869  0.0200
  170MOL   C10120719   9.052   3.920   0.231  0.2098 -0.1207 -0.4117
  170MOL   H10220720   8.945   3.920   0.250  0.3077 -0.3246  0.1284
  170MOL   H10320721   9.079   3.866   0.321 -0.9716  0.5917  0.3933
  170MOL   C10420722   9.091   4.073   0.269 -0.3897  0.2281  0.4162
  170MOL  Cl10520723   9.005   4.189   0.167  0.3430 -0.1336 -0.0070
  170MOL  Cl10620724   0.084   4.078   0.233  0.3796 -0.1083 -0.1381
  170MOL   C10720725   9.069   4.109   0.425  0.4375 -0.2125  0.0545
  170MOL   H10820726   9.134   4.044   0.484 -0.1442 -0.9730 -0.1353
  170MOL   H10920727   9.099   4.210   0.452 -1.8533  0.1352  1.4043
  170MOL   C11020728   8.928   4.077   0.489 -0.6398  0.2727  0.7031
  170MOL  Cl11120729   8.930   4.144   0.655 -0.0061  0.0934  0.0075
  170MOL  Cl11220730   8.914   3.902   0.511 -0.0253  0.1798 -0.1506
  170MOL   C11320731   8.795   4.125   0.421 -0.2027  0.6289 -0.0683
  170MOL   H11420732   8.808   4.099   0.316 -0.2015 -0.0109  0.0863
  170MOL   H11520733   8.715   4.055   0.446  1.0120 -0.2217  1.5810
  170MOL   C11620734   8.732   4.268   0.428  0.7985 -0.0675 -0.8549
  170MOL  Cl11720735   8.621   4.279   0.286 -0.1586 -0.0677  0.0707
  170MOL  Cl11820736   8.868   4.387   0.431  0.5201 -0.0679  0.3686
  170MOL   C11920737   8.650   4.299   0.552  0.2005  0.1809 -0.2047
  170MOL   H12020738   8.592   4.213   0.585  0.6934  0.7122  2.1867
  170MOL   H12120739   8.705   4.320   0.644 -3.5922 -0.5392  2.3336
  170MOL   H12220740   8.584   4.383   0.531  0.3148  0.4571  0.4939
  171MOL     C120741   1.069   8.209   2.028 -0.3917 -0.6607 -0.9030
  171MOL    Cl220742   0.963   8.348   2.063  0.2379 -0.0403 -0.2210
  171MOL    Cl320743   1.228   8.236   2.115  0.0750  0.2645 -0.3881
  171MOL     C420744   1.016   8.075   2.079 -0.4472  0.1296 -0.2648
  171MOL     H520745   1.090   8.002   2.045 -0.7750 -0.0819 -0.5284
  171MOL     H620746   1.006   8.072   2.187  0.2763 -1.1443 -0.2183
  171MOL     H720747   1.087   8.215   1.920 -0.0609 -0.7165 -0.8496
  171MOL     C820748   0.884   8.026   2.020  0.0018  0.0474 -0.3704
  171MOL    Cl920749   0.873   7.847   2.044 -0.0713  0.5649 -0.2373
  171MOL   Cl1020750   0.891   8.053   1.838 -0.1073  0.0001 -0.1788
  171MOL    C1120751   0.744   8.083   2.080  0.7573 -0.6603 -0.3569
  171MOL    H1220752   0.732   8.179   2.029 -0.1579 -0.8777 -0.5500
  171MOL    H1320753   0.661   8.026   2.039 -0.0728 -0.3623  0.8939
  171MOL    C1420754   0.714   8.092   2.235  0.7994  0.1570  1.0806
  171MOL   Cl1520755   0.801   8.226   2.308 -0.5561  0.1299  0.0005
  171MOL   Cl1620756   0.777   7.946   2.318 -0.6393 -0.0387 -0.1385
  171MOL    C1720757   0.570   8.120   2.282 -0.2622  0.5233  0.5516
  171MOL    H1820758   0.566   8.081   2.383 -0.9831  1.9354  1.0957
  171MOL    H1920759   0.561   8.229   2.281 -1.1512  0.4600  1.4015
  171MOL    C2020760   0.454   8.057   2.214  0.1097  0.8681 -0.0313
  171MOL   Cl2120761   0.477   7.879   2.216 -0.2012 -0.6086  0.1077
  171MOL   Cl2220762   0.440   8.099   2.043 -0.4353  0.0503 -0.0409
  171MOL    C2320763   0.313   8.092   2.282 -0.5269  0.5397  1.1055
  171MOL    H2420764   0.280   8.190   2.247 -0.4129  0.9682  2.1757
  171MOL    H2520765   0.245   8.018   2.241  0.4836  1.0823 -1.6914
  171MOL    C2620766   0.285   8.084   2.434 -0.2942 -0.5496  0.2110
  171MOL   Cl2720767   0.385   8.193   2.529  0.1118 -0.0712  0.2262
  171MOL   Cl2820768   0.326   7.929   2.504  0.1319 -0.3151 -0.3754
  171MOL    C2920769   0.131   8.104   2.475 -0.5267 -0.3854 -0.2219
  171MOL    H3020770   0.073   8.015   2.451  0.4882 -0.6862 -1.6101
  171MOL    H3120771   0.135   8.116   2.584 -0.8490 -1.8107 -0.0373
  171MOL    C3220772   0.042   8.230   2.435 -0.6227  0.2004  0.2158
  171MOL   Cl3320773   9.167   8.202   2.276  0.2103  0.1976  0.0850
  171MOL   Cl3420774   0.150   8.376   2.440 -0.2022 -0.0124 -0.2494
  171MOL    C3520775   9.092   8.252   2.522  0.2092 -0.0921 -0.8930
  171MOL    H3620776   9.044   8.347   2.496 -2.3252 -0.6080  1.5071
  171MOL    H3720777   9.020   8.182   2.480  2.2079 -1.8748 -1.3976
  171MOL    C3820778   9.087   8.241   2.677 -0.1549  0.3166 -0.2851
  171MOL   Cl3920779   0.060   8.313   2.737  0.2265  0.1459 -0.0745
  171MOL   Cl4020780   9.073   8.074   2.731 -0.0085  0.1977 -0.0366
  171MOL    C4120781   8.955   8.308   2.734  0.0521 -0.7611 -0.4611
  171MOL    H4220782   8.979   8.324   2.839  0.5836 -1.9724 -0.3958
  171MOL    H4320783   8.943   8.407   2.689  1.4842 -0.7222 -0.7890
  171MOL    C4420784   8.806   8.264   2.720  0.5237  0.0250  0.3020
  171MOL   Cl4520785   8.793   8.110   2.817  0.0818 -0.2258 -0.0601
  171MOL   Cl4620786   8.762   8.229   2.548 -0.2547  0.1942  0.0375
  171MOL    C4720787   8.719   8.373   2.792 -0.1063  0.0924 -0.1027
  171MOL    H4820788   8.724   8.358   2.900 -1.0258  2.3244  0.2756
  171MOL    H4920789   8.772   8.468   2.782 -1.0155  0.3980 -2.2778
  171MOL    C5020790   8.578   8.416   2.744  0.1701 -0.8108 -0.4003
  171MOL   Cl5120791   8.516   8.514   2.883 -0.0405 -0.0473  0.4983
  171MOL   Cl5220792   8.477   8.280   2.722 -0.2669  0.3668  0.0430
  171MOL    C5320793   8.551   8.485   2.606 -0.0326 -0.3180  0.5082
  171MOL    H5420794   8.560   8.419   2.520 -0.4138 -0.3634  0.5044
  171MOL    H5520795   8.449   8.519   2.618  0.4928  0.9421  1.5041
  171MOL    C5620796   8.620   8.614   2.559  0.4771  0.0068  0.1685
  171MOL   Cl5720797   8.787   8.580   2.547  0.0575 -0.0716  0.0501
  171MOL   Cl5820798   8.603   8.742   2.683 -0.4443 -0.1868 -0.0697
  171MOL    C5920799   8.588   8.671   2.418  0.2070 -0.3454  0.4090
  171MOL    H6020800   8.649   8.761   2.410  0.9198 -0.5329  3.2358
  171MOL    H6120801   8.627   8.611   2.336  0.1084 -0.1849  0.2419
  171MOL    C6220802   8.448   8.719   2.380  0.1228  0.5496  0.4669
  171MOL   Cl6320803   8.374   8.835   2.493  0.3681 -0.3821  0.3381
  171MOL   Cl6420804   8.330   8.580   2.380 -0.0935 -0.4366 -0.1170
  171MOL    C6520805   8.454   8.782   2.233 -0.0056 -0.5735  0.0457
  171MOL    H6620806   8.484   8.886   2.247  2.0884 -0.5862 -3.4811
  171MOL    H6720807   8.531   8.739   2.168  1.2780  0.5283  0.8092
  171MOL    C6820808   8.336   8.785   2.129  0.2145  0.0828  0.5802
  171MOL   Cl6920809   8.311   8.627   2.047 -0.3279 -0.4899 -0.0458
  171MOL   Cl7020810   8.398   8.895   2.007  0.0446 -0.3406  0.1459
  171MOL    C7120811   8.202   8.837   2.185  0.1025  0.0310 -0.7764
  171MOL    H7220812   8.170   8.752   2.246 -2.3531  1.4269 -0.0250
  171MOL    H7320813   8.228   8.924   2.245 -2.1734  1.5415 -1.8793
  171MOL    C7420814   8.072   8.862   2.089 -0.7354  0.7618 -0.5614
  171MOL   Cl7520815   8.026   8.742   1.962  0.0939 -0.0735 -0.0825
  171MOL   Cl7620816   8.106   9.013   2.009  0.1529 -0.1094 -0.0519
  171MOL    C7720817   7.944   8.866   2.171 -0.9898 -0.2195  0.3301
  171MOL    H7820818   7.860   8.867   2.101 -1.1401 -1.4365  0.4829
  171MOL    H7920819   7.934   8.769   2.219  1.3593 -1.2025 -1.1061
  171MOL    C8020820   7.908   8.977   2.279  0.8522 -0.2943 -0.0302
  171MOL   Cl8120821   8.043   9.001   2.399  0.0032  0.1392 -0.0400
  171MOL   Cl8220822   7.777   8.902   2.377  0.4244 -0.2028 -0.0727
  171MOL    C8320823   7.862   9.118   2.224 -0.0673  0.0305 -0.2926
  171MOL    H8420824   7.946   9.176   2.187  0.1230 -0.2569 -0.3131
  171MOL    H8520825   7.807   9.087   2.135 -0.8191 -0.9587  0.4982
  171MOL    C8620826   7.791   0.047   2.308 -0.2525  0.0051  0.0276
  171MOL   Cl8720827   7.618   0.015   2.308  0.0897 -0.3072 -0.1795
  171MOL   Cl8820828   7.799   0.199   2.220  0.1343 -0.1606 -0.1812
  171MOL    C8920829   7.840   0.052   2.453 -0.1682 -0.1548  0.2776
  171MOL    H9020830   7.824   9.140   2.509 -1.0419  0.1514  0.5474
  171MOL    H9120831   7.947   0.064   2.435 -0.1854 -1.0054 -0.3801
  171MOL    C9220832   7.808   0.165   2.556  0.2684 -0.2868 -0.8965
  171MOL   Cl9320833   7.900   0.305   2.509  0.1969 -0.2471  0.5901
  171MOL   Cl9420834   7.884   0.092   2.702  0.3927 -0.0561  0.0375
  171MOL    C9520835   7.652   0.194   2.564 -0.1735  0.6786  0.9590
  171MOL    H9620836   7.637   0.242   2.467 -0.8735 -0.1353  0.6623
  171MOL    H9720837   7.588   0.106   2.565  0.1077  0.4863  2.8782
  171MOL    C9820838   7.590   0.262   2.685 -0.4107 -0.6155 -0.1754
  171MOL   Cl9920839   7.676   0.409   2.723 -0.2503  0.0645  0.0895
  171MOL  Cl10020840   7.614   0.162   2.831 -0.1751 -0.2124  0.1400
  171MOL   C10120841   7.445   0.318   2.687 -0.1136 -0.3221  0.6228
  171MOL   H10220842   7.432   0.359   2.787  0.2922  0.3358  0.4085
  171MOL   H10320843   7.437   0.406   2.623 -1.2294 -1.6282 -1.0902
  171MOL   C10420844   7.325   0.219   2.658  0.3046  1.0091  0.1390
  171MOL  Cl10520845   7.326   0.082   2.769 -0.0161  0.0544 -0.1025
  171MOL  Cl10620846   7.328   0.153   2.487  0.0691  0.0372 -0.0591
  171MOL   C10720847   7.190   0.284   2.671 -0.0217  1.0217  0.6089
  171MOL   H10820848   7.114   0.214   2.637 -0.1368  1.6072 -0.3436
  171MOL   H10920849   7.172   0.300   2.778  0.7024 -0.4883  0.9716
  171MOL   C11020850   7.156   0.427   2.614 -0.3460 -0.8518  0.4686
  171MOL  Cl11120851   7.216   0.464   2.447  0.3969  0.2353 -0.2354
  171MOL  Cl11220852   7.234   0.564   2.698 -0.2292 -0.0985 -0.2055
  171MOL   C11320853   7.000   0.449   2.609 -0.3501 -0.2703  0.4609
  171MOL   H11420854   6.985   0.547   2.566 -2.5769 -1.0850 -0.7359
  171MOL   H11520855   6.961   0.380   2.534 -1.0275  0.3774  0.2141
  171MOL   C11620856   6.921   0.456   2.745 -0.9033  0.3366 -0.2648
  171MOL  Cl11720857   6.983   0.566   2.865 -0.0717 -0.2949 -0.0548
  171MOL  Cl11820858   6.908   0.285   2.801 -0.2323  0.1616 -0.0763
  171MOL   C11920859   6.776   0.505   2.734  0.2178  0.6879  0.1461
  171MOL   H12020860   6.719   0.425   2.688  2.2543 -0.2275 -0.8641
  171MOL   H12120861   6.731   0.521   2.832  0.0837  1.0475  0.0269
  171MOL   H12220862   6.755   0.600   2.686  0.3688  0.8380  0.3752
  172MOL     C120863   3.761   8.034   8.378  0.5507  0.0443  0.0553
  172MOL    Cl220864   3.720   7.956   8.528 -0.1366  0.0360  0.5149
  172MOL    Cl320865   3.600   8.033   8.282 -0.1757 -0.0112 -0.6341
  172MOL     C420866   3.812   8.181   8.416  0.4220 -0.2659  0.6701
  172MOL     H520867   3.729   8.238   8.459  0.5112  0.8938 -0.6547
  172MOL     H620868   3.894   8.166   8.486  2.3122  0.5421 -1.3248
  172MOL     H720869   3.837   7.975   8.328  0.8103  0.3449  0.0958
  172MOL     C820870   3.869   8.265   8.300  0.0977 -0.1407  0.0856
  172MOL    Cl920871   3.738   8.293   8.183  0.4433 -0.3227  0.0515
  172MOL   Cl1020872   3.995   8.171   8.219  0.0821  0.2002  0.0561
  172MOL    C1120873   3.949   8.399   8.339  0.5613  0.1495 -0.0931
  172MOL    H1220874   4.048   8.376   8.381 -0.6950 -2.2561  1.6728
  172MOL    H1320875   3.969   8.460   8.251  0.2444 -1.0955 -1.0374
  172MOL    C1420876   3.890   8.505   8.441  0.1787  0.2613 -0.6333
  172MOL   Cl1520877   4.011   8.637   8.431 -0.4309 -0.2116  0.0157
  172MOL   Cl1620878   3.896   8.420   8.597  0.0191 -0.3346  0.0784
  172MOL    C1720879   3.750   8.561   8.394  0.5715 -1.3343  0.0844
  172MOL    H1820880   3.767   8.600   8.294 -0.3557  0.8909  0.7590
  172MOL    H1920881   3.687   8.479   8.360 -0.9748 -0.4375  0.7234
  172MOL    C2020882   3.668   8.650   8.492 -0.5993  0.5326 -0.4357
  172MOL   Cl2120883   3.777   8.750   8.590 -0.4569 -0.1610  0.3925
  172MOL   Cl2220884   3.591   8.539   8.605 -0.5595 -0.5339  0.2044
  172MOL    C2320885   3.567   8.732   8.406 -0.3090 -0.2177 -0.1558
  172MOL    H2420886   3.625   8.807   8.352  0.0728 -0.3367  0.0921
  172MOL    H2520887   3.532   8.664   8.328  1.0745 -0.3980 -0.6319
  172MOL    C2620888   3.452   8.811   8.469  0.0283  0.5980  0.2561
  172MOL   Cl2720889   3.501   8.890   8.618  0.4671 -0.4870  0.2179
  172MOL   Cl2820890   3.331   8.694   8.512 -0.0751  0.2536  0.5245
  172MOL    C2920891   3.404   8.932   8.389  0.0835 -0.0878 -0.2493
  172MOL    H3020892   3.311   8.968   8.433 -0.7325 -0.9845 -1.2288
  172MOL    H3120893   3.470   9.019   8.391 -0.2323  0.1308  1.5290
  172MOL    C3220894   3.370   8.909   8.239  0.1465 -0.5656  0.0266
  172MOL   Cl3320895   3.251   8.773   8.212 -0.3906  0.1556  0.4247
  172MOL   Cl3420896   3.516   8.877   8.140  0.0707 -0.1857  0.2399
  172MOL    C3520897   3.302   9.044   8.184  0.3790  0.2360  0.1233
  172MOL    H3620898   3.223   9.066   8.257  0.4387 -0.2803  0.3407
  172MOL    H3720899   3.376   9.123   8.194  0.0041  1.2618 -4.4553
  172MOL    C3820900   3.231   9.059   8.043 -0.2082  0.7407 -0.0560
  172MOL   Cl3920901   3.180   0.053   8.033 -0.1901  0.1258 -0.2375
  172MOL   Cl4020902   3.088   8.960   8.034  0.1515  0.3182 -0.4234
  172MOL    C4120903   3.327   9.018   7.919 -0.2872  0.1445  0.2029
  172MOL    H4220904   3.416   9.080   7.932  0.8638 -1.1321 -1.4405
  172MOL    H4320905   3.357   8.913   7.927 -1.1399 -0.0689  0.6802
  172MOL    C4420906   3.289   9.058   7.774  0.3098  0.1240 -0.3867
  172MOL   Cl4520907   3.419   8.986   7.674  0.1118 -0.2873 -0.1683
  172MOL   Cl4620908   3.300   0.061   7.760  0.2851  0.1759  0.3781
  172MOL    C4720909   3.144   9.012   7.729  0.3192  0.5269  0.6083
  172MOL    H4820910   3.072   9.050   7.802 -0.1280 -1.1994  1.0859
  172MOL    H4920911   3.126   9.075   7.642  1.3844 -0.6033 -0.4495
  172MOL    C5020912   3.119   8.866   7.684  0.1221  0.4151  0.1074
  172MOL   Cl5120913   3.214   8.754   7.791  0.0769 -0.0891  0.1456
  172MOL   Cl5220914   3.168   8.860   7.516 -0.2955  0.4522 -0.3059
  172MOL    C5320915   2.966   8.820   7.704 -0.1728  0.2298  0.5288
  172MOL    H5420916   2.944   8.714   7.689  0.8332 -0.1306  1.4399
  172MOL    H5520917   2.958   8.826   7.813 -1.7557 -0.2205  0.4405
  172MOL    C5620918   2.839   8.905   7.649 -0.3989  0.7503 -0.6626
  172MOL   Cl5720919   2.874   8.944   7.474 -0.0480  0.0931  0.0550
  172MOL   Cl5820920   2.822   9.051   7.759 -0.0198  0.0981  0.2723
  172MOL    C5920921   2.724   8.809   7.651  0.0603  0.3608 -0.3171
  172MOL    H6020922   2.739   8.724   7.585  0.3247  0.0676  0.1272
  172MOL    H6120923   2.729   8.752   7.743 -2.2306 -0.4304 -0.6349
  172MOL    C6220924   2.572   8.852   7.639 -0.4438  0.2295  0.1791
  172MOL   Cl6320925   2.527   8.910   7.475 -0.1941  0.2470 -0.1641
  172MOL   Cl6420926   2.530   8.969   7.761 -0.0380 -0.1214 -0.4256
  172MOL    C6520927   2.493   8.720   7.663 -0.9273 -0.0120  0.1226
  172MOL    H6620928   2.533   8.644   7.595  0.2815  0.6890  0.0291
  172MOL    H6720929   2.515   8.684   7.763 -0.3085 -1.5808 -0.5585
  172MOL    C6820930   2.342   8.703   7.652  0.2704 -0.3230 -0.2417
  172MOL   Cl6920931   2.307   8.530   7.686  0.0179  0.1654 -0.3557
  172MOL   Cl7020932   2.272   8.730   7.491  0.0823 -0.0309  0.2591
  172MOL    C7120933   2.269   8.796   7.744 -0.0362  0.0045 -0.0710
  172MOL    H7220934   2.322   8.802   7.839 -0.5355 -0.4106  0.2361
  172MOL    H7320935   2.266   8.894   7.696 -3.0206  0.7140  1.4324
  172MOL    C7420936   2.118   8.770   7.793 -0.1666 -0.0915 -0.3949
  172MOL   Cl7520937   2.084   8.917   7.891 -0.0586  0.1746 -0.1440
  172MOL   Cl7620938   2.140   8.638   7.906  0.4504  0.0323  0.1782
  172MOL    C7720939   2.018   8.724   7.684 -0.1257  0.1636  0.3051
  172MOL    H7820940   2.052   8.787   7.602  0.0098 -0.1392  0.1288
  172MOL    H7920941   2.042   8.621   7.659 -0.7850  0.1717 -0.3532
  172MOL    C8020942   1.869   8.753   7.702  0.6830 -0.1959  0.1658
  172MOL   Cl8120943   1.833   8.927   7.723 -0.0937  0.2312  0.2293
  172MOL   Cl8220944   1.817   8.671   7.857  0.1116  0.6876  0.1728
  172MOL    C8320945   1.787   8.693   7.580 -0.3428  0.6787  0.0037
  172MOL    H8420946   1.807   8.586   7.582  2.0532  1.1197  0.6973
  172MOL    H8520947   1.681   8.698   7.607 -0.2406 -1.2088  0.8427
  172MOL    C8620948   1.819   8.721   7.431  0.2790 -0.1139 -0.0579
  172MOL   Cl8720949   1.944   8.616   7.371  0.3645  0.2834 -0.2703
  172MOL   Cl8820950   1.851   8.895   7.405  0.3261 -0.4040  0.0241
  172MOL    C8920951   1.689   8.691   7.358 -0.7514 -0.1585  0.7153
  172MOL    H9020952   1.648   8.605   7.411  0.0440  0.2247  1.9752
  172MOL    H9120953   1.623   8.769   7.397 -0.1306  0.0836  1.2918
  172MOL    C9220954   1.682   8.679   7.204 -0.3084  0.2879  0.2892
  172MOL   Cl9320955   1.509   8.699   7.163  0.1567  0.0178  0.0470
  172MOL   Cl9420956   1.719   8.511   7.158 -0.2989 -0.5061 -0.1807
  172MOL    C9520957   1.761   8.788   7.129 -0.9578 -0.8022  0.4038
  172MOL    H9620958   1.719   8.883   7.163  1.4709 -0.4002  2.4232
  172MOL    H9720959   1.864   8.787   7.163 -0.4007  1.8468 -1.0365
  172MOL    C9820960   1.782   8.795   6.972 -0.3227 -0.3907 -0.9000
  172MOL   Cl9920961   1.643   8.722   6.887 -0.1780  0.1502  0.5302
  172MOL  Cl10020962   1.926   8.698   6.941 -0.2003  0.4445 -0.1312
  172MOL   C10120963   1.809   8.939   6.921 -0.1229 -0.5923  0.4468
  172MOL   H10220964   1.726   8.999   6.957  1.3614  1.0930  1.1524
  172MOL   H10320965   1.905   8.968   6.965  0.3078  2.2576 -2.1833
  172MOL   C10420966   1.829   8.981   6.769  0.1519 -0.0299  0.1138
  172MOL  Cl10520967   1.678   8.937   6.678 -0.0406 -0.7298 -0.1225
  172MOL  Cl10620968   1.962   8.897   6.690  0.4889 -0.2203  0.0428
  172MOL   C10720969   1.862   9.132   6.749 -0.2458 -0.4977 -0.5832
  172MOL   H10820970   1.962   9.147   6.790 -0.7142  2.3408 -0.3512
  172MOL   H10920971   1.857   9.157   6.643  0.9285  1.0448 -0.2890
  172MOL   C11020972   1.768   0.062   6.814  0.0334 -0.4563  0.1326
  172MOL  Cl11120973   1.780   0.062   6.989 -0.3651 -0.3587 -0.1253
  172MOL  Cl11220974   1.592   0.038   6.768 -0.2413 -0.2725  0.0541
  172MOL   C11320975   1.817   0.203   6.787  0.3492  0.7181  0.6351
  172MOL   H11420976   1.737   0.265   6.827  0.3501  0.9833  0.2284
  172MOL   H11520977   1.905   0.218   6.850  2.0276 -1.6897 -1.0229
  172MOL   C11620978   1.864   0.260   6.647 -0.3061  0.1044 -0.0521
  172MOL  Cl11720979   2.015   0.183   6.602  0.1864 -0.3146 -0.3146
  172MOL  Cl11820980   1.911   0.436   6.669  0.2176  0.4447 -0.0176
  172MOL   C11920981   1.760   0.241   6.535  1.0783  0.2767 -0.0770
  172MOL   H12020982   1.729   0.138   6.514  2.1305 -0.1209  0.2750
  172MOL   H12120983   1.674   0.303   6.557  2.1052  1.7979 -0.3092
  172MOL   H12220984   1.817   0.278   6.450  0.0293  0.3566 -0.7562
  173MOL     C120985   5.789   0.803   9.063 -1.2296  0.3188  0.5711
  173MOL    Cl220986   5.692   0.836   8.921  0.1626  0.1712 -0.2142
  173MOL    Cl320987   5.835   0.962   9.127  0.4740  0.1713  0.0841
  173MOL     C420988   5.714   0.720   9.165  0.1341  0.1302  0.1513
  173MOL     H520989   5.637   0.781   0.031 -0.5676 -0.6644  0.0317
  173MOL     H620990   5.661   0.638   9.118  0.8888 -0.5516  0.4754
  173MOL     H720991   5.874   0.745   9.028 -1.5177  0.8116 -0.9979
  173MOL     C820992   5.799   0.654   0.096  0.0257  0.0547 -0.5536
  173MOL    Cl920993   5.915   0.763   0.185  0.2792  0.4194  0.5589
  173MOL   Cl1020994   5.915   0.541   0.016 -0.2343 -0.5000 -0.3665
  173MOL    C1120995   5.715   0.575   0.203 -0.3275 -0.5927 -0.3962
  173MOL    H1220996   5.683   0.482   0.155  3.6044 -2.1393 -0.1909
  173MOL    H1320997   5.787   0.547   0.280 -0.2949 -1.4103 -0.7163
  173MOL    C1420998   5.589   0.640   0.277 -0.7242  0.0578  0.1458
  173MOL   Cl1520999   5.461   0.640   0.154  0.2315 -0.1680  0.0956
  173MOL   Cl1621000   5.629   0.809   0.322 -0.2070  0.1651 -0.3467
  173MOL    C1721001   5.540   0.564   0.408  0.2577  0.3006  0.1090
  173MOL    H1821002   5.513   0.466   0.368  2.9800 -1.7728  3.1395
  173MOL    H1921003   5.621   0.543   0.477  0.8483 -0.3595 -0.7671
  173MOL    C2021004   5.429   0.623   0.507 -0.2463  0.0397  0.5453
  173MOL   Cl2121005   5.494   0.757   0.607  0.1074 -0.3253  0.1148
  173MOL   Cl2221006   5.394   0.495   0.618 -0.1414  0.0754 -0.2819
  173MOL    C2321007   5.297   0.668   0.449  0.2365 -0.2178 -0.0851
  173MOL    H2421008   5.309   0.749   0.377 -2.1161  1.5296  1.4108
  173MOL    H2521009   5.273   0.588   0.378  1.5195 -0.9547  0.2879
  173MOL    C2621010   5.170   0.680   0.546 -0.1869  0.4037  0.2456
  173MOL   Cl2721011   5.099   0.518   0.561  0.1536 -0.1270 -0.0084
  173MOL   Cl2821012   5.066   0.778   0.447 -0.2493  0.1513  0.2224
  173MOL    C2921013   5.172   0.750   0.687 -0.3939  0.2337 -0.5417
  173MOL    H3021014   5.228   0.678   0.747  0.0547  0.3682 -0.7908
  173MOL    H3121015   5.240   0.833   0.666  0.5765 -0.8642 -1.8600
  173MOL    C3221016   5.048   0.799   0.763 -0.3528  0.4792  0.6502
  173MOL   Cl3321017   4.922   0.664   0.779  0.1650  0.1468  0.0681
  173MOL   Cl3421018   4.980   0.952   0.683  0.2221 -0.1925  0.1563
  173MOL    C3521019   5.078   0.822   0.912 -0.1055 -0.3157 -0.5736
  173MOL    H3621020   4.997   0.887   0.943  1.4075  2.1451 -1.6192
  173MOL    H3721021   5.082   0.733   0.976  2.2730  1.2736  1.6177
  173MOL    C3821022   5.210   0.897   0.945 -1.1096  0.6521 -0.4394
  173MOL   Cl3921023   5.248   1.029   0.826 -0.1369 -0.4146 -0.8347
  173MOL   Cl4021024   5.341   0.778   0.954 -0.1476  0.2911  0.0051
  173MOL    C4121025   5.187   0.967   1.084  0.0634  0.9162 -0.2520
  173MOL    H4221026   5.126   1.055   1.065  0.0177  1.5457  2.6693
  173MOL    H4321027   5.124   0.905   1.148  1.5285  0.2143  0.5286
  173MOL    C4421028   5.318   1.016   1.163  0.7682 -1.1887  0.1733
  173MOL   Cl4521029   5.383   0.868   1.240  0.4227  0.3789 -0.4478
  173MOL   Cl4621030   5.251   1.113   1.297  0.2013  0.0606  0.4405
  173MOL    C4721031   5.423   1.099   1.076  0.5672  0.5279  0.3616
  173MOL    H4821032   5.459   1.030   1.001 -0.0453 -0.1438  0.6740
  173MOL    H4921033   5.371   1.175   1.019  1.1174  0.0555 -0.7733
  173MOL    C5021034   5.550   1.169   1.132  0.4994  0.4572  0.8172
  173MOL   Cl5121035   5.491   1.323   1.203  0.2016  0.2188 -0.2109
  173MOL   Cl5221036   5.659   1.215   0.998  0.0402  0.0235 -0.2086
  173MOL    C5321037   5.633   1.080   1.225 -0.6132 -0.0406 -0.0434
  173MOL    H5421038   5.557   1.053   1.299  1.5926 -2.1374  1.5510
  173MOL    H5521039   5.665   0.995   1.164  1.6127  0.1351  0.8450
  173MOL    C5621040   5.770   1.132   1.290  0.1574 -0.0805  1.1317
  173MOL   Cl5721041   5.756   1.299   1.347 -0.0499 -0.2795 -0.2654
  173MOL   Cl5821042   5.913   1.121   1.178 -0.5916  0.5359 -0.1154
  173MOL    C5921043   5.799   1.053   1.420 -0.0096  1.0422  0.4760
  173MOL    H6021044   5.864   1.116   1.481  0.9756  1.2589 -0.7623
  173MOL    H6121045   5.704   1.042   1.472  1.8049  0.8321  3.8297
  173MOL    C6221046   5.856   0.908   1.411  0.2717  0.0500 -0.2547
  173MOL   Cl6321047   6.022   0.901   1.353  0.3344 -0.0401 -0.2368
  173MOL   Cl6421048   5.766   0.807   1.286  0.3678 -0.1908 -0.2739
  173MOL    C6521049   5.862   0.843   1.549  0.4858  0.5832  0.0622
  173MOL    H6621050   5.884   0.739   1.525  1.7130  0.4933  1.5510
  173MOL    H6721051   5.941   0.893   1.604  1.6441 -0.7712 -0.3459
  173MOL    C6821052   5.739   0.839   1.642  0.2213  0.1900 -0.0128
  173MOL   Cl6921053   5.587   0.819   1.537 -0.0182  0.1156 -0.0024
  173MOL   Cl7021054   5.736   0.994   1.729 -0.1673 -0.2893  0.5562
  173MOL    C7121055   5.733   0.717   1.743  0.4455 -0.4356 -0.0862
  173MOL    H7221056   5.665   0.740   1.825  0.4799 -0.6352 -0.0017
  173MOL    H7321057   5.682   0.638   1.688 -0.2831 -0.7792  1.0605
  173MOL    C7421058   5.854   0.659   1.822 -0.2162  0.3353 -0.2972
  173MOL   Cl7521059   5.911   0.799   1.925 -0.0001  0.0260 -0.3458
  173MOL   Cl7621060   5.987   0.620   1.712 -0.0260 -0.6707 -0.5601
  173MOL    C7721061   5.811   0.547   1.911  0.2353 -0.5842 -0.1964
  173MOL    H7821062   5.899   0.533   1.974 -0.1570 -0.4814  0.3756
  173MOL    H7921063   5.741   0.589   1.982 -1.9359  0.4327 -2.8376
  173MOL    C8021064   5.753   0.410   1.869 -0.1221  0.7819 -0.3603
  173MOL   Cl8121065   5.832   0.349   1.720  0.2900 -0.3006  0.0493
  173MOL   Cl8221066   5.584   0.443   1.823 -0.1345  0.2283  0.0481
  173MOL    C8321067   5.754   0.307   1.987 -1.2102 -0.3799  0.1519
  173MOL    H8421068   5.787   0.372   2.068 -3.0527 -1.9866  2.2468
  173MOL    H8521069   5.653   0.273   2.008 -0.5279 -2.6697 -0.1637
  173MOL    C8621070   5.838   0.169   1.995 -0.1122  0.0873  0.4892
  173MOL   Cl8721071   6.017   0.186   1.967  0.2901 -0.4730  0.1250
  173MOL   Cl8821072   5.766   0.056   1.875  0.2599 -0.1519 -0.2465
  173MOL    C8921073   5.818   0.097   2.140 -0.0921  0.2007  0.1746
  173MOL    H9021074   5.718   0.054   2.142 -0.8285  1.9253  0.9798
  173MOL    H9121075   5.879   0.007   2.149 -0.6511 -0.2243 -0.2592
  173MOL    C9221076   5.842   0.181   2.274  0.4007 -0.3939  0.3555
  173MOL   Cl9321077   5.711   0.300   2.302 -0.1946 -0.3060  0.3526
  173MOL   Cl9421078   5.993   0.276   2.268 -0.1432 -0.0057  0.3730
  173MOL    C9521079   5.860   0.085   2.394 -0.4306 -0.3673 -0.4564
  173MOL    H9621080   5.814   9.169   2.370 -2.4947  0.5090 -0.1826
  173MOL    H9721081   5.964   0.056   2.382  0.2620  1.5598  0.7042
  173MOL    C9821082   5.839   0.122   2.545 -0.0698 -0.4728  0.6416
  173MOL   Cl9921083   5.914   9.167   2.635  0.1257  0.1129 -0.0771
  173MOL  Cl10021084   5.659   0.115   2.565 -0.3295 -0.0239 -0.1989
  173MOL   C10121085   5.889   0.265   2.587  0.7354 -0.4988 -0.4434
  173MOL   H10221086   5.996   0.246   2.580  0.4911 -1.4775 -1.8045
  173MOL   H10321087   5.872   0.339   2.509  2.3302 -1.1052 -1.3799
  173MOL   C10421088   5.851   0.328   2.725 -0.1567 -0.3021  0.2364
  173MOL  Cl10521089   5.975   0.453   2.761 -0.1731 -0.0803  0.3550
  173MOL  Cl10621090   5.842   0.211   2.857 -0.3915  0.2538  0.3085
  173MOL   C10721091   5.722   0.406   2.716  0.6500 -0.1095 -0.0418
  173MOL   H10821092   5.693   0.443   2.618 -0.3430  0.4233  0.4479
  173MOL   H10921093   5.644   0.332   2.737  1.6946 -0.1378  4.3775
  173MOL   C11021094   5.660   0.520   2.812 -0.6132 -0.0316  0.4305
  173MOL  Cl11121095   5.485   0.544   2.780 -0.0751 -0.4085 -0.2429
  173MOL  Cl11221096   5.754   0.664   2.765 -0.0526 -0.2738  0.4355
  173MOL   C11321097   5.673   0.497   2.965  0.4469 -0.0917  0.4074
  173MOL   H11421098   5.585   0.437   2.987  1.6235 -2.4076 -1.0436
  173MOL   H11521099   5.764   0.441   2.984  1.1583  1.4818  1.8255
  173MOL   C11621100   5.681   0.612   3.072  0.4644 -0.4084  0.5002
  173MOL  Cl11721101   5.648   0.536   3.228  0.4505  0.1383 -0.1015
  173MOL  Cl11821102   5.560   0.742   3.050  0.3108  0.0333 -0.1500
  173MOL   C11921103   5.816   0.681   3.085  0.4128  0.0792  0.5815
  173MOL   H12021104   5.834   0.749   3.002  0.6769  0.2338  0.7656
  173MOL   H12121105   5.812   0.734   3.180 -0.9777 -0.4336  0.8192
  173MOL   H12221106   5.887   0.599   3.096 -2.6714 -2.9041 -0.6442
  174MOL     C121107   7.482   1.687   4.974  0.1349  1.0512 -0.3788
  174MOL    Cl221108   7.611   1.786   5.055 -0.5365 -0.0303  0.2675
  174MOL    Cl321109   7.362   1.665   5.103 -0.1712 -0.0611 -0.1360
  174MOL     C421110   7.425   1.758   4.847 -0.1922  0.0938  0.1370
  174MOL     H521111   7.322   1.722   4.841  0.6079 -1.8736 -2.1865
  174MOL     H621112   7.418   1.866   4.863 -0.3083  0.5538 -2.7442
  174MOL     H721113   7.515   1.586   4.950 -1.1487  0.3554  0.6774
  174MOL     C821114   7.498   1.726   4.714  0.1987  0.1171  0.6226
  174MOL    Cl921115   7.520   1.546   4.688 -0.1004  0.1785  0.1094
  174MOL   Cl1021116   7.660   1.802   4.710  0.3975  0.1443 -0.4107
  174MOL    C1121117   7.428   1.781   4.583 -0.2526  0.3073 -0.1845
  174MOL    H1221118   7.484   1.869   4.549  2.5027 -1.1860  0.3711
  174MOL    H1321119   7.442   1.705   4.507 -0.9142 -2.3621  2.2829
  174MOL    C1421120   7.283   1.829   4.572  0.3002  0.0428 -1.0280
  174MOL   Cl1521121   7.243   1.975   4.675  0.0185 -0.2318  0.0548
  174MOL   Cl1621122   7.180   1.696   4.624 -0.0295 -0.2131 -0.0071
  174MOL    C1721123   7.232   1.871   4.429  0.1165 -0.0872 -0.5130
  174MOL    H1821124   7.124   1.853   4.420 -0.0442 -1.0107  2.6857
  174MOL    H1921125   7.245   1.978   4.417  2.1644 -0.3957 -1.1262
  174MOL    C2021126   7.290   1.802   4.296  0.6231 -0.6999  0.0815
  174MOL   Cl2121127   7.287   1.622   4.308 -0.2132 -0.2006 -0.6165
  174MOL   Cl2221128   7.450   1.856   4.256 -0.2565  0.1634 -0.1680
  174MOL    C2321129   7.199   1.839   4.180  0.3928  0.2509  0.0036
  174MOL    H2421130   7.240   1.795   4.089 -0.5564  2.8016 -1.7012
  174MOL    H2521131   7.097   1.803   4.196  0.8237 -1.0545 -0.1437
  174MOL    C2621132   7.154   1.986   4.145 -0.2995  0.4671 -0.1466
  174MOL   Cl2721133   7.289   2.100   4.155  0.2035 -0.0446  0.2573
  174MOL   Cl2821134   7.038   2.054   4.259 -0.2550 -0.2361 -0.1913
  174MOL    C2921135   7.103   1.996   3.995 -0.0526 -0.6194 -0.2832
  174MOL    H3021136   7.077   2.101   3.990  1.3539 -0.3429 -2.2967
  174MOL    H3121137   7.183   1.993   3.921 -0.9039  0.5274 -1.2761
  174MOL    C3221138   6.979   1.916   3.948  0.0041  0.7806  0.1089
  174MOL   Cl3321139   6.840   1.938   4.053 -0.1733  0.0914 -0.1442
  174MOL   Cl3421140   7.019   1.750   3.940 -0.4070  0.1604  0.5810
  174MOL    C3521141   6.926   1.965   3.811 -0.2349  0.3895 -0.2535
  174MOL    H3621142   6.818   1.948   3.809 -0.2951  0.6272  1.0950
  174MOL    H3721143   6.926   2.074   3.811 -0.5175  0.4015 -1.3696
  174MOL    C3821144   6.979   1.911   3.675 -0.2586  0.9058  0.4493
  174MOL   Cl3921145   6.877   1.767   3.636  0.3106  0.0798 -0.1128
  174MOL   Cl4021146   7.143   1.855   3.665  0.1723 -0.3678  0.2522
  174MOL    C4121147   6.951   2.005   3.562 -0.0917  0.5962 -0.2204
  174MOL    H4221148   6.950   1.942   3.473  1.2910 -2.3069  1.7270
  174MOL    H4321149   6.848   2.040   3.571 -0.5877 -0.7081 -0.7835
  174MOL    C4421150   7.043   2.127   3.537 -0.8075  0.3783 -0.0532
  174MOL   Cl4521151   7.185   2.092   3.433 -0.4268  0.4615 -0.2775
  174MOL   Cl4621152   7.106   2.204   3.683  0.0273 -0.2201 -0.4129
  174MOL    C4721153   6.957   2.234   3.460 -0.7727 -0.3960 -0.3455
  174MOL    H4821154   6.876   2.253   3.530 -0.3081  0.4154 -0.0229
  174MOL    H4921155   7.027   2.316   3.446 -2.1167  1.3212  2.5382
  174MOL    C5021156   6.887   2.206   3.324  0.1459 -0.3147  0.5351
  174MOL   Cl5121157   6.816   2.366   3.311 -0.4720  0.1544 -0.0097
  174MOL   Cl5221158   6.764   2.079   3.329  0.3750 -0.0843  0.0584
  174MOL    C5321159   6.992   2.170   3.215  0.0628  0.0335  0.5403
  174MOL    H5421160   7.091   2.210   3.236  0.2835 -0.9202  1.3634
  174MOL    H5521161   7.020   2.065   3.224  0.5672  0.0380 -0.7862
  174MOL    C5621162   6.974   2.201   3.062  0.1550  0.8571  0.6175
  174MOL   Cl5721163   7.104   2.115   2.974 -0.0940  0.0061 -0.1039
  174MOL   Cl5821164   6.999   2.376   3.049 -0.6707  0.3535  0.4035
  174MOL    C5921165   6.833   2.170   3.012 -0.3009 -0.6568  0.0820
  174MOL    H6021166   6.791   2.076   3.046 -0.9566 -1.0657 -1.8017
  174MOL    H6121167   6.769   2.250   3.051 -1.5376 -2.0286  0.8931
  174MOL    C6221168   6.795   2.174   2.864  0.7223  0.1758 -0.1395
  174MOL   Cl6321169   6.617   2.161   2.868  0.1991  0.3911 -0.0320
  174MOL   Cl6421170   6.854   2.036   2.772 -0.2304 -0.2355 -0.1504
  174MOL    C6521171   6.837   2.303   2.786  0.1761 -0.0641  0.6608
  174MOL    H6621172   6.799   2.376   2.858 -1.1236  0.3335 -0.3924
  174MOL    H6721173   6.945   2.314   2.783  0.1771 -0.1450  0.4232
  174MOL    C6821174   6.787   2.342   2.646 -0.4124  0.1894  0.5917
  174MOL   Cl6921175   6.609   2.359   2.643  0.3399  0.1986  0.0905
  174MOL   Cl7021176   6.831   2.228   2.521  0.2448  0.1324 -0.0340
  174MOL    C7121177   6.847   2.473   2.595 -0.4221  0.5219  0.3859
  174MOL    H7221178   6.948   2.452   2.561 -0.8831 -2.9394  1.0141
  174MOL    H7321179   6.788   2.486   2.504  1.4902 -1.1339 -1.0969
  174MOL    C7421180   6.852   2.606   2.682  0.0022  0.4241 -0.0687
  174MOL   Cl7521181   6.929   2.732   2.571 -0.4035 -0.3624 -0.0976
  174MOL   Cl7621182   6.953   2.581   2.821 -0.0488  0.0801 -0.5665
  174MOL    C7721183   6.710   2.655   2.726 -0.7566  0.0131  0.2741
  174MOL    H7821184   6.668   2.693   2.633  0.4459  0.7620  0.0275
  174MOL    H7921185   6.644   2.574   2.755 -0.6223 -1.0243 -2.1708
  174MOL    C8021186   6.678   2.767   2.828 -0.5536 -0.2688  0.2736
  174MOL   Cl8121187   6.695   2.687   2.986 -0.4386  0.0261 -0.2197
  174MOL   Cl8221188   6.510   2.808   2.809 -0.2451  0.0104  0.2402
  174MOL    C8321189   6.772   2.892   2.817 -0.3420 -0.2465 -0.3416
  174MOL    H8421190   6.871   2.863   2.853 -0.0911 -0.3991 -1.1626
  174MOL    H8521191   6.793   2.904   2.711 -2.6973 -1.4620 -0.9710
  174MOL    C8621192   6.751   3.033   2.875  0.5028  0.4226 -0.8485
  174MOL   Cl8721193   6.908   3.120   2.877 -0.2166  0.0219 -0.0364
  174MOL   Cl8821194   6.719   3.021   3.051 -0.0263 -0.2062 -0.0505
  174MOL    C8921195   6.637   3.124   2.813  0.2463 -0.2621  0.6063
  174MOL    H9021196   6.535   3.090   2.832 -0.7645  1.2669 -1.8290
  174MOL    H9121197   6.645   3.224   2.857  1.0893 -0.7304  1.5326
  174MOL    C9221198   6.630   3.159   2.655  0.1613 -0.4315 -0.3231
  174MOL   Cl9321199   6.627   3.013   2.545 -0.1375 -0.2255 -0.5386
  174MOL   Cl9421200   6.773   3.258   2.606 -0.2827  0.0462 -0.3349
  174MOL    C9521201   6.500   3.242   2.613  0.2737 -0.3096 -0.7787
  174MOL    H9621202   6.501   3.255   2.505 -0.5055 -1.2201 -0.9049
  174MOL    H9721203   6.421   3.167   2.615 -1.0160  0.9985 -1.2321
  174MOL    C9821204   6.460   3.373   2.693  0.8274 -0.1346 -0.0324
  174MOL   Cl9921205   6.593   3.493   2.722  0.1674  0.0147 -0.1127
  174MOL  Cl10021206   6.407   3.316   2.855  0.0177  0.1060  0.0231
  174MOL   C10121207   6.342   3.445   2.614 -0.5133  0.1680  0.0799
  174MOL   H10221208   6.262   3.373   2.599  0.6251 -0.9234 -0.8309
  174MOL   H10321209   6.305   3.509   2.694  1.3030  0.6778  0.5496
  174MOL   C10421210   6.359   3.541   2.497 -0.1273  0.5083  0.1429
  174MOL  Cl10521211   6.507   3.489   2.412  0.1875 -0.0610  0.3338
  174MOL  Cl10621212   6.387   3.715   2.541  0.1487  0.0726 -0.3467
  174MOL   C10721213   6.250   3.518   2.387  0.2082 -0.4827  0.1578
  174MOL   H10821214   6.272   3.564   2.291  0.0020 -0.2523  0.2212
  174MOL   H10921215   6.249   3.410   2.372 -1.5146 -0.9409  3.2201
  174MOL   C11021216   6.093   3.542   2.407  0.1448 -0.3101 -0.2665
  174MOL  Cl11121217   6.063   3.716   2.436 -0.3054  0.1254 -0.1439
  174MOL  Cl11221218   6.035   3.458   2.555 -0.5569 -0.1739 -0.4950
  174MOL   C11321219   6.003   3.486   2.295 -0.1893  0.1274 -0.0903
  174MOL   H11421220   5.988   3.380   2.317 -2.5332  0.8765  2.1347
  174MOL   H11521221   5.905   3.532   2.306  0.5740  1.9738 -0.8032
  174MOL   C11621222   6.029   3.508   2.146 -0.4026 -0.0540  0.3981
  174MOL  Cl11721223   5.901   3.439   2.052 -0.0116  0.4331  0.2710
  174MOL  Cl11821224   6.182   3.426   2.104 -0.6168  0.4260 -0.0171
  174MOL   C11921225   6.047   3.655   2.107  0.0051 -0.7601 -0.1382
  174MOL   H12021226   5.953   3.710   2.094  1.7360  2.3142 -0.0661
  174MOL   H12121227   6.097   3.731   2.167 -1.0854  0.3890 -0.6597
  174MOL   H12221228   6.090   3.660   2.007  2.7110  0.5678  1.0275
  175MOL     C121229   3.576   0.374   0.043 -0.0530  0.7283 -0.3183
  175MOL    Cl221230   3.414   0.350   0.094  0.2191  0.1804  0.0869
  175MOL    Cl321231   3.599   0.547   0.006  0.0743  0.3288  0.1772
  175MOL     C421232   3.689   0.339   0.147 -0.6043 -0.3046 -0.6005
  175MOL     H521233   3.770   0.406   0.120 -1.4849  1.0160 -0.0014
  175MOL     H621234   3.668   0.364   0.251  0.6881 -1.1297 -0.1310
  175MOL     H721235   3.585   0.317   9.131 -0.8634 -0.9848  0.6454
  175MOL     C821236   3.730   0.192   0.150  0.2936  0.1212  0.5755
  175MOL    Cl921237   3.768   0.144   9.167 -0.3793  0.0818 -0.4144
  175MOL   Cl1021238   3.598   0.092   0.215  0.3913 -0.0732  0.5090
  175MOL    C1121239   3.854   0.151   0.235  0.1445 -0.0584 -0.4024
  175MOL    H1221240   3.819   0.155   0.338 -0.5618 -0.9073 -0.6109
  175MOL    H1321241   3.872   0.048   0.207  0.5660  0.7647 -3.3551
  175MOL    C1421242   3.991   0.223   0.242 -0.2199 -0.1472 -0.3607
  175MOL   Cl1521243   4.107   0.118   0.336 -0.0914  0.4091 -0.0744
  175MOL   Cl1621244   3.966   0.372   0.344  0.0009 -0.2088  0.2985
  175MOL    C1721245   4.054   0.258   0.104  0.2790  0.0173 -0.5397
  175MOL    H1821246   4.068   0.161   0.056 -0.3136 -1.2159  1.6873
  175MOL    H1921247   3.983   0.316   0.046  1.7714  1.1927 -1.2043
  175MOL    C2021248   4.193   0.321   0.079 -0.0154  0.2984  0.6457
  175MOL   Cl2121249   4.207   0.339   9.084  0.1816 -0.3265 -0.2155
  175MOL   Cl2221250   4.318   0.189   0.123  0.3315  0.1152  0.0214
  175MOL    C2321251   4.221   0.460   0.149 -0.0197 -0.1130  0.0683
  175MOL    H2421252   4.191   0.460   0.254  1.1030 -1.5094  0.4097
  175MOL    H2521253   4.329   0.469   0.150  0.0405 -0.8097  0.7143
  175MOL    C2621254   4.171   0.597   0.089  0.7700  0.0854  0.4200
  175MOL   Cl2721255   4.002   0.579   0.039  0.3036  0.2329 -0.0176
  175MOL   Cl2821256   4.266   0.646   9.132 -0.5660  0.1639  0.2470
  175MOL    C2921257   4.171   0.699   0.211 -0.0573 -0.0847  0.0643
  175MOL    H3021258   4.081   0.688   0.270  0.6108 -5.1295  0.3519
  175MOL    H3121259   4.249   0.673   0.283 -2.0616  0.0095  2.3328
  175MOL    C3221260   4.197   0.851   0.187  0.3335 -0.0509 -0.0640
  175MOL   Cl3321261   4.370   0.883   0.154  0.8003  0.1510  0.0812
  175MOL   Cl3421262   4.141   0.917   0.351 -0.3324  0.2325  0.7966
  175MOL    C3521263   4.115   0.913   0.067 -0.5493 -0.2700  0.7298
  175MOL    H3621264   4.168   0.904   9.153  1.3013 -0.9860  1.8151
  175MOL    H3721265   4.029   0.847   0.055  0.6007 -1.0397 -4.5202
  175MOL    C3821266   4.060   1.063   0.064 -0.0698 -0.1158  0.1879
  175MOL   Cl3921267   4.196   1.177   0.117  0.0798 -0.3269  0.1082
  175MOL   Cl4021268   3.924   1.083   0.172  0.4491 -0.4234  0.1480
  175MOL    C4121269   4.014   1.089   9.105 -0.3671 -0.1194  0.1014
  175MOL    H4221270   4.104   1.088   9.043  0.3491 -1.8793  1.1427
  175MOL    H4321271   3.964   1.000   9.067 -2.1718  0.9413 -0.0743
  175MOL    C4421272   3.930   1.222   9.072 -0.5028 -0.2739  0.6605
  175MOL   Cl4521273   3.918   1.224   8.892 -0.0906 -0.6342  0.0682
  175MOL   Cl4621274   4.027   1.368   9.102 -0.0442  0.3030 -0.0560
  175MOL    C4721275   3.792   1.240   9.138 -0.4283 -0.0498  0.8515
  175MOL    H4821276   3.757   1.139   9.163  0.4438 -0.3317  0.9680
  175MOL    H4921277   3.813   1.291   0.051  2.0728  1.0277 -0.2688
  175MOL    C5021278   3.668   1.319   9.082  0.8072  0.1525 -0.1386
  175MOL   Cl5121279   3.711   1.484   9.046  0.5850  0.2204  0.3922
  175MOL   Cl5221280   3.550   1.332   0.036 -0.3471 -0.5419  0.4074
  175MOL    C5321281   3.599   1.269   8.950  1.0529  0.5534 -0.4025
  175MOL    H5421282   3.507   1.325   8.931  0.0514 -1.3617 -1.3180
  175MOL    H5521283   3.667   1.295   8.868 -1.4623  0.8880 -2.4535
  175MOL    C5621284   3.535   1.122   8.933 -0.4750 -0.1226  0.6503
  175MOL   Cl5721285   3.649   0.993   8.945 -0.4664 -0.0145 -0.7758
  175MOL   Cl5821286   3.476   1.123   8.763 -0.1845  0.1280 -0.5022
  175MOL    C5921287   3.427   1.104   9.041 -0.2356 -0.6909 -0.2265
  175MOL    H6021288   3.474   1.092   9.139  1.6592  0.0795 -1.0227
  175MOL    H6121289   3.380   1.200   9.060  0.7861 -0.1824 -0.2533
  175MOL    C6221290   3.312   0.999   9.029 -0.1073 -0.4607  0.0793
  175MOL   Cl6321291   3.194   1.063   8.904 -0.0463  0.3015 -0.2357
  175MOL   Cl6421292   3.225   1.008   0.009 -0.2179  0.0112 -0.1227
  175MOL    C6521293   3.363   0.858   8.998 -0.1985  0.1841 -0.1433
  175MOL    H6621294   3.401   0.853   8.895 -1.5257 -0.5791 -0.6029
  175MOL    H6721295   3.444   0.828   9.064  0.2580 -3.9543 -2.3881
  175MOL    C6821296   3.267   0.735   9.006 -0.1104 -0.7702  0.9765
  175MOL   Cl6921297   3.262   0.682   9.179 -0.3486 -0.1049  0.1269
  175MOL   Cl7021298   3.357   0.603   8.916  0.0578 -0.4396  0.3546
  175MOL    C7121299   3.127   0.756   8.932  0.1382 -0.9330 -0.3618
  175MOL    H7221300   3.080   0.831   8.995  2.2827  0.9472 -0.9592
  175MOL    H7321301   3.140   0.795   8.832 -0.6293 -0.2352 -0.1966
  175MOL    C7421302   3.028   0.637   8.911  0.1900  0.1068 -0.0885
  175MOL   Cl7521303   3.058   0.550   8.754 -0.2783  0.6721 -0.3919
  175MOL   Cl7621304   2.871   0.724   8.876 -0.0617 -0.0920 -0.3979
  175MOL    C7721305   3.019   0.547   9.041  0.0670 -0.2782  0.6176
  175MOL    H7821306   3.111   0.488   9.040  0.0239 -0.3368  0.0609
  175MOL    H7921307   3.024   0.625   9.117 -1.5656 -0.1899  0.6388
  175MOL    C8021308   2.901   0.458   9.073  0.2777  0.1575  0.6539
  175MOL   Cl8121309   2.861   0.343   8.941 -0.1774 -0.1906 -0.7257
  175MOL   Cl8221310   2.758   0.553   9.124 -0.1630 -0.2191  0.2235
  175MOL    C8321311   2.943   0.377   0.023  0.0985 -0.1440  0.2537
  175MOL    H8421312   3.046   0.353   9.178  0.0668 -0.0106  0.0021
  175MOL    H8521313   2.944   0.448   0.106 -3.1321 -0.5476  0.6989
  175MOL    C8621314   2.870   0.249   0.077  0.0923  0.1717  0.0601
  175MOL   Cl8721315   2.908   0.112   9.153  0.4398 -0.0910  0.0972
  175MOL   Cl8821316   2.694   0.268   0.059  0.0102  0.4064 -0.0569
  175MOL    C8921317   2.893   0.199   0.219  0.1051  0.6693  0.3941
  175MOL    H9021318   2.858   0.283   0.278  1.1140  0.9749  0.5654
  175MOL    H9121319   2.831   0.113   0.246  0.4889  0.3104  0.1506
  175MOL    C9221320   3.036   0.171   0.281 -0.2036  0.0364 -0.2445
  175MOL   Cl9321321   3.122   0.331   0.276 -0.2376 -0.1017  0.3846
  175MOL   Cl9421322   3.131   0.064   0.175  0.1771 -0.1410  0.4539
  175MOL    C9521323   3.047   0.104   0.418  0.0965 -1.1204  0.0001
  175MOL    H9621324   3.019   0.000   0.400 -3.1568  0.1359 -2.5244
  175MOL    H9721325   3.153   0.104   0.446  0.4404 -0.9665 -1.2645
  175MOL    C9821326   2.973   0.161   0.542 -0.0606 -0.1320  0.5251
  175MOL   Cl9921327   3.018   0.052   0.676 -0.0596 -0.1222  0.3103
  175MOL  Cl10021328   2.798   0.138   0.517 -0.0089 -0.2686 -0.2686
  175MOL   C10121329   3.019   0.302   0.588  0.6361 -0.0146 -0.7044
  175MOL   H10221330   3.128   0.307   0.591  0.6632 -0.5117 -0.7862
  175MOL   H10321331   3.002   0.368   0.503 -0.8435 -0.9138 -1.1242
  175MOL   C10421332   2.968   0.374   0.716  0.4361 -0.8130  0.1793
  175MOL  Cl10521333   3.037   0.542   0.700 -0.0137 -0.2009 -0.2146
  175MOL  Cl10621334   3.055   0.296   0.853 -0.2616 -0.1357 -0.0027
  175MOL   C10721335   2.815   0.369   0.745 -0.3076 -0.3267 -0.0402
  175MOL   H10821336   2.778   0.267   0.754 -1.9059  0.3265  0.9612
  175MOL   H10921337   2.800   0.404   0.847  0.9568 -0.5918  0.2508
  175MOL   C11021338   2.710   0.450   0.669 -0.5042  0.3447 -0.0423
  175MOL  Cl11121339   2.756   0.471   0.496  0.5597  0.0160  0.0116
  175MOL  Cl11221340   2.711   0.615   0.753  0.2773 -0.0390 -0.3198
  175MOL   C11321341   2.563   0.394   0.667 -0.3256 -0.3801  0.2794
  175MOL   H11421342   2.497   0.460   0.611 -1.5349  0.2012  2.2959
  175MOL   H11521343   2.575   0.303   0.608 -2.6437  0.0228 -0.8742
  175MOL   C11621344   2.479   0.347   0.798 -0.3399 -0.6500  0.1733
  175MOL  Cl11721345   2.316   0.286   0.753 -0.0120  0.2275  0.0113
  175MOL  Cl11821346   2.459   0.485   0.915  0.3079  0.0301 -0.1276
  175MOL   C11921347   2.536   0.230   0.871  0.0118 -0.0104 -0.0516
  175MOL   H12021348   2.613   0.257   0.942  0.6684  0.2510 -0.8500
  175MOL   H12121349   2.465   0.177   0.934 -0.8412  2.2038  0.8740
  175MOL   H12221350   2.564   0.154   0.797 -1.5987  2.5975 -3.5045
  176MOL     C121351   2.594   5.483   7.571  0.4021 -0.1518  0.0430
  176MOL    Cl221352   2.448   5.584   7.580  0.1503 -0.2372 -0.2072
  176MOL    Cl321353   2.693   5.505   7.717 -0.6677  0.5455 -0.1220
  176MOL     C421354   2.561   5.329   7.557  0.9836 -0.2320  0.3470
  176MOL     H521355   2.635   5.266   7.606  1.6248  1.5096  1.6595
  176MOL     H621356   2.465   5.308   7.604  0.0695  0.8129 -1.0389
  176MOL     H721357   2.657   5.514   7.488  0.0899 -0.1278 -0.1898
  176MOL     C821358   2.556   5.289   7.407  0.4204  0.5996  0.6494
  176MOL    Cl921359   2.715   5.304   7.340 -0.2001 -0.3466  0.2367
  176MOL   Cl1021360   2.440   5.390   7.307  0.0989 -0.4258  0.1513
  176MOL    C1121361   2.523   5.130   7.388  0.5293 -0.2334  0.3216
  176MOL    H1221362   2.518   5.114   7.281 -3.8178  1.2425  0.1815
  176MOL    H1321363   2.611   5.082   7.431  0.6323  0.2935  0.7081
  176MOL    C1421364   2.411   5.058   7.468 -0.4302 -0.3090 -0.0465
  176MOL   Cl1521365   2.461   5.056   7.644 -0.2203 -0.1773 -0.2789
  176MOL   Cl1621366   2.408   4.892   7.397 -0.1806  0.0508 -0.0190
  176MOL    C1721367   2.278   5.145   7.448  0.3812 -0.1371  0.1116
  176MOL    H1821368   2.292   5.252   7.462 -0.0682  0.1764 -1.6615
  176MOL    H1921369   2.263   5.149   7.340 -2.6400  1.3763  0.5418
  176MOL    C2021370   2.145   5.110   7.521 -0.5561 -0.1968  0.1708
  176MOL   Cl2121371   2.169   5.157   7.696 -0.5726  0.3301  0.0790
  176MOL   Cl2221372   2.104   4.937   7.492  0.7142 -0.2450 -0.0948
  176MOL    C2321373   2.012   5.188   7.467  0.0972  0.1252  0.1944
  176MOL    H2421374   1.966   5.129   7.388 -0.9991  0.5000  0.5446
  176MOL    H2521375   1.933   5.182   7.542 -0.6264  0.1644 -0.5546
  176MOL    C2621376   2.023   5.336   7.410 -0.1929  0.4511  0.7672
  176MOL   Cl2721377   2.115   5.327   7.257 -0.0536  0.0351  0.0002
  176MOL   Cl2821378   2.116   5.431   7.528  0.0581  0.1572  0.2026
  176MOL    C2921379   1.881   5.389   7.389  0.5363  0.2572  0.3496
  176MOL    H3021380   1.821   5.326   7.323 -0.1235  0.2130  0.9846
  176MOL    H3121381   1.825   5.363   7.478  0.0629 -2.3216 -0.6667
  176MOL    C3221382   1.854   5.543   7.350  0.7354 -0.1475 -0.1829
  176MOL   Cl3321383   1.889   5.639   7.490  0.5502  0.5434  0.1692
  176MOL   Cl3421384   1.684   5.572   7.304  0.2140 -0.1938 -0.5862
  176MOL    C3521385   1.950   5.604   7.236  0.7269 -0.1780  0.1812
  176MOL    H3621386   1.921   5.709   7.228  1.1624  0.0608  1.6517
  176MOL    H3721387   2.055   5.611   7.267  1.6224 -0.7174 -2.6187
  176MOL    C3821388   1.933   5.567   7.085  0.2322 -0.7698 -1.1617
  176MOL   Cl3921389   1.797   5.656   7.009  0.1475  0.1170 -0.0340
  176MOL   Cl4021390   1.875   5.403   7.068 -0.0416 -0.0125 -0.0646
  176MOL    C4121391   2.055   5.591   6.991  0.0779  0.1521 -0.4315
  176MOL    H4221392   2.102   5.493   6.995 -0.9495 -0.3346 -0.2553
  176MOL    H4321393   2.020   5.592   6.887 -1.4040  0.4206  0.0597
  176MOL    C4421394   2.156   5.716   7.006  0.2438  0.2173 -1.2747
  176MOL   Cl4521395   2.260   5.704   7.156 -0.0195  0.1869 -0.1390
  176MOL   Cl4621396   2.052   5.858   7.019  0.2738 -0.0955  0.0865
  176MOL    C4721397   2.237   5.734   6.882 -0.1280 -0.4928  0.5317
  176MOL    H4821398   2.167   5.710   6.802  0.5435 -0.6296 -0.0070
  176MOL    H4921399   2.259   5.838   6.861  0.3043 -0.6110  0.3949
  176MOL    C5021400   2.364   5.648   6.851  0.2906 -0.1028 -0.7751
  176MOL   Cl5121401   2.386   5.664   6.672 -0.0787  0.3131  0.2783
  176MOL   Cl5221402   2.329   5.474   6.871 -0.0622 -0.5830  0.0642
  176MOL    C5321403   2.493   5.671   6.936  0.3468 -0.0093 -0.3389
  176MOL    H5421404   2.467   5.653   7.040  1.2659  0.4463 -0.0273
  176MOL    H5521405   2.563   5.590   6.916 -1.3432 -0.9112 -2.9380
  176MOL    C5621406   2.587   5.794   6.915 -0.0019  0.9618 -0.6214
  176MOL   Cl5721407   2.491   5.941   6.948 -0.2695 -0.1932  0.1965
  176MOL   Cl5821408   2.655   5.818   6.751 -0.2413 -0.1114  0.1000
  176MOL    C5921409   2.696   5.802   7.021 -0.5182  1.0205 -0.4792
  176MOL    H6021410   2.746   5.898   7.009  0.5185  0.6256  0.6395
  176MOL    H6121411   2.639   5.792   7.113 -0.1291  1.8728 -0.1433
  176MOL    C6221412   2.809   5.693   7.036 -0.1308  0.7172 -0.0840
  176MOL   Cl6321413   2.877   5.628   6.875 -0.0638  0.0174 -0.0394
  176MOL   Cl6421414   2.742   5.538   7.103  0.2256  0.3092  0.4816
  176MOL    C6521415   2.923   5.740   7.131 -0.0325  0.0414  0.6900
  176MOL    H6621416   2.990   5.657   7.152  1.2817  1.1540  0.9802
  176MOL    H6721417   3.000   5.794   7.076 -0.7008 -1.5234 -1.8252
  176MOL    C6821418   2.900   5.806   7.261 -0.2976 -0.1956 -0.3065
  176MOL   Cl6921419   2.791   5.716   7.369  0.1949 -0.5283  0.1042
  176MOL   Cl7021420   2.829   5.966   7.230 -0.3270  0.4433 -0.2319
  176MOL    C7121421   3.035   5.835   7.324 -0.2870 -0.0524  0.2117
  176MOL    H7221422   3.103   5.750   7.316 -1.3025 -0.6795 -2.1236
  176MOL    H7321423   3.079   5.911   7.260  1.4158  0.4764  1.9453
  176MOL    C7421424   3.046   5.879   7.478  0.1468  0.2630  0.3288
  176MOL   Cl7521425   3.206   5.957   7.499  0.1433 -0.2859 -0.1179
  176MOL   Cl7621426   3.051   5.733   7.576 -0.4751 -0.0960  0.0349
  176MOL    C7721427   2.933   5.978   7.529 -0.3690 -0.1135  0.0178
  176MOL    H7821428   2.943   6.073   7.477  0.3458  0.0327  0.4136
  176MOL    H7921429   2.835   5.940   7.501  0.3600  0.7923 -4.0309
  176MOL    C8021430   2.912   6.012   7.685  0.2888 -0.5402  0.5870
  176MOL   Cl8121431   2.804   6.144   7.676  0.1825 -0.1311  0.0034
  176MOL   Cl8221432   3.053   6.076   7.773  0.1520 -0.2381  0.0172
  176MOL    C8321433   2.852   5.889   7.761 -0.3295 -0.1837  0.5583
  176MOL    H8421434   2.796   5.822   7.696  0.5699  0.2452 -0.6759
  176MOL    H8521435   2.940   5.834   7.795 -0.6990 -1.8125 -1.0120
  176MOL    C8621436   2.763   5.902   7.889 -0.3225 -0.0856 -0.4789
  176MOL   Cl8721437   2.766   5.733   7.959  0.1281 -0.1427 -0.3892
  176MOL   Cl8821438   2.601   5.944   7.838  0.2260 -0.0369  0.0516
  176MOL    C8921439   2.819   5.994   8.008  0.8515  0.6560  0.4982
  176MOL    H9021440   2.921   5.959   8.025  0.7887  0.4658  0.4857
  176MOL    H9121441   2.817   6.094   7.966  1.1074 -0.3375 -2.0218
  176MOL    C9221442   2.754   6.002   8.147 -0.2265 -0.1139 -0.0666
  176MOL   Cl9321443   2.761   5.852   8.238 -0.3071 -0.1497  0.3367
  176MOL   Cl9421444   2.584   6.040   8.128  0.1201 -0.2881 -0.2292
  176MOL    C9521445   2.817   6.113   8.233 -0.3173  0.6999  0.6579
  176MOL    H9621446   2.778   6.208   8.198  1.6947  1.2793 -0.0685
  176MOL    H9721447   2.779   6.107   8.335 -0.3370 -0.1509  0.6041
  176MOL    C9821448   2.975   6.130   8.244  0.4491 -0.0413  0.3499
  176MOL   Cl9921449   3.033   6.211   8.098 -0.6834 -0.0911  0.0302
  176MOL  Cl10021450   3.055   5.968   8.247 -0.2339 -0.2062  0.2649
  176MOL   C10121451   3.025   6.200   8.369 -0.6075  0.2527  0.0951
  176MOL   H10221452   2.959   6.163   8.448  1.0828 -0.0263  1.3970
  176MOL   H10321453   3.125   6.164   8.393  0.4374  1.9991 -1.5333
  176MOL   C10421454   3.026   6.356   8.368 -1.0181 -0.6726 -0.3423
  176MOL  Cl10521455   2.880   6.432   8.298 -0.2191  0.2295 -0.1618
  176MOL  Cl10621456   3.168   6.429   8.294  0.2063 -0.3351 -0.2533
  176MOL   C10721457   3.022   6.418   8.513  0.5709 -0.0720 -0.3249
  176MOL   H10821458   3.023   6.526   8.499 -0.5692  0.2271  1.6732
  176MOL   H10921459   2.922   6.409   8.554  1.3307 -0.3974  1.5396
  176MOL   C11021460   3.110   6.368   8.628  0.0179 -0.5640  0.2163
  176MOL  Cl11121461   3.282   6.354   8.590 -0.0677  0.3526  0.0144
  176MOL  Cl11221462   3.056   6.210   8.685  0.4177 -0.6634 -0.3271
  176MOL   C11321463   3.109   6.469   8.747 -0.1056  0.7321 -0.4176
  176MOL   H11421464   3.177   6.433   8.824  0.7940  2.9085 -0.1676
  176MOL   H11521465   3.166   6.549   8.700  0.6803  0.4207  0.0122
  176MOL   C11621466   2.988   6.532   8.812  0.0045  1.1736  0.4445
  176MOL  Cl11721467   2.893   6.641   8.704 -0.0414  0.2846  0.1069
  176MOL  Cl11821468   3.040   6.642   8.951 -0.0393 -0.1224 -0.1937
  176MOL   C11921469   2.893   6.433   8.875 -0.1217  0.3472 -0.7695
  176MOL   H12021470   2.811   6.492   8.916 -0.5897 -0.4227 -0.5999
  176MOL   H12121471   2.856   6.367   8.797 -1.2500  1.9215 -1.5929
  176MOL   H12221472   2.948   6.368   8.943 -1.9718  1.7605  2.1851
  177MOL     C121473   7.654   7.241   0.351  0.4250  0.0366  0.3231
  177MOL    Cl221474   7.670   7.126   0.212 -0.2054  0.0706  0.3979
  177MOL    Cl321475   7.491   7.320   0.347 -0.0955  0.5216  0.2426
  177MOL     C421476   7.662   7.171   0.487 -0.6060  0.1409  0.5848
  177MOL     H521477   7.634   7.239   0.567  0.2729 -0.4053  1.3676
  177MOL     H621478   7.580   7.100   0.497 -0.5624  0.0467  0.2774
  177MOL     H721479   7.731   7.317   0.341 -0.4122  1.3400  3.3317
  177MOL     C821480   7.805   7.116   0.531  0.0842 -0.9700 -0.3214
  177MOL    Cl921481   7.907   7.263   0.508 -0.2720  0.5610 -0.4254
  177MOL   Cl1021482   7.870   6.986   0.423  0.0263 -0.2112 -0.1352
  177MOL    C1121483   7.819   7.063   0.680  0.0907 -0.3047 -0.2250
  177MOL    H1221484   7.926   7.043   0.678  0.1094 -0.2852  0.4035
  177MOL    H1321485   7.798   7.149   0.744  0.6480  2.5255 -3.7125
  177MOL    C1421486   7.733   6.945   0.733 -0.5273 -0.2806 -0.0435
  177MOL   Cl1521487   7.759   6.794   0.631 -0.3389 -0.0617 -0.2667
  177MOL   Cl1621488   7.559   6.975   0.726 -0.2800 -0.0978  0.1017
  177MOL    C1721489   7.764   6.911   0.875 -0.1031 -0.4814  0.2554
  177MOL    H1821490   7.715   6.991   0.930 -2.3116 -0.2012 -2.0593
  177MOL    H1921491   7.717   6.817   0.906 -1.2711 -0.4045 -1.2504
  177MOL    C2021492   7.916   6.900   0.924 -0.2302  0.9799  0.3712
  177MOL   Cl2121493   7.978   7.067   0.938 -0.4775 -0.2133  0.3045
  177MOL   Cl2221494   8.012   6.786   0.818 -0.0593 -0.0820 -0.1834
  177MOL    C2321495   7.907   6.842   1.075 -0.3736  0.7415  0.5003
  177MOL    H2421496   7.848   6.914   1.132 -1.4303 -0.3224  0.7895
  177MOL    H2521497   7.836   6.758   1.070 -0.2698  0.7143 -0.5909
  177MOL    C2621498   8.038   6.796   1.156 -0.0588  0.7054  0.2234
  177MOL   Cl2721499   8.072   6.626   1.124 -0.0483 -0.1177 -0.1702
  177MOL   Cl2821500   7.989   6.817   1.324 -0.2293 -0.0347 -0.3603
  177MOL    C2921501   8.166   6.877   1.122  0.4547 -1.1406  0.4346
  177MOL    H3021502   8.174   6.874   1.014  0.6324 -0.6810  0.4337
  177MOL    H3121503   8.144   6.984   1.129 -0.1748 -1.3910  2.7853
  177MOL    C3221504   8.303   6.845   1.186 -0.2875 -0.0758  0.4527
  177MOL   Cl3321505   8.426   6.973   1.148 -0.3577  0.0867 -0.0575
  177MOL   Cl3421506   8.370   6.692   1.119 -0.6776  0.2880 -0.1395
  177MOL    C3521507   8.308   6.814   1.338 -0.2828  0.4869  0.2501
  177MOL    H3621508   8.250   6.730   1.374  0.5854 -0.6880 -1.0235
  177MOL    H3721509   8.408   6.775   1.354  0.0875  0.7562 -1.2778
  177MOL    C3821510   8.292   6.934   1.436  0.5488  0.6885  0.8221
  177MOL   Cl3921511   8.185   7.069   1.375 -0.3632 -0.0021  0.3062
  177MOL   Cl4021512   8.447   7.010   1.470  0.2658 -0.6636  0.2841
  177MOL    C4121513   8.237   6.885   1.568 -0.1773  0.5103  0.1200
  177MOL    H4221514   8.136   6.852   1.549  0.2178 -0.0691 -0.9798
  177MOL    H4321515   8.301   6.802   1.596  1.2437  1.5084 -0.0884
  177MOL    C4421516   8.227   6.967   1.710  0.6536  0.2425 -0.4022
  177MOL   Cl4521517   8.152   7.127   1.684  0.1218 -0.4058 -0.4667
  177MOL   Cl4621518   8.383   6.979   1.795 -0.4224  0.0558 -0.5840
  177MOL    C4721519   8.132   6.889   1.809  0.0692 -0.7837  0.1998
  177MOL    H4821520   8.150   6.934   1.907 -1.9297 -1.7829  1.0704
  177MOL    H4921521   8.027   6.914   1.791  0.3921  2.8094  2.7169
  177MOL    C5021522   8.137   6.737   1.825 -0.1958  0.2787  0.3534
  177MOL   Cl5121523   8.310   6.681   1.850 -0.2186 -0.1180 -0.1318
  177MOL   Cl5221524   8.060   6.650   1.692 -0.4042 -0.2237 -0.2907
  177MOL    C5321525   8.066   6.694   1.954  0.0597  0.1920  0.8592
  177MOL    H5421526   8.076   6.585   1.960 -0.1840  0.0306 -1.3931
  177MOL    H5521527   8.131   6.730   2.033  2.1767 -1.2233 -0.2102
  177MOL    C5621528   7.918   6.726   1.989  0.6323 -0.1831  0.0351
  177MOL   Cl5721529   7.903   6.899   2.031  0.3307 -0.2317  0.1525
  177MOL   Cl5821530   7.893   6.629   2.134  0.1170 -0.3752  0.2296
  177MOL    C5921531   7.808   6.682   1.880  0.4814  0.1420  0.0444
  177MOL    H6021532   7.806   6.759   1.803  1.5759  0.9482  0.8127
  177MOL    H6121533   7.846   6.595   1.826  0.5423  0.0080  0.3013
  177MOL    C6221534   7.654   6.655   1.908  0.4313  0.1505 -0.3947
  177MOL   Cl6321535   7.656   6.486   1.958  0.5277  0.1791 -0.0022
  177MOL   Cl6421536   7.562   6.658   1.761  0.4080  0.1054 -0.3391
  177MOL    C6521537   7.607   6.753   2.022  0.6769  0.2879 -0.1244
  177MOL    H6621538   7.664   6.724   2.111 -0.4266 -0.1947  0.4363
  177MOL    H6721539   7.619   6.856   1.989 -1.2928  0.8700  0.8662
  177MOL    C6821540   7.456   6.759   2.064  0.4898  0.1389  0.2451
  177MOL   Cl6921541   7.386   6.599   2.093 -0.0704  0.2050 -0.0255
  177MOL   Cl7021542   7.352   6.826   1.930  0.2542  0.0075 -0.1787
  177MOL    C7121543   7.417   6.854   2.181  0.3188  0.8350  0.0268
  177MOL    H7221544   7.417   6.958   2.150  2.0961  0.4464 -1.3940
  177MOL    H7321545   7.313   6.836   2.207  0.6838 -1.0494  0.2418
  177MOL    C7421546   7.494   6.855   2.311 -0.5271  0.1596  0.4429
  177MOL   Cl7521547   7.404   6.961   2.411  0.6436 -0.3790 -0.0610
  177MOL   Cl7621548   7.652   6.927   2.290 -0.3987 -0.2994  0.5034
  177MOL    C7721549   7.510   6.714   2.378  0.7776  0.2235 -0.6959
  177MOL    H7821550   7.410   6.697   2.419 -0.8200  1.7477 -3.7918
  177MOL    H7921551   7.519   6.636   2.302 -1.1632 -0.1234 -0.6125
  177MOL    C8021552   7.596   6.679   2.503  0.7003  1.1202 -0.7966
  177MOL   Cl8121553   7.582   6.800   2.629  0.1552  0.0936  0.4289
  177MOL   Cl8221554   7.767   6.675   2.457  0.0445  0.6144 -0.0255
  177MOL    C8321555   7.564   6.543   2.574 -0.3480  0.9024 -0.2430
  177MOL    H8421556   7.613   6.536   2.671  1.0016  1.2241 -0.8931
  177MOL    H8521557   7.464   6.563   2.612 -1.4116  0.4754 -2.6669
  177MOL    C8621558   7.551   6.399   2.511 -0.1974  0.5879 -0.2150
  177MOL   Cl8721559   7.432   6.401   2.383 -0.0498  0.6459  0.0979
  177MOL   Cl8821560   7.491   6.288   2.644  0.0623  0.0795  0.3599
  177MOL    C8921561   7.677   6.345   2.452 -0.1954  0.0156  0.8533
  177MOL    H9021562   7.635   6.254   2.410 -0.2978  0.0326  0.9181
  177MOL    H9121563   7.697   6.417   2.373 -5.0373 -0.9753 -1.4442
  177MOL    C9221564   7.802   6.296   2.532  0.2561 -0.8908  0.3669
  177MOL   Cl9321565   7.946   6.317   2.417  0.1576  0.0651 -0.2148
  177MOL   Cl9421566   7.784   6.115   2.556 -0.0398  0.7646 -0.1843
  177MOL    C9521567   7.824   6.370   2.674 -0.3363  0.3577  0.4146
  177MOL    H9621568   7.810   6.476   2.656  0.2978  0.3373 -0.2261
  177MOL    H9721569   7.740   6.345   2.739  0.0756  0.0800  0.8430
  177MOL    C9821570   7.958   6.362   2.746 -0.7692 -0.9810  0.4405
  177MOL   Cl9921571   8.068   6.477   2.653 -0.7056  0.4434  0.3463
  177MOL  Cl10021572   8.023   6.195   2.747  0.2468 -0.6498 -0.2367
  177MOL   C10121573   7.957   6.424   2.887  0.0060  0.4076 -1.0094
  177MOL   H10221574   8.054   6.391   2.922  0.4834  0.9990 -1.7653
  177MOL   H10321575   7.957   6.532   2.869  2.1257  0.6171  0.1111
  177MOL   C10421576   7.834   6.403   2.988  0.6014 -1.0331 -0.2467
  177MOL  Cl10521577   7.787   6.233   2.979 -0.2653  0.0248 -0.0472
  177MOL  Cl10621578   7.689   6.511   2.952 -0.0097  0.2693 -0.0578
  177MOL   C10721579   7.886   6.425   3.136 -0.1856 -0.7006 -0.3592
  177MOL   H10821580   7.826   6.361   3.201 -0.7195  0.1352 -0.0100
  177MOL   H10921581   7.968   6.355   3.133 -0.1148 -0.5619 -2.1478
  177MOL   C11021582   7.916   6.553   3.210 -0.6487 -0.4569  0.1500
  177MOL  Cl11121583   8.001   6.669   3.097 -0.0903 -0.3902 -0.0793
  177MOL  Cl11221584   8.024   6.509   3.354 -0.0662 -0.1866  0.0384
  177MOL   C11321585   7.781   6.623   3.259 -0.6049  0.4407  0.0650
  177MOL   H11421586   7.701   6.622   3.185 -2.0435  0.4142  1.5873
  177MOL   H11521587   7.743   6.550   3.330 -1.4004 -0.3672 -1.1924
  177MOL   C11621588   7.779   6.758   3.335  1.0660  0.8512 -0.8350
  177MOL  Cl11721589   7.623   6.781   3.412 -0.3245 -0.0647  0.1895
  177MOL  Cl11821590   7.789   6.896   3.221 -0.1943 -0.1873  0.1372
  177MOL   C11921591   7.886   6.774   3.444  0.5096  0.4729 -0.2027
  177MOL   H12021592   7.857   6.856   3.509 -0.2867 -1.4672  1.9689
  177MOL   H12121593   7.883   6.697   3.521 -0.7420  0.0066 -0.7108
  177MOL   H12221594   7.980   6.797   3.393 -0.1681 -0.2325 -1.8164
  178MOL     C121595   0.215   3.594   7.755  0.2646  0.4569 -0.2944
  178MOL    Cl221596   0.237   3.678   7.910 -0.2691 -0.0794  0.4349
  178MOL    Cl321597   0.052   3.634   7.703 -0.2308  0.0999  0.0044
  178MOL     C421598   0.321   3.640   7.659 -0.0017  1.1360  0.0392
  178MOL     H521599   0.275   3.653   7.561 -2.3013  2.2748  1.2245
  178MOL     H621600   0.344   3.744   7.683 -0.1265  1.0155  0.6986
  178MOL     H721601   0.216   3.488   7.777  2.4402  1.1078  3.0091
  178MOL     C821602   0.458   3.554   7.668 -0.8845  0.1231 -0.2164
  178MOL    Cl921603   0.427   3.381   7.633  0.1549  0.3010 -0.5411
  178MOL   Cl1021604   0.529   3.562   7.831  0.1964  0.0408 -0.3809
  178MOL    C1121605   0.560   3.600   7.564 -0.4114  0.1417 -0.1942
  178MOL    H1221606   0.615   3.685   7.603  0.7842 -1.1087  0.8782
  178MOL    H1321607   0.626   3.513   7.559 -1.0553 -0.4033  0.6207
  178MOL    C1421608   0.522   3.632   7.415  0.4629 -0.7060  0.2973
  178MOL   Cl1521609   0.473   3.805   7.413 -0.3043 -0.1972  0.1255
  178MOL   Cl1621610   0.399   3.522   7.362  0.1813  0.2889 -0.5135
  178MOL    C1721611   0.640   3.627   7.314  0.4898  0.0652  0.4136
  178MOL    H1821612   0.606   3.690   7.232 -1.5175  1.3751  2.2122
  178MOL    H1921613   0.722   3.679   7.363  1.4208 -0.7577 -0.2374
  178MOL    C2021614   0.689   3.488   7.248  0.5916 -0.1857  0.0883
  178MOL   Cl2121615   0.577   3.449   7.118 -0.0006 -0.2241  0.5539
  178MOL   Cl2221616   0.680   3.355   7.365 -0.4058  0.0221  0.0791
  178MOL    C2321617   0.821   3.494   7.180  0.5286 -0.0192  0.4701
  178MOL    H2421618   0.852   3.390   7.167 -0.6326 -0.2172 -0.7639
  178MOL    H2521619   0.810   3.538   7.082 -1.2020  0.2027  0.7413
  178MOL    C2621620   0.942   3.562   7.250 -0.0140  0.2644 -0.2586
  178MOL   Cl2721621   0.934   3.539   7.425  0.0484  0.2438 -0.0114
  178MOL   Cl2821622   0.928   3.738   7.236 -0.1384 -0.0658 -0.2019
  178MOL    C2921623   1.079   3.511   7.202  0.5436  1.0941 -0.4242
  178MOL    H3021624   1.143   3.572   7.267  0.5950  0.6265 -0.0292
  178MOL    H3121625   1.087   3.406   7.232 -1.9140  1.3241  1.1314
  178MOL    C3221626   1.124   3.517   7.055 -0.0285 -0.2900  0.4944
  178MOL   Cl3321627   1.127   3.679   6.995  0.0699 -0.1458  0.3470
  178MOL   Cl3421628   1.026   3.416   6.958  0.1579 -0.3023 -0.1458
  178MOL    C3521629   1.270   3.463   7.039 -0.3357 -0.2282 -0.2344
  178MOL    H3621630   1.278   3.442   6.932 -0.4393 -1.3317 -0.0301
  178MOL    H3721631   1.348   3.539   7.041  0.0635 -0.6607  0.9690
  178MOL    C3821632   1.325   3.332   7.114 -0.7545  0.4580  0.9686
  178MOL   Cl3921633   1.209   3.204   7.094 -0.1252  0.0550 -0.3371
  178MOL   Cl4021634   1.357   3.384   7.286  0.4123 -0.0659  0.0272
  178MOL    C4121635   1.460   3.287   7.049 -0.0633 -0.5343  0.2735
  178MOL    H4221636   1.435   3.250   6.950 -0.7792  0.5926  0.0238
  178MOL    H4321637   1.529   3.366   7.021 -0.7656 -0.6041 -1.7081
  178MOL    C4421638   1.555   3.182   7.130 -0.5244 -0.2557 -0.3666
  178MOL   Cl4521639   1.643   3.267   7.266  0.0938 -0.1453 -0.1669
  178MOL   Cl4621640   1.687   3.137   7.019 -0.0756 -0.2890 -0.1938
  178MOL    C4721641   1.483   3.061   7.183  0.0456 -0.5880  0.3834
  178MOL    H4821642   1.432   3.093   7.274  0.4098  2.6256 -0.4898
  178MOL    H4921643   1.402   3.030   7.116 -0.6853  0.1364  0.9235
  178MOL    C5021644   1.555   2.929   7.221  0.4863  0.6147 -0.5872
  178MOL   Cl5121645   1.585   2.832   7.077 -0.1612  0.0471 -0.1144
  178MOL   Cl5221646   1.444   2.838   7.318 -0.3316  0.3707 -0.1641
  178MOL    C5321647   1.686   2.952   7.291 -0.0475  0.0595  0.6729
  178MOL    H5421648   1.754   3.021   7.242 -0.8919  0.1803 -0.3433
  178MOL    H5521649   1.649   2.984   7.388  1.3277  1.4680  0.7530
  178MOL    C5621650   1.786   2.838   7.331 -0.5542 -0.1802 -0.2553
  178MOL   Cl5721651   1.710   2.705   7.421  0.0725  0.1337 -0.0063
  178MOL   Cl5821652   1.899   2.910   7.449  0.0398 -0.0090  0.0401
  178MOL    C5921653   1.868   2.786   7.204  0.0399  0.2529 -0.5693
  178MOL    H6021654   1.823   2.701   7.151  1.4631 -2.6363  2.6560
  178MOL    H6121655   1.885   2.866   7.132  1.3491 -0.1406 -0.7185
  178MOL    C6221656   2.012   2.721   7.221 -1.1046  0.4843  0.0304
  178MOL   Cl6321657   2.043   2.616   7.079  0.3358 -0.1046 -0.1335
  178MOL   Cl6421658   2.004   2.611   7.356  0.2576 -0.0052  0.5120
  178MOL    C6521659   2.135   2.821   7.227  0.6050 -0.2055  0.7952
  178MOL    H6621660   2.159   2.836   7.332 -0.1893  4.3878  0.4141
  178MOL    H6721661   2.224   2.770   7.189 -0.1941  0.6721 -2.4476
  178MOL    C6821662   2.141   2.953   7.139  0.1130 -0.7195 -0.1019
  178MOL   Cl6921663   2.040   3.084   7.203  0.0156  0.1336  0.0931
  178MOL   Cl7021664   2.088   2.934   6.967 -0.0856 -0.0040  0.3701
  178MOL    C7121665   2.286   3.018   7.144 -0.4252 -0.1617 -0.2573
  178MOL    H7221666   2.275   3.091   7.064 -1.0742  0.5970  0.5136
  178MOL    H7321667   2.300   3.071   7.238 -1.5441  0.0491 -0.1973
  178MOL    C7421668   2.417   2.939   7.112 -0.1092 -0.0627 -0.4291
  178MOL   Cl7521669   2.402   2.808   6.988 -0.3131 -0.0912 -0.0774
  178MOL   Cl7621670   2.481   2.873   7.271 -0.0949  0.1583  0.3434
  178MOL    C7721671   2.535   3.027   7.044 -0.0639  0.4631 -0.6566
  178MOL    H7821672   2.616   2.965   7.006 -1.2506 -0.9199 -0.9652
  178MOL    H7921673   2.497   3.053   6.946 -0.0893 -0.5857 -0.9236
  178MOL    C8021674   2.594   3.157   7.113  0.0636  0.0625  0.2681
  178MOL   Cl8121675   2.469   3.267   7.174 -0.0938  0.2725 -0.2134
  178MOL   Cl8221676   2.688   3.240   6.985 -0.5434 -0.0462  0.1346
  178MOL    C8321677   2.692   3.109   7.231  0.1008  0.0069  0.1434
  178MOL    H8421678   2.618   3.092   7.309  0.1881 -1.3178 -0.0377
  178MOL    H8521679   2.726   3.006   7.217 -1.0463 -0.1821 -1.3327
  178MOL    C8621680   2.803   3.201   7.288  1.0383 -0.0920  0.0668
  178MOL   Cl8721681   2.935   3.216   7.165 -0.0730 -0.1474  0.3349
  178MOL   Cl8821682   2.867   3.128   7.435  0.5870 -0.1058 -0.1350
  178MOL    C8921683   2.748   3.339   7.328 -0.1779 -0.0935  0.9625
  178MOL    H9021684   2.706   3.379   7.236  0.7448  0.7827  0.9124
  178MOL    H9121685   2.660   3.329   7.392 -1.0170 -2.0919 -0.4635
  178MOL    C9221686   2.828   3.459   7.382 -0.2362  0.5227 -0.1003
  178MOL   Cl9321687   2.878   3.429   7.548 -0.2656  0.2275 -0.2201
  178MOL   Cl9421688   2.706   3.594   7.383  0.2126  0.2590  0.4497
  178MOL    C9521689   2.950   3.505   7.298 -0.4513  0.0989 -0.0517
  178MOL    H9621690   3.004   3.418   7.263 -0.3034 -0.3943  1.3493
  178MOL    H9721691   2.927   3.568   7.212 -1.1081 -0.6126 -0.3933
  178MOL    C9821692   3.048   3.615   7.351 -0.5151  0.0294 -0.3550
  178MOL   Cl9921693   2.977   3.749   7.452  0.1953  0.3599  0.0677
  178MOL  Cl10021694   3.137   3.701   7.207  0.1668 -0.6770 -0.2000
  178MOL   C10121695   3.167   3.562   7.438 -0.7680 -0.0680  0.3409
  178MOL   H10221696   3.234   3.647   7.451  1.1398 -0.9761 -3.0413
  178MOL   H10321697   3.131   3.531   7.536  1.9042 -0.6928  1.1828
  178MOL   C10421698   3.256   3.443   7.397 -0.4061  0.5803 -0.1014
  178MOL  Cl10521699   3.301   3.451   7.226  0.2175 -0.4403 -0.1752
  178MOL  Cl10621700   3.175   3.283   7.421 -0.4088  0.3587 -0.2193
  178MOL   C10721701   3.395   3.423   7.471 -0.4900  0.2078  0.4497
  178MOL   H10821702   3.445   3.328   7.452 -0.9278 -0.3281  1.8825
  178MOL   H10921703   3.463   3.497   7.430 -1.3963  0.0790 -1.3666
  178MOL   C11021704   3.394   3.441   7.628  0.3128  0.7247  0.1040
  178MOL  Cl11121705   3.270   3.345   7.719 -0.2017  0.1204  0.3981
  178MOL  Cl11221706   3.380   3.612   7.664  0.8073 -0.0760 -0.2259
  178MOL   C11321707   3.523   3.385   7.700  0.4105 -0.5468 -0.3628
  178MOL   H11421708   3.524   3.410   7.806  0.1525  0.5774 -0.6163
  178MOL   H11521709   3.520   3.277   7.693  0.5675 -0.5952  0.3016
  178MOL   C11621710   3.662   3.417   7.638  0.0750 -0.3332 -0.3065
  178MOL  Cl11721711   3.684   3.585   7.613  0.1625 -0.2044  0.0330
  178MOL  Cl11821712   3.690   3.336   7.480 -0.0824 -0.1122 -0.2225
  178MOL   C11921713   3.783   3.369   7.723 -0.7125 -0.2431 -0.3056
  178MOL   H12021714   3.767   3.386   7.829  0.7881 -1.6731  0.1785
  178MOL   H12121715   3.800   3.261   7.718  1.3716  0.0607 -0.1675
  178MOL   H12221716   3.877   3.411   7.686 -0.8896 -0.0024 -0.4825
  179MOL     C121717   3.717   5.063   1.196  0.9489  0.2155 -0.2209
  179MOL    Cl221718   3.599   5.128   1.078 -0.0059  0.1086  0.3250
  179MOL    Cl321719   3.760   4.902   1.136  0.1071 -0.0829  0.1894
  179MOL     C421720   3.843   5.158   1.213 -0.6640  0.4090  1.2213
  179MOL     H521721   3.872   5.192   1.114 -0.4461 -2.1182  0.3715
  179MOL     H621722   3.811   5.249   1.263  0.5740  1.9156 -0.6610
  179MOL     H721723   3.656   5.054   1.286 -0.0205  0.3463 -0.8600
  179MOL     C821724   3.977   5.097   1.279  0.7812 -0.1096  0.7788
  179MOL    Cl921725   4.048   4.975   1.175  0.4517 -0.2073 -0.0809
  179MOL   Cl1021726   3.925   5.006   1.422 -0.5224  0.1068  0.1110
  179MOL    C1121727   4.079   5.206   1.332  0.2536 -0.3611  0.0660
  179MOL    H1221728   4.033   5.257   1.416 -1.3293  0.6733 -1.4129
  179MOL    H1321729   4.154   5.152   1.391 -0.6448 -1.6731  0.0387
  179MOL    C1421730   4.136   5.315   1.237  0.6564 -1.3527  0.0577
  179MOL   Cl1521731   4.012   5.434   1.191  0.2655 -0.2173  0.2464
  179MOL   Cl1621732   4.196   5.237   1.084 -0.0843  0.1552 -0.2149
  179MOL    C1721733   4.256   5.390   1.307 -0.6514  0.4169  0.3197
  179MOL    H1821734   4.223   5.434   1.401 -0.7198  1.8091 -0.3383
  179MOL    H1921735   4.334   5.319   1.333 -1.1993 -0.4067 -0.2565
  179MOL    C2021736   4.343   5.498   1.229  0.0144  0.1382 -0.3205
  179MOL   Cl2121737   4.467   5.536   1.354  0.0731 -0.4099 -0.1072
  179MOL   Cl2221738   4.242   5.644   1.205  0.0092  0.3553  0.2621
  179MOL    C2321739   4.426   5.454   1.108 -0.0764 -0.0022  0.8613
  179MOL    H2421740   4.484   5.366   1.136  2.2990  1.7932  1.8050
  179MOL    H2521741   4.357   5.435   1.026 -0.8238 -0.1791  1.5247
  179MOL    C2621742   4.538   5.557   1.042 -0.2310 -0.2482  0.3099
  179MOL   Cl2721743   4.596   5.463   0.896 -0.2009  0.0501 -0.0872
  179MOL   Cl2821744   4.686   5.579   1.146  0.0895  0.2094  0.0478
  179MOL    C2921745   4.490   5.700   0.990  0.3351 -0.0798 -0.0098
  179MOL    H3021746   4.445   5.752   1.075 -0.1989  0.1411 -0.4218
  179MOL    H3121747   4.581   5.755   0.968  0.1769 -0.4293 -1.6168
  179MOL    C3221748   4.396   5.717   0.861  0.4713  0.3796 -0.4500
  179MOL   Cl3321749   4.333   5.880   0.876 -0.1671 -0.1292  0.1758
  179MOL   Cl3421750   4.262   5.595   0.855 -0.0224  0.0029  0.2233
  179MOL    C3521751   4.473   5.718   0.725 -0.5123  0.3675 -0.0336
  179MOL    H3621752   4.550   5.795   0.732  2.7320 -2.8634  2.0345
  179MOL    H3721753   4.522   5.621   0.713  0.0626  0.4954  1.2262
  179MOL    C3821754   4.405   5.734   0.585 -0.0607  0.2127 -0.0559
  179MOL   Cl3921755   4.336   5.572   0.560 -0.2023 -0.1151  0.3585
  179MOL   Cl4021756   4.539   5.761   0.468  0.1655  0.2643  0.2097
  179MOL    C4121757   4.287   5.841   0.582  0.9918  0.3204  0.0756
  179MOL    H4221758   4.210   5.816   0.655 -1.2953 -0.4202 -2.5280
  179MOL    H4321759   4.335   5.932   0.618  0.4721  0.3167  0.7877
  179MOL    C4421760   4.220   5.882   0.454 -0.4192  0.0257 -0.3812
  179MOL   Cl4521761   4.342   5.955   0.345  0.0791 -0.1108  0.0543
  179MOL   Cl4621762   4.116   6.022   0.507 -0.0404 -0.0375  0.0516
  179MOL    C4721763   4.138   5.771   0.388  0.0573 -0.0673 -0.2277
  179MOL    H4821764   4.208   5.706   0.337 -1.1445 -0.6260 -1.2176
  179MOL    H4921765   4.082   5.711   0.459 -1.1573 -0.7028 -1.6912
  179MOL    C5021766   4.020   5.800   0.293 -0.6198  0.2798  0.2100
  179MOL   Cl5121767   4.010   5.666   0.176 -0.1941 -0.1883  0.1478
  179MOL   Cl5221768   4.052   5.947   0.204 -0.6482  0.0429  0.2951
  179MOL    C5321769   3.884   5.801   0.366 -0.0547 -0.2111 -0.3767
  179MOL    H5421770   3.858   5.698   0.390  0.2443 -0.3308 -0.5753
  179MOL    H5521771   3.901   5.844   0.465  2.3313 -0.4195 -0.6714
  179MOL    C5621772   3.758   5.886   0.313  0.2027 -0.8982 -0.4017
  179MOL   Cl5721773   3.791   6.062   0.327  0.0480 -0.1093  0.0135
  179MOL   Cl5821774   3.632   5.848   0.426  0.1216  0.3022 -0.1518
  179MOL    C5921775   3.725   5.843   0.169  0.4544 -0.2487  0.0900
  179MOL    H6021776   3.818   5.841   0.111  1.7914  1.4935  2.1292
  179MOL    H6121777   3.685   5.744   0.193 -2.6775  1.0889  0.5338
  179MOL    C6221778   3.609   5.914   0.088  0.1001  0.5382  0.0375
  179MOL   Cl6321779   3.630   6.092   0.071 -0.0983  0.0872 -0.3228
  179MOL   Cl6421780   3.459   5.919   0.185  0.1379  0.0468 -0.3708
  179MOL    C6521781   3.572   5.859   9.127 -0.3480 -1.0332 -0.5377
  179MOL    H6621782   3.486   5.909   9.083  0.8766  0.7102 -1.0120
  179MOL    H6721783   3.643   5.885   9.048  0.3751 -1.2949  0.0225
  179MOL    C6821784   3.560   5.705   9.107 -0.1311  0.1191  0.1396
  179MOL   Cl6921785   3.455   5.635   0.050 -0.2280  0.1431 -0.2782
  179MOL   Cl7021786   3.719   5.626   9.122 -0.4564 -0.0505 -0.1352
  179MOL    C7121787   3.496   5.672   8.967 -0.3149  0.3389 -0.1677
  179MOL    H7221788   3.492   5.563   8.963  0.9359  0.3040 -0.6696
  179MOL    H7321789   3.394   5.707   8.976 -0.7817 -0.4803 -2.0913
  179MOL    C7421790   3.560   5.719   8.834  0.7139 -0.6693  0.7112
  179MOL   Cl7521791   3.732   5.690   8.814  0.1750 -0.5304  0.1703
  179MOL   Cl7621792   3.536   5.895   8.815 -0.1046 -0.1904 -0.6696
  179MOL    C7721793   3.500   5.646   8.703  0.0443 -0.8240 -0.9777
  179MOL    H7821794   3.540   5.699   8.616 -0.2275 -1.1686 -1.3144
  179MOL    H7921795   3.539   5.545   8.696  0.1214 -0.9679  1.2336
  179MOL    C8021796   3.346   5.638   8.684 -0.0420  0.4339 -0.5704
  179MOL   Cl8121797   3.255   5.788   8.712  0.0950 -0.3497 -0.0312
  179MOL   Cl8221798   3.280   5.515   8.794  0.2542  0.2492  0.2127
  179MOL    C8321799   3.309   5.582   8.542  0.4452  0.2811 -0.1676
  179MOL    H8421800   3.346   5.479   8.543 -1.2361 -0.3947 -2.8455
  179MOL    H8521801   3.200   5.576   8.540  0.3828  1.5879 -0.5289
  179MOL    C8621802   3.359   5.650   8.413 -1.1746 -0.2971  0.1371
  179MOL   Cl8721803   3.520   5.582   8.379  0.0635 -0.4005 -0.3235
  179MOL   Cl8821804   3.377   5.832   8.418 -0.3763  0.0612  0.1020
  179MOL    C8921805   3.274   5.608   8.282  0.2479  0.1457  0.4109
  179MOL    H9021806   3.188   5.673   8.291 -0.5113 -0.8318  0.3165
  179MOL    H9121807   3.331   5.649   8.198  0.4630  0.0413  0.5046
  179MOL    C9221808   3.233   5.465   8.236  0.5598 -0.1388  0.3445
  179MOL   Cl9321809   3.134   5.382   8.360 -0.2917 -0.1155 -0.1336
  179MOL   Cl9421810   3.387   5.367   8.205  0.1928 -0.0700 -0.0790
  179MOL    C9521811   3.143   5.461   8.112  0.6112 -0.5561 -0.4081
  179MOL    H9621812   3.150   5.355   8.085  2.3028 -0.8448  1.0566
  179MOL    H9721813   3.034   5.468   8.122  0.7562 -0.9922  1.8242
  179MOL    C9821814   3.170   5.534   7.977 -0.5010 -0.2784 -0.6346
  179MOL   Cl9921815   3.347   5.545   7.936 -0.0056 -0.1245  0.1272
  179MOL  Cl10021816   3.128   5.708   7.998  0.2729  0.1279 -0.3148
  179MOL   C10121817   3.086   5.474   7.858  0.0764  0.3613 -0.0747
  179MOL   H10221818   2.987   5.464   7.902  1.3083 -1.9811  2.3702
  179MOL   H10321819   3.079   5.545   7.776 -0.6840 -1.1670 -1.3565
  179MOL   C10421820   3.125   5.337   7.781  0.6504  0.3886  0.2918
  179MOL  Cl10521821   3.262   5.386   7.675 -0.2103  0.0682  0.2976
  179MOL  Cl10621822   2.983   5.310   7.676 -0.0777  0.4235 -0.1473
  179MOL   C10721823   3.157   5.215   7.868 -0.3924  0.6356 -0.3340
  179MOL   H10821824   3.255   5.235   7.912 -0.0676 -1.2640 -0.1418
  179MOL   H10921825   3.092   5.215   7.955  0.6094 -1.9863  0.4765
  179MOL   C11021826   3.157   5.059   7.810  0.0665 -0.2045 -0.5654
  179MOL  Cl11121827   3.226   4.950   7.943  0.3578  0.0130  0.0018
  179MOL  Cl11221828   3.259   5.050   7.667  0.2632 -0.3825 -0.0031
  179MOL   C11321829   3.021   4.988   7.772  0.0093 -1.2060 -0.4098
  179MOL   H11421830   2.986   5.047   7.688  0.1984  1.9677  1.6632
  179MOL   H11521831   3.042   4.887   7.736  0.2359 -1.3228  0.0518
  179MOL   C11621832   2.905   4.974   7.877 -0.3220 -0.3856 -0.3002
  179MOL  Cl11721833   2.851   5.137   7.922 -0.4610 -0.2468  0.0817
  179MOL  Cl11821834   2.935   4.867   8.022  0.0685  0.1578 -0.2860
  179MOL   C11921835   2.779   4.914   7.808  0.4441  0.1259 -0.4734
  179MOL   H12021836   2.796   4.808   7.791 -0.3788 -0.0843 -0.0192
  179MOL   H12121837   2.698   4.920   7.881  0.8700  0.2519 -0.0104
  179MOL   H12221838   2.753   4.964   7.714  4.4520 -0.0290 -1.7560
  180MOL     C121839   0.014   4.949   5.048 -0.1763  0.3982 -0.1190
  180MOL    Cl221840   0.008   4.975   4.870  0.0898 -0.0378 -0.3712
  180MOL    Cl321841   0.142   5.063   5.104 -0.0680  0.3968  0.9022
  180MOL     C421842   9.057   4.974   5.114  0.3455 -0.3663  0.1015
  180MOL     H521843   9.043   5.082   5.105  0.2353 -0.3630  0.3282
  180MOL     H621844   8.987   4.923   5.049  0.2688 -0.3652  0.1846
  180MOL     H721845   0.051   4.848   5.066  0.5497  0.7113  0.1569
  180MOL     C821846   9.025   4.936   5.262  0.0774  0.2778 -0.3163
  180MOL    Cl921847   9.120   5.038   5.368  0.1548 -0.1245  0.0650
  180MOL   Cl1021848   9.069   4.768   5.285  0.1329 -0.3542  0.4073
  180MOL    C1121849   8.874   4.960   5.295  0.6805  1.0931 -0.2728
  180MOL    H1221850   8.854   5.066   5.284 -0.4936  0.9459  0.3489
  180MOL    H1321851   8.829   4.904   5.213 -1.5746  3.8034 -0.9697
  180MOL    C1421852   8.804   4.915   5.434  0.0407 -0.5669  0.1158
  180MOL   Cl1521853   8.774   4.735   5.434 -0.0691 -0.1511 -0.3219
  180MOL   Cl1621854   8.648   5.000   5.426 -0.3094  0.5739 -0.1011
  180MOL    C1721855   8.885   4.955   5.566  0.1958  0.0377 -0.2853
  180MOL    H1821856   8.979   4.904   5.547 -1.2556 -2.1578 -1.8421
  180MOL    H1921857   8.900   5.063   5.566  2.2339 -0.2360 -0.3161
  180MOL    C2021858   8.848   4.920   5.711  0.4470 -0.1674  0.7028
  180MOL   Cl2121859   8.991   4.971   5.808 -0.4615  0.0525 -0.3540
  180MOL   Cl2221860   8.835   4.739   5.723  0.2748  0.0295  0.1388
  180MOL    C2321861   8.715   4.990   5.759  0.3653 -0.0028  0.5584
  180MOL    H2421862   8.745   5.093   5.777  3.4120 -0.8267  0.4796
  180MOL    H2521863   8.647   5.019   5.678  3.0375  0.4984 -1.5746
  180MOL    C2621864   8.644   4.936   5.891 -0.0945  0.2957  0.1537
  180MOL   Cl2721865   8.549   4.799   5.858 -0.0337 -0.0255  0.1033
  180MOL   Cl2821866   8.523   5.063   5.932 -0.0382  0.2738 -0.0922
  180MOL    C2921867   8.742   4.912   6.009 -0.1198 -0.1992  0.5755
  180MOL    H3021868   8.802   4.822   5.995  2.9874  1.8244  0.4748
  180MOL    H3121869   8.814   4.994   6.001  1.1416 -1.4223 -0.8536
  180MOL    C3221870   8.694   4.892   6.160 -0.2300  0.6468  0.0411
  180MOL   Cl3321871   8.668   5.051   6.228 -0.0799  0.2527 -0.2721
  180MOL   Cl3421872   8.830   4.812   6.246 -0.1433  0.1278 -0.4885
  180MOL    C3521873   8.569   4.809   6.179 -0.1111 -0.2363 -0.2835
  180MOL    H3621874   8.489   4.876   6.148  1.5144  1.9092  0.0803
  180MOL    H3721875   8.574   4.722   6.113  0.6509 -0.9613  0.7232
  180MOL    C3821876   8.531   4.751   6.320 -0.2933 -0.3416  0.3423
  180MOL   Cl3921877   8.620   4.599   6.341  0.1531  0.3599  0.1333
  180MOL   Cl4021878   8.360   4.698   6.302 -0.0625  0.1394 -0.0132
  180MOL    C4121879   8.561   4.857   6.434  0.0728  0.6126 -0.1837
  180MOL    H4221880   8.667   4.865   6.456 -0.7107  0.8001  3.8503
  180MOL    H4321881   8.524   4.954   6.401 -1.4926 -0.4815 -1.7952
  180MOL    C4421882   8.512   4.824   6.578 -0.3614 -0.6745  0.0146
  180MOL   Cl4521883   8.564   4.660   6.637  0.3037 -0.1401  0.1239
  180MOL   Cl4621884   8.332   4.825   6.588 -0.2777  0.0743 -0.0846
  180MOL    C4721885   8.570   4.930   6.674 -0.1822  0.2822 -0.5726
  180MOL    H4821886   8.518   5.020   6.641 -1.0252  0.7371  1.8590
  180MOL    H4921887   8.513   4.919   6.766 -0.9908 -1.1790 -1.2226
  180MOL    C5021888   8.726   4.949   6.697  0.4576 -0.8286 -0.3899
  180MOL   Cl5121889   8.781   5.062   6.568 -0.1264  0.4642 -0.1890
  180MOL   Cl5221890   8.829   4.800   6.674  0.1838  0.0592  0.0412
  180MOL    C5321891   8.754   5.026   6.825 -0.3031  0.1588  0.5586
  180MOL    H5421892   8.860   5.008   6.844 -0.3568  1.2597  2.0314
  180MOL    H5521893   8.741   5.132   6.801  1.5343  0.1888 -0.4434
  180MOL    C5621894   8.693   4.991   6.964 -0.8696  0.1758 -0.1748
  180MOL   Cl5721895   8.661   4.813   6.969 -0.1186  0.3869  0.3027
  180MOL   Cl5821896   8.530   5.062   6.980 -0.1767  0.0276 -0.0768
  180MOL    C5921897   8.775   5.035   7.092 -0.2475  0.6138 -0.1499
  180MOL    H6021898   8.704   5.023   7.174 -0.6023 -0.4493 -0.6033
  180MOL    H6121899   8.851   4.958   7.104 -1.6344 -0.4952  1.9572
  180MOL    C6221900   8.836   5.184   7.094  0.2501 -0.6387  0.2061
  180MOL   Cl6321901   8.722   5.315   7.062  0.0086 -0.2160  0.1582
  180MOL   Cl6421902   8.964   5.202   6.969  0.1968  0.5186 -0.0720
  180MOL    C6521903   8.914   5.208   7.222  0.8381 -0.4575 -0.0963
  180MOL    H6621904   9.012   5.160   7.223  0.2323 -1.8014 -2.2902
  180MOL    H6721905   8.941   5.313   7.215 -4.0608  0.8071 -1.5103
  180MOL    C6821906   8.854   5.207   7.364  0.1398  0.8227  0.3259
  180MOL   Cl6921907   8.989   5.265   7.463  0.1790  0.1750  0.1173
  180MOL   Cl7021908   8.819   5.035   7.406 -0.2078 -0.0593 -0.5703
  180MOL    C7121909   8.727   5.297   7.383 -0.2565  0.3809 -0.0993
  180MOL    H7221910   8.736   5.386   7.321 -2.2609  0.3346 -0.4779
  180MOL    H7321911   8.644   5.232   7.354  0.4747 -0.1007 -1.1442
  180MOL    C7421912   8.686   5.349   7.521  0.7965  0.0767  0.1856
  180MOL   Cl7521913   8.781   5.494   7.580 -0.2020 -0.1813  0.1191
  180MOL   Cl7621914   8.703   5.225   7.649 -0.3338  0.4229  0.1357
  180MOL    C7721915   8.533   5.393   7.513 -0.6044  0.0107 -0.0998
  180MOL    H7821916   8.475   5.301   7.506  0.3576 -0.4758 -1.8019
  180MOL    H7921917   8.515   5.421   7.617  2.2019  0.3177  0.3324
  180MOL    C8021918   8.475   5.495   7.407 -0.0114 -0.2084 -0.1140
  180MOL   Cl8121919   8.455   5.411   7.242 -0.1735  0.0826  0.0517
  180MOL   Cl8221920   8.572   5.642   7.362  0.2509  0.2666 -0.1034
  180MOL    C8321921   8.337   5.546   7.435 -0.0503  0.0524 -0.1781
  180MOL    H8421922   8.346   5.630   7.503  0.7094  0.1295 -0.3669
  180MOL    H8521923   8.287   5.576   7.343  0.1307  1.9394  0.3197
  180MOL    C8621924   8.223   5.463   7.509  0.0198 -0.3874  0.0622
  180MOL   Cl8721925   8.259   5.450   7.675 -0.4887  0.1685  0.0902
  180MOL   Cl8821926   8.202   5.299   7.450  0.1203  0.2314  0.0283
  180MOL    C8921927   8.085   5.536   7.505 -0.7467  0.3253  0.4422
  180MOL    H9021928   8.041   5.528   7.605 -1.9117  2.1605  0.1231
  180MOL    H9121929   8.106   5.643   7.502  0.0340  0.1339 -1.0656
  180MOL    C9221930   7.970   5.504   7.400  0.2877  0.3205 -0.5632
  180MOL   Cl9321931   8.041   5.482   7.233  0.4908 -0.0684 -0.0284
  180MOL   Cl9421932   7.866   5.653   7.402 -0.1769  0.2538 -0.1325
  180MOL    C9521933   7.879   5.386   7.454  0.0944  0.4604 -0.0991
  180MOL    H9621934   7.938   5.300   7.485 -0.4210  1.0309  2.6081
  180MOL    H9721935   7.824   5.423   7.540 -0.3374 -0.5377  0.0689
  180MOL    C9821936   7.768   5.325   7.366  0.3249 -0.6657  0.2532
  180MOL   Cl9921937   7.865   5.234   7.242 -0.2302  0.1269  0.0601
  180MOL  Cl10021938   7.671   5.459   7.299  0.0613  0.2090 -0.0264
  180MOL   C10121939   7.669   5.229   7.450 -0.9805 -0.3002 -0.0626
  180MOL   H10221940   7.728   5.166   7.517  0.5109 -0.8674 -1.8714
  180MOL   H10321941   7.613   5.301   7.510 -0.8121 -0.4150  0.2376
  180MOL   C10421942   7.574   5.141   7.372  0.2038 -0.6132  0.2778
  180MOL  Cl10521943   7.461   5.089   7.503 -0.0919 -0.1941  0.1945
  180MOL  Cl10621944   7.650   4.987   7.315 -0.2218 -0.6581  0.2060
  180MOL   C10721945   7.502   5.209   7.263  1.2078  0.2502  1.0176
  180MOL   H10821946   7.467   5.299   7.313  0.5418  0.7890 -0.3964
  180MOL   H10921947   7.569   5.226   7.179  0.6027 -0.0724  0.4719
  180MOL   C11021948   7.367   5.151   7.202  0.2908  0.4857  0.2345
  180MOL  Cl11121949   7.224   5.213   7.303 -0.0097 -0.0502  0.3363
  180MOL  Cl11221950   7.366   4.973   7.203 -0.2739 -0.4930 -0.4972
  180MOL   C11321951   7.339   5.193   7.051  0.0650  0.7420  0.9712
  180MOL   H11421952   7.422   5.145   6.998  0.1714  0.0419  1.7629
  180MOL   H11521953   7.247   5.142   7.022  0.3313 -0.6250  2.4446
  180MOL   C11621954   7.336   5.331   6.998  0.2188 -0.4928 -0.2826
  180MOL  Cl11721955   7.488   5.427   7.027 -0.4461 -0.1265  0.3815
  180MOL  Cl11821956   7.196   5.421   7.059 -0.4014  0.2280  0.3792
  180MOL   C11921957   7.318   5.330   6.846  0.2834  0.0404  0.3376
  180MOL   H12021958   7.227   5.273   6.824  0.4317 -0.0476 -0.0427
  180MOL   H12121959   7.318   5.429   6.801  2.5385 -0.0657  0.0587
  180MOL   H12221960   7.407   5.280   6.808 -0.5774 -0.2061 -1.4021
  181MOL     C121961   6.927   2.552   5.136 -0.3404  0.1823 -0.7177
  181MOL    Cl221962   6.811   2.611   5.018 -0.0333  0.1566 -0.2530
  181MOL    Cl321963   7.088   2.547   5.065  0.2736 -0.2534  0.0563
  181MOL     C421964   6.926   2.652   5.258 -0.3935 -0.7581 -0.5761
  181MOL     H521965   7.023   2.650   5.308  0.3228  1.1725 -1.8322
  181MOL     H621966   6.906   2.750   5.215 -1.8312 -1.4786 -1.6055
  181MOL     H721967   6.900   2.447   5.151 -0.6898  0.3797  0.0184
  181MOL     C821968   6.813   2.632   5.361 -0.5745  0.1065 -0.3384
  181MOL    Cl921969   6.812   2.463   5.416 -0.2908  0.0859 -0.0272
  181MOL   Cl1021970   6.668   2.675   5.282 -0.4778 -0.1863 -0.0840
  181MOL    C1121971   6.835   2.721   5.486 -0.5861 -0.1820  0.2543
  181MOL    H1221972   6.912   2.675   5.548 -0.0528  1.4371  0.8066
  181MOL    H1321973   6.879   2.815   5.455 -0.7950 -0.8993 -2.3128
  181MOL    C1421974   6.715   2.762   5.587 -0.4728  0.3564  0.1898
  181MOL   Cl1521975   6.647   2.908   5.512  0.4807  0.3069  0.1223
  181MOL   Cl1621976   6.794   2.791   5.746  0.3050 -0.0302  0.4854
  181MOL    C1721977   6.607   2.647   5.607  0.2005  0.4454  0.6220
  181MOL    H1821978   6.552   2.645   5.513 -1.3845  1.7693  1.5022
  181MOL    H1921979   6.651   2.547   5.609 -1.3878 -0.3312 -1.2409
  181MOL    C2021980   6.500   2.671   5.713  0.2772 -0.1812 -0.0885
  181MOL   Cl2121981   6.562   2.632   5.874  0.2361 -0.2741 -0.0692
  181MOL   Cl2221982   6.369   2.550   5.678 -0.4166  0.0107 -0.2808
  181MOL    C2321983   6.438   2.807   5.715  0.7053  0.3273  0.3666
  181MOL    H2421984   6.517   2.882   5.723  3.4095 -1.9114 -3.6906
  181MOL    H2521985   6.408   2.830   5.613 -0.2843 -0.0036  0.5710
  181MOL    C2621986   6.313   2.848   5.806 -0.6666  0.5042  0.0305
  181MOL   Cl2721987   6.152   2.780   5.757 -0.3908 -0.0322 -0.3457
  181MOL   Cl2821988   6.315   3.021   5.780  0.3708  0.1796  0.0348
  181MOL    C2921989   6.334   2.821   5.959  0.5817 -0.0905 -0.7791
  181MOL    H3021990   6.332   2.712   5.966 -0.5604 -0.0099  0.2657
  181MOL    H3121991   6.429   2.871   5.977 -1.7775  3.9248  1.1897
  181MOL    C3221992   6.237   2.866   6.070  0.3519  0.1541 -0.7865
  181MOL   Cl3321993   6.083   2.770   6.070  0.2723 -0.0207 -0.1280
  181MOL   Cl3421994   6.176   3.039   6.042  0.1311  0.5060 -0.3327
  181MOL    C3521995   6.306   2.869   6.217 -0.7340 -0.0546  0.3927
  181MOL    H3621996   6.401   2.920   6.203 -0.6315 -0.0723  1.0137
  181MOL    H3721997   6.254   2.943   6.278  0.7326 -0.2039  1.8561
  181MOL    C3821998   6.339   2.742   6.301  0.5549  0.2554  0.1547
  181MOL   Cl3921999   6.434   2.631   6.205 -0.0264 -0.3246  0.0201
  181MOL   Cl4022000   6.182   2.671   6.349  0.5421  0.0178 -0.1961
  181MOL    C4122001   6.421   2.791   6.423  0.2303 -0.4631  0.0241
  181MOL    H4222002   6.519   2.810   6.380  0.2804 -3.5980 -1.4525
  181MOL    H4322003   6.394   2.891   6.454  0.6084  0.4363 -2.4283
  181MOL    C4422004   6.439   2.704   6.554 -0.1683 -0.2345 -0.4085
  181MOL   Cl4522005   6.461   2.536   6.516 -0.0693  0.1007  0.1493
  181MOL   Cl4622006   6.295   2.733   6.662  0.1537 -0.3432  0.1308
  181MOL    C4722007   6.571   2.740   6.636 -0.0127 -0.6528  0.0283
  181MOL    H4822008   6.573   2.676   6.724  2.1907 -0.2230  0.3053
  181MOL    H4922009   6.653   2.702   6.576  1.5010  2.7951 -0.1950
  181MOL    C5022010   6.608   2.887   6.675  0.0744 -0.5609 -0.1283
  181MOL   Cl5122011   6.473   3.006   6.680  0.0869 -0.0664 -0.6107
  181MOL   Cl5222012   6.714   2.954   6.551  0.1133  0.1349  0.3058
  181MOL    C5322013   6.669   2.875   6.819 -0.6880  0.3848  0.1518
  181MOL    H5422014   6.604   2.810   6.877 -1.2409 -0.2044 -1.1072
  181MOL    H5522015   6.763   2.822   6.798  0.8714  3.6900 -1.5078
  181MOL    C5622016   6.698   2.993   6.911  0.0644 -0.0067  1.0241
  181MOL   Cl5722017   6.549   3.040   6.996 -0.0318 -0.4058  0.0128
  181MOL   Cl5822018   6.759   3.140   6.818  0.4176  0.3601  0.5119
  181MOL    C5922019   6.801   2.971   7.019  0.5235  0.0129 -0.1209
  181MOL    H6022020   6.782   3.043   7.099  0.5734 -1.8125  1.5739
  181MOL    H6122021   6.768   2.877   7.064 -0.3551  1.4487  2.3130
  181MOL    C6222022   6.954   2.953   6.989 -0.3764  0.7024 -0.5083
  181MOL   Cl6322023   6.995   2.902   6.823  0.1046  0.2112  0.0139
  181MOL   Cl6422024   7.006   2.820   7.102 -0.0235  0.1453  0.2354
  181MOL    C6522025   7.038   3.083   7.022 -0.1319 -0.5272 -0.3204
  181MOL    H6622026   6.998   3.152   6.948 -2.4023 -0.8320  0.5727
  181MOL    H6722027   7.011   3.126   7.119 -0.0139 -0.6698 -0.2229
  181MOL    C6822028   7.192   3.090   7.017 -0.5725  0.6440 -0.1251
  181MOL   Cl6922029   7.253   2.997   7.160  0.0336  0.0635  0.4816
  181MOL   Cl7022030   7.244   3.255   7.049  0.1834 -0.2151  0.2247
  181MOL    C7122031   7.270   3.033   6.899  0.2350  0.0139 -1.1192
  181MOL    H7222032   7.374   3.024   6.929  0.1408 -0.8362 -1.0229
  181MOL    H7322033   7.247   2.927   6.887 -3.6721  0.4800  1.2822
  181MOL    C7422034   7.286   3.102   6.764 -0.4046  0.2521  0.2392
  181MOL   Cl7522035   7.419   3.220   6.787  0.1356  0.2006  0.0793
  181MOL   Cl7622036   7.144   3.207   6.725  0.4228 -0.0626 -0.0668
  181MOL    C7722037   7.330   2.994   6.652  0.2012 -0.2188  0.5252
  181MOL    H7822038   7.435   2.973   6.672  0.7381 -2.4794 -3.8442
  181MOL    H7922039   7.273   2.901   6.665  1.4062 -1.3467 -1.9151
  181MOL    C8022040   7.318   3.040   6.502 -0.2467 -0.2599 -0.6599
  181MOL   Cl8122041   7.397   3.199   6.475  0.1174 -0.1156 -0.0800
  181MOL   Cl8222042   7.140   3.054   6.464  0.1769  0.0662 -0.5933
  181MOL    C8322043   7.377   2.939   6.405 -0.2051 -0.1077  0.2959
  181MOL    H8422044   7.355   2.971   6.303 -0.4031  0.0926  0.4020
  181MOL    H8522045   7.485   2.940   6.417 -0.3918 -0.8194  2.1746
  181MOL    C8622046   7.346   2.784   6.417  0.3309 -0.0720  0.0807
  181MOL   Cl8722047   7.438   2.707   6.554  0.3291 -0.2185  0.0497
  181MOL   Cl8822048   7.425   2.709   6.277  0.1937  0.2177  0.3657
  181MOL    C8922049   7.199   2.739   6.428 -0.3682  0.0777  0.2759
  181MOL    H9022050   7.198   2.640   6.473 -0.5488 -0.5526 -1.0733
  181MOL    H9122051   7.156   2.790   6.514  2.0292 -2.4092  3.0515
  181MOL    C9222052   7.102   2.742   6.307  0.0647  0.3440  0.2322
  181MOL   Cl9322053   7.147   2.873   6.184 -0.3059  0.1500  0.2234
  181MOL   Cl9422054   6.937   2.780   6.367  0.2592 -0.1499 -0.2608
  181MOL    C9522055   7.094   2.611   6.221  0.8575 -0.8164  0.2841
  181MOL    H9622056   7.004   2.642   6.167  0.0365  3.5129  3.9326
  181MOL    H9722057   7.179   2.605   6.152 -2.4378  0.1159 -4.1053
  181MOL    C9822058   7.066   2.476   6.285  0.1978  0.2013 -0.1302
  181MOL   Cl9922059   6.957   2.480   6.427 -0.3193  0.0132 -0.0897
  181MOL  Cl10022060   7.228   2.412   6.323  0.1054  0.0903 -0.1585
  181MOL   C10122061   6.990   2.380   6.179  1.1562  0.2727 -0.1590
  181MOL   H10222062   7.058   2.330   6.110 -1.0780 -1.8137 -0.9005
  181MOL   H10322063   6.945   2.297   6.232  1.2352  0.3363  0.0059
  181MOL   C10422064   6.878   2.433   6.083  0.2990  0.2397 -0.6802
  181MOL  Cl10522065   6.939   2.532   5.941 -0.6515 -0.1116  0.1239
  181MOL  Cl10622066   6.765   2.533   6.176 -0.7390 -0.0292  0.1256
  181MOL   C10722067   6.782   2.322   6.032  0.2785  0.0811 -0.1894
  181MOL   H10822068   6.709   2.294   6.107 -0.4556  3.0044  0.2445
  181MOL   H10922069   6.714   2.377   5.967 -0.4083  2.5204  2.4893
  181MOL   C11022070   6.841   2.199   5.953 -0.3817  0.0090  0.3391
  181MOL  Cl11122071   6.917   2.078   6.064 -0.2377  0.0364  0.1089
  181MOL  Cl11222072   6.969   2.235   5.828  0.5273 -0.1716  0.1066
  181MOL   C11322073   6.729   2.113   5.884 -0.0594 -0.3392 -0.5021
  181MOL   H11422074   6.778   2.022   5.849 -0.5602 -1.2371  1.0458
  181MOL   H11522075   6.662   2.076   5.963  2.5889 -0.9569  1.5380
  181MOL   C11622076   6.632   2.172   5.780  0.1858 -0.4185  0.6653
  181MOL  Cl11722077   6.506   2.265   5.870  0.5705 -0.1227 -0.4734
  181MOL  Cl11822078   6.546   2.043   5.687 -0.0403 -0.2019  0.1620
  181MOL   C11922079   6.695   2.260   5.671 -0.0495  0.0045  0.0212
  181MOL   H12022080   6.626   2.282   5.589  0.6561 -0.2247 -0.6360
  181MOL   H12122081   6.749   2.346   5.710 -1.0439  0.8226 -0.3775
  181MOL   H12222082   6.782   2.213   5.626  1.6761  1.0954  2.1392
  182MOL     C122083   8.968   0.188   5.237  0.3729 -0.2575 -0.1958
  182MOL    Cl222084   8.946   0.104   5.085  0.3738 -0.2582  0.1107
  182MOL    Cl322085   9.105   0.308   5.222 -0.0817 -0.2981 -0.1396
  182MOL     C422086   8.841   0.264   5.267  0.2977 -0.3984  0.0820
  182MOL     H522087   8.847   0.363   5.221 -0.4293 -0.9218 -1.1713
  182MOL     H622088   8.760   0.211   5.217 -1.1248 -0.0494  1.9718
  182MOL     H722089   8.995   0.118   5.316 -0.1952 -1.7512 -1.3115
  182MOL     C822090   8.812   0.276   5.424  0.1684  0.5830 -0.1797
  182MOL    Cl922091   8.940   0.361   5.508 -0.4061  0.1622 -0.0187
  182MOL   Cl1022092   8.811   0.118   5.507 -0.2779  0.2971  0.5220
  182MOL    C1122093   8.675   0.344   5.458  0.9162  0.4359 -0.2322
  182MOL    H1222094   8.599   0.268   5.438  0.7057  0.0632  1.8539
  182MOL    H1322095   8.676   0.351   5.567  0.4668  0.0763 -0.2049
  182MOL    C1422096   8.634   0.479   5.405  0.7978 -0.2706  0.0625
  182MOL   Cl1522097   8.604   0.454   5.234 -0.0977 -0.1623  0.2635
  182MOL   Cl1622098   8.766   0.593   5.427  0.2783  0.0565 -0.0143
  182MOL    C1722099   8.506   0.522   5.490 -0.1320  0.3496  0.6927
  182MOL    H1822100   8.463   0.428   5.524  1.0148  0.1101  1.5314
  182MOL    H1922101   8.537   0.564   5.586  2.6932  1.1192 -0.4891
  182MOL    C2022102   8.396   0.618   5.436 -0.6290 -0.0891 -0.0013
  182MOL   Cl2122103   8.475   0.762   5.378 -0.2562 -0.0383 -0.0952
  182MOL   Cl2222104   8.296   0.647   5.578 -0.2257 -0.3162  0.2439
  182MOL    C2322105   8.299   0.558   5.324 -1.1106  1.0107  0.4548
  182MOL    H2422106   8.246   0.649   5.296 -1.4366  0.3362 -1.1359
  182MOL    H2522107   8.366   0.543   5.240 -2.0783 -1.9524  0.1437
  182MOL    C2622108   8.209   0.427   5.336 -0.0733 -0.3444 -0.8347
  182MOL   Cl2722109   8.082   0.443   5.458  0.1609  0.1266 -0.2183
  182MOL   Cl2822110   8.306   0.288   5.377 -0.5824  0.0999  0.0909
  182MOL    C2922111   8.134   0.408   5.197  0.2289  0.4057  0.1613
  182MOL    H3022112   8.056   0.484   5.188  1.2169  1.4759  0.6056
  182MOL    H3122113   8.209   0.442   5.126 -2.1603  4.1631 -0.6586
  182MOL    C3222114   8.078   0.274   5.141 -0.3597 -0.5098  0.3775
  182MOL   Cl3322115   8.207   0.159   5.107 -0.2548 -0.1239  0.0047
  182MOL   Cl3422116   8.008   0.319   4.990  0.0292 -0.3577 -0.1441
  182MOL    C3522117   7.975   0.189   5.228  0.2233 -0.4787 -0.1446
  182MOL    H3622118   7.998   0.083   5.216 -1.8323 -1.1378  1.5385
  182MOL    H3722119   8.026   0.209   5.322  3.6139  0.6678 -2.1400
  182MOL    C3822120   7.825   0.230   5.239 -0.4425 -0.2479  0.0368
  182MOL   Cl3922121   7.820   0.406   5.267  0.1202  0.0782  0.2036
  182MOL   Cl4022122   7.758   0.160   5.386  0.0409 -0.0026  0.2455
  182MOL    C4122123   7.724   0.201   5.121  0.1048 -0.4279 -0.0453
  182MOL    H4222124   7.631   0.251   5.145 -0.7930 -1.6019 -1.0175
  182MOL    H4322125   7.760   0.274   5.048 -1.5006 -0.7475 -1.1774
  182MOL    C4422126   7.702   0.057   5.068  0.3194 -0.5833  0.0439
  182MOL   Cl4522127   7.616   9.137   5.195 -0.0067  0.0142  0.3470
  182MOL   Cl4622128   7.858   9.151   5.026  0.6766 -0.0407 -0.1742
  182MOL    C4722129   7.616   0.058   4.942  0.7831 -0.5287  0.0971
  182MOL    H4822130   7.680   0.098   4.864  0.9261 -3.1416 -1.1625
  182MOL    H4922131   7.598   9.135   4.913 -0.5073  0.4051 -2.5483
  182MOL    C5022132   7.482   0.142   4.934 -0.2562 -0.2619  0.2533
  182MOL   Cl5122133   7.513   0.311   4.903 -0.2240  0.2199 -0.2806
  182MOL   Cl5222134   7.373   0.147   5.080 -0.2890  0.4125 -0.0835
  182MOL    C5322135   7.391   0.072   4.826 -0.9674 -0.0043 -0.6028
  182MOL    H5422136   7.411   9.145   4.834  0.1443  0.3350  1.8114
  182MOL    H5522137   7.284   0.079   4.846 -0.6657  0.4315  0.9250
  182MOL    C5622138   7.411   0.102   4.678 -0.3028 -0.9515 -0.6859
  182MOL   Cl5722139   7.343   9.144   4.602 -0.1274  0.1802 -0.3006
  182MOL   Cl5822140   7.573   0.115   4.622 -0.1172 -0.0712  0.0649
  182MOL    C5922141   7.337   0.231   4.631 -0.0353 -0.6042  0.0683
  182MOL    H6022142   7.385   0.325   4.659  3.0682 -1.8362 -0.8909
  182MOL    H6122143   7.364   0.235   4.525  0.1959 -0.3984  0.1330
  182MOL    C6222144   7.190   0.266   4.656  0.4733  0.1480 -0.3872
  182MOL   Cl6322145   7.169   0.316   4.829 -0.5029 -0.1395 -0.3655
  182MOL   Cl6422146   7.080   0.122   4.626 -0.2080  0.0833  0.3020
  182MOL    C6522147   7.134   0.394   4.580 -0.3329 -0.2199  0.0289
  182MOL    H6622148   7.045   0.426   4.635  0.1195  0.3315  0.4452
  182MOL    H6722149   7.209   0.472   4.593 -2.2048  1.1641  3.1293
  182MOL    C6822150   7.092   0.378   4.433 -0.1823  0.6297 -0.2636
  182MOL   Cl6922151   7.217   0.289   4.340 -0.1584  0.1872  0.1188
  182MOL   Cl7022152   7.103   0.546   4.366 -0.3791  0.1298 -0.0140
  182MOL    C7122153   6.954   0.322   4.405 -0.3721 -0.2841  0.8464
  182MOL    H7222154   6.952   0.214   4.416 -3.5041 -0.3198  0.2112
  182MOL    H7322155   6.885   0.365   4.478  1.6011 -1.5195  3.5262
  182MOL    C7422156   6.878   0.346   4.268  0.6362  0.6332  0.4865
  182MOL   Cl7522157   6.978   0.314   4.127  0.0881  0.5048 -0.0200
  182MOL   Cl7622158   6.804   0.505   4.258 -0.0404 -0.0847 -0.0689
  182MOL    C7722159   6.760   0.239   4.248 -0.6092  0.0458 -0.2434
  182MOL    H7822160   6.733   0.274   4.148  0.7801  2.0736  0.0513
  182MOL    H7922161   6.810   0.145   4.227  0.8209  0.9135 -0.8319
  182MOL    C8022162   6.645   0.221   4.346 -0.7088  0.2079  0.0989
  182MOL   Cl8122163   6.705   0.114   4.473  0.2560  0.0942 -0.2088
  182MOL   Cl8222164   6.516   0.132   4.249 -0.0668 -0.3554  0.0084
  182MOL    C8322165   6.571   0.351   4.403 -0.2394  0.4116  0.3624
  182MOL    H8422166   6.652   0.408   4.448  1.5952 -3.3946  2.1513
  182MOL    H8522167   6.536   0.411   4.319 -1.4915 -1.4106 -0.4480
  182MOL    C8622168   6.456   0.341   4.510 -0.0353 -0.3300  0.0503
  182MOL   Cl8722169   6.314   0.281   4.426  0.1462  0.0710  0.1727
  182MOL   Cl8822170   6.410   0.516   4.549 -0.0662  0.0456 -0.7613
  182MOL    C8922171   6.476   0.257   4.641  0.0514 -0.7128 -0.1770
  182MOL    H9022172   6.379   0.254   4.691 -0.7283  1.9445 -1.4653
  182MOL    H9122173   6.475   0.149   4.620 -0.2443 -0.6162 -0.6736
  182MOL    C9222174   6.572   0.302   4.755  0.3980  0.0181 -0.4212
  182MOL   Cl9322175   6.488   0.434   4.856  0.0901  0.2152 -0.0917
  182MOL   Cl9422176   6.726   0.376   4.700  0.0570 -0.0414  0.3539
  182MOL    C9522177   6.619   0.195   4.856 -0.7459 -0.0353  0.0094
  182MOL    H9622178   6.678   0.122   4.801 -1.4224 -1.1094  0.6942
  182MOL    H9722179   6.691   0.236   4.927 -1.4589 -1.0318  1.3053
  182MOL    C9822180   6.523   0.111   4.952 -0.4107 -0.0415  0.2549
  182MOL   Cl9922181   6.625   0.002   5.051 -0.0434  0.0054  0.6807
  182MOL  Cl10022182   6.419   0.002   4.852  0.0552  0.3653 -0.2968
  182MOL   C10122183   6.430   0.196   5.042  0.4455  0.4826 -0.0685
  182MOL   H10222184   6.499   0.259   5.099  0.9176 -0.0495 -0.0458
  182MOL   H10322185   6.369   0.260   4.978 -0.1426 -0.0594 -0.0440
  182MOL   C10422186   6.317   0.144   5.130  0.3594 -0.1373 -0.3362
  182MOL  Cl10522187   6.366   0.011   5.239 -0.0626 -0.0011  0.2286
  182MOL  Cl10622188   6.180   0.078   5.037 -0.0348 -0.3834  0.1052
  182MOL   C10722189   6.267   0.259   5.228  0.1633  0.0016 -0.0817
  182MOL   H10822190   6.204   0.205   5.300  3.7428 -3.4877  0.6237
  182MOL   H10922191   6.354   0.274   5.292  0.3551 -0.0532 -0.3333
  182MOL   C11022192   6.206   0.396   5.185  0.2768  0.0257 -0.8291
  182MOL  Cl11122193   6.134   0.385   5.022  0.2968 -0.3049  0.2206
  182MOL  Cl11222194   6.341   0.519   5.186  0.4216  0.1042  0.2836
  182MOL   C11322195   6.096   0.435   5.289 -0.2552  0.6558  0.4152
  182MOL   H11422196   6.018   0.359   5.289  1.5307 -1.2153  0.2635
  182MOL   H11522197   6.130   0.423   5.391  0.3385 -2.0002 -0.0773
  182MOL   C11622198   6.033   0.583   5.289  0.7279  0.8253 -0.4727
  182MOL  Cl11722199   6.149   0.703   5.357 -0.0386 -0.3388  0.1949
  182MOL  Cl11822200   5.893   0.582   5.402  0.2428 -0.2462 -0.0181
  182MOL   C11922201   5.986   0.628   5.152  0.3341 -0.1196 -0.3532
  182MOL   H12022202   6.071   0.650   5.087 -0.0220  1.4266 -0.2920
  182MOL   H12122203   5.935   0.545   5.103  1.7602 -2.3982  1.8867
  182MOL   H12222204   5.918   0.713   5.148  0.0481 -0.4063 -1.9692
  183MOL     C122205   2.393   6.695   2.036  0.0257  0.3416  0.5115
  183MOL    Cl222206   2.498   6.658   1.897 -0.0176 -0.3014 -0.0208
  183MOL    Cl322207   2.294   6.837   1.998 -0.2050 -0.3311  0.0111
  183MOL     C422208   2.303   6.579   2.072  0.3302 -0.3327 -0.9907
  183MOL     H522209   2.210   6.615   2.117  0.0306 -2.4458  0.1739
  183MOL     H622210   2.272   6.529   1.980  0.4745 -1.6760 -0.3239
  183MOL     H722211   2.453   6.727   2.121 -0.0200  0.8983  0.3361
  183MOL     C822212   2.363   6.472   2.172 -0.1907 -0.0943  0.3474
  183MOL    Cl922213   2.495   6.378   2.087 -0.3279  0.1912 -0.0226
  183MOL   Cl1022214   2.225   6.369   2.212  0.0168  0.0219 -0.5887
  183MOL    C1122215   2.412   6.540   2.298  0.3723  0.0446  0.7332
  183MOL    H1222216   2.498   6.600   2.268 -0.1709  0.7812  0.6259
  183MOL    H1322217   2.337   6.610   2.336  0.0010 -0.4241  0.8706
  183MOL    C1422218   2.454   6.463   2.428  0.1190  0.0080 -0.0835
  183MOL   Cl1522219   2.308   6.443   2.523 -0.2690 -0.1636  0.0693
  183MOL   Cl1622220   2.564   6.581   2.511  0.3721  0.0091  0.1704
  183MOL    C1722221   2.528   6.326   2.408  0.3576  0.1728  0.0616
  183MOL    H1822222   2.468   6.268   2.340 -0.5351 -0.0647  1.0376
  183MOL    H1922223   2.622   6.356   2.362  1.4950 -1.1272  1.4731
  183MOL    C2022224   2.562   6.227   2.523  0.0881 -0.0840 -0.0231
  183MOL   Cl2122225   2.408   6.152   2.582  0.0111  0.1828  0.5222
  183MOL   Cl2222226   2.634   6.308   2.666 -0.3455 -0.1731 -0.2560
  183MOL    C2322227   2.671   6.127   2.483 -0.4590 -0.0577 -0.0695
  183MOL    H2422228   2.772   6.168   2.484 -0.4191 -0.1696  1.2996
  183MOL    H2522229   2.670   6.059   2.568 -0.6718 -0.4388 -0.3767
  183MOL    C2622230   2.665   6.044   2.353 -0.3092  0.0688  0.0584
  183MOL   Cl2722231   2.698   6.151   2.204 -0.3663 -0.0753 -0.1971
  183MOL   Cl2822232   2.495   5.991   2.326  0.0619  0.3045 -0.2220
  183MOL    C2922233   2.759   5.910   2.362 -0.1514 -0.1916  0.2253
  183MOL    H3022234   2.705   5.832   2.415 -0.4622  0.7238  1.2703
  183MOL    H3122235   2.758   5.875   2.259 -1.2270 -0.7151  0.4104
  183MOL    C3222236   2.899   5.907   2.423 -0.3712 -0.2855  0.0933
  183MOL   Cl3322237   2.888   5.910   2.598  0.0358 -0.2195  0.1730
  183MOL   Cl3422238   2.997   6.048   2.375 -0.2533 -0.2118  0.2096
  183MOL    C3522239   2.968   5.766   2.401 -0.2611 -0.0810  0.1876
  183MOL    H3622240   3.067   5.771   2.447 -0.7253 -0.8760  1.3060
  183MOL    H3722241   2.912   5.690   2.456 -2.3896  1.9033  0.8197
  183MOL    C3822242   3.000   5.714   2.263  0.0572  0.7551 -0.6520
  183MOL   Cl3922243   3.048   5.848   2.151  0.3140 -0.6637  0.1754
  183MOL   Cl4022244   2.845   5.641   2.204  0.1482 -0.2579  0.1475
  183MOL    C4122245   3.106   5.606   2.282  0.0818 -0.3599  0.3195
  183MOL    H4222246   3.190   5.646   2.340  0.5746  0.7141 -1.1011
  183MOL    H4322247   3.049   5.542   2.349 -1.8281  1.0279  0.0868
  183MOL    C4422248   3.174   5.508   2.179  0.0992  0.1280 -0.3031
  183MOL   Cl4522249   3.268   5.383   2.258  0.3160 -0.2150 -0.0416
  183MOL   Cl4622250   3.290   5.608   2.081  0.0947  0.7250 -0.3413
  183MOL    C4722251   3.069   5.457   2.073  0.0948 -0.5824  0.3722
  183MOL    H4822252   2.975   5.440   2.124  0.3479 -0.6567  0.8204
  183MOL    H4922253   3.058   5.529   1.992  0.9571 -1.6208 -0.6900
  183MOL    C5022254   3.106   5.322   1.999 -0.0257 -0.2122 -0.3553
  183MOL   Cl5122255   3.274   5.312   1.946  0.2761 -0.0173 -0.2854
  183MOL   Cl5222256   3.010   5.335   1.853  0.4756  0.1012 -0.0874
  183MOL    C5322257   3.077   5.182   2.068  0.3850 -0.2328 -0.3355
  183MOL    H5422258   3.084   5.112   1.986  2.0606 -0.1466 -0.2729
  183MOL    H5522259   3.159   5.154   2.134  1.4142  1.1553 -0.9991
  183MOL    C5622260   2.940   5.162   2.152 -0.0672 -0.1455 -0.1309
  183MOL   Cl5722261   2.789   5.226   2.077 -0.1902 -0.1156  0.6699
  183MOL   Cl5822262   2.962   5.250   2.305 -0.1436  0.0342  0.1974
  183MOL    C5922263   2.915   5.021   2.190 -0.3500 -0.0843  0.1851
  183MOL    H6022264   2.987   4.993   2.268 -0.3445 -0.5269  0.0247
  183MOL    H6122265   2.826   5.021   2.253  1.4012  1.6651  2.7649
  183MOL    C6222266   2.899   4.905   2.083 -0.2275 -0.1177  0.1370
  183MOL   Cl6322267   2.800   4.791   2.173  0.1664  0.1886 -0.2221
  183MOL   Cl6422268   3.054   4.826   2.061  0.1315 -0.0266  0.1681
  183MOL    C6522269   2.832   4.929   1.945 -0.0812  0.1726 -0.2044
  183MOL    H6622270   2.733   4.969   1.969 -0.3722 -0.1008 -0.9305
  183MOL    H6722271   2.889   5.012   1.902  0.9409 -0.0370  0.7310
  183MOL    C6822272   2.823   4.821   1.830 -0.3426  0.0027  0.5549
  183MOL   Cl6922273   2.980   4.843   1.742  0.1746  0.5300 -0.1709
  183MOL   Cl7022274   2.695   4.878   1.725  0.0557  0.1203 -0.2827
  183MOL    C7122275   2.810   4.672   1.864 -0.4815 -0.3699 -0.4490
  183MOL    H7222276   2.887   4.620   1.807  1.6261  2.7728 -0.6213
  183MOL    H7322277   2.847   4.657   1.966  0.1994 -0.2419 -0.6716
  183MOL    C7422278   2.676   4.601   1.867  0.4216 -0.4040 -0.0755
  183MOL   Cl7522279   2.561   4.691   1.967  0.0390 -0.0715  0.1638
  183MOL   Cl7622280   2.704   4.455   1.948  0.0612  0.2975  0.4632
  183MOL    C7722281   2.608   4.565   1.733  0.2996  0.5947  0.8543
  183MOL    H7822282   2.539   4.491   1.772  1.1834  0.2678  1.8049
  183MOL    H7922283   2.548   4.649   1.698  2.8055  1.0907 -2.5932
  183MOL    C8022284   2.691   4.506   1.612  0.1825 -0.0805  0.2081
  183MOL   Cl8122285   2.805   4.377   1.665 -0.0247 -0.1705  0.4904
  183MOL   Cl8222286   2.784   4.628   1.523 -0.0352 -0.1062  0.2168
  183MOL    C8322287   2.603   4.453   1.492 -0.4931 -0.1796  0.4712
  183MOL    H8422288   2.560   4.533   1.431  1.8799 -1.0625 -2.4486
  183MOL    H8522289   2.665   4.399   1.420 -0.7992  0.1880 -0.0747
  183MOL    C8622290   2.476   4.360   1.516 -0.4200  0.6428  0.2021
  183MOL   Cl8722291   2.511   4.233   1.642 -0.0328  0.0762 -0.6684
  183MOL   Cl8822292   2.449   4.280   1.358 -0.1101 -0.4170 -0.2209
  183MOL    C8922293   2.353   4.449   1.553 -0.3773  0.4685  0.1246
  183MOL    H9022294   2.367   4.544   1.604  0.0403 -0.1950  1.2505
  183MOL    H9122295   2.317   4.487   1.457 -0.4569  1.8468  0.6927
  183MOL    C9222296   2.226   4.382   1.617  0.5470 -0.4030  0.8939
  183MOL   Cl9322297   2.091   4.500   1.598 -0.3354  0.1718 -0.0390
  183MOL   Cl9422298   2.254   4.348   1.789 -0.2354  0.3290 -0.3530
  183MOL    C9522299   2.188   4.253   1.540  0.3213  0.4221 -0.3459
  183MOL    H9622300   2.190   4.270   1.433 -2.2794 -1.0221 -0.6580
  183MOL    H9722301   2.261   4.173   1.548  0.1677  0.2131 -0.9986
  183MOL    C9822302   2.061   4.176   1.568  0.0434 -0.4017 -0.9262
  183MOL   Cl9922303   2.072   4.031   1.468  0.3090 -0.1725  0.1755
  183MOL  Cl10022304   1.922   4.268   1.508 -0.0697  0.2316  0.0548
  183MOL   C10122305   2.037   4.136   1.713  0.4601  0.1979  0.6975
  183MOL   H10222306   2.129   4.105   1.763  2.4310 -0.3666 -3.1486
  183MOL   H10322307   2.017   4.232   1.763 -1.1293  0.1715  0.1607
  183MOL   C10422308   1.929   4.042   1.770  0.1774 -0.0818 -0.1016
  183MOL  Cl10522309   1.962   3.878   1.716 -0.0636  0.2232 -0.2341
  183MOL  Cl10622310   1.767   4.078   1.708 -0.0969 -0.2588 -0.1399
  183MOL   C10722311   1.927   4.029   1.930  0.2554 -0.7459  0.1369
  183MOL   H10822312   1.861   3.945   1.952  0.3612 -0.7197  0.5703
  183MOL   H10922313   2.028   3.992   1.948  1.4045  2.2809  0.2553
  183MOL   C11022314   1.908   4.140   2.039 -0.1737  0.1813  0.0252
  183MOL  Cl11122315   1.776   4.241   1.992 -0.0118  0.2227  0.1327
  183MOL  Cl11222316   2.068   4.217   2.048  0.0997  0.1423  0.0654
  183MOL   C11322317   1.890   4.084   2.184  1.0964 -0.2203  0.5477
  183MOL   H11422318   1.794   4.032   2.186  1.3903 -0.7346  1.6210
  183MOL   H11522319   1.952   3.994   2.190 -0.1118 -1.1711 -0.8941
  183MOL   C11622320   1.878   4.174   2.309 -0.5993 -0.7778 -0.3865
  183MOL  Cl11722321   2.043   4.195   2.385  0.1949  0.6395 -0.0319
  183MOL  Cl11822322   1.772   4.096   2.424  0.4700 -0.2688  0.0618
  183MOL   C11922323   1.823   4.319   2.288 -0.4263 -0.2017  0.2652
  183MOL   H12022324   1.724   4.315   2.242  0.8448 -1.7807 -2.4681
  183MOL   H12122325   1.802   4.378   2.377 -0.9771  1.0837 -0.7018
  183MOL   H12222326   1.890   4.376   2.224  0.0560 -0.7036  0.3163
  184MOL     C122327   8.297   0.640   8.276 -0.2356 -0.5150  0.1359
  184MOL    Cl222328   8.295   0.464   8.316  0.1058  0.3320  0.1214
  184MOL    Cl322329   8.129   0.690   8.268  0.0420  0.2969 -0.2970
  184MOL     C422330   8.382   0.711   8.383 -0.2602  0.8433  0.7950
  184MOL     H522331   8.326   0.717   8.477  0.2834 -4.4290  1.6080
  184MOL     H622332   8.467   0.647   8.404  1.3166  1.4555 -3.2224
  184MOL     H722333   8.332   0.653   8.173  2.0217  1.3446  1.0956
  184MOL     C822334   8.437   0.854   8.351  0.1049  0.3366  0.4774
  184MOL    Cl922335   8.531   0.857   8.198 -0.1414  0.2196 -0.4045
  184MOL   Cl1022336   8.547   0.885   8.486 -0.2167  0.0847 -0.3549
  184MOL    C1122337   8.313   0.955   8.350  0.0561 -0.1820  0.1726
  184MOL    H1222338   8.263   0.952   8.253  0.2006  1.6019  0.0181
  184MOL    H1322339   8.232   0.920   8.414  0.7676 -2.3348 -0.0915
  184MOL    C1422340   8.335   1.103   8.395  0.0989 -0.4090 -0.1786
  184MOL   Cl1522341   8.483   1.168   8.329  0.1954 -0.2667  0.0678
  184MOL   Cl1622342   8.339   1.110   8.577  0.0625  0.0824 -0.0300
  184MOL    C1722343   8.234   1.211   8.345 -0.3791 -0.5709  0.7608
  184MOL    H1822344   8.253   1.294   8.412  0.3916  0.1263 -0.3042
  184MOL    H1922345   8.257   1.236   8.241  0.3159 -0.3911  0.9592
  184MOL    C2022346   8.081   1.178   8.331  0.2003  0.1141 -0.7173
  184MOL   Cl2122347   8.020   1.080   8.473  0.0583 -0.3178  0.0818
  184MOL   Cl2222348   8.057   1.073   8.190 -0.3338 -0.3199 -0.2004
  184MOL    C2322349   7.994   1.309   8.323 -0.7777  0.2851 -0.8188
  184MOL    H2422350   8.009   1.358   8.420 -0.1800  0.9782 -1.2595
  184MOL    H2522351   8.037   1.368   8.243  0.1738 -0.6485 -1.0130
  184MOL    C2622352   7.837   1.310   8.283  0.2221  0.1007  0.2920
  184MOL   Cl2722353   7.748   1.206   8.391  0.5890  0.0200  0.2902
  184MOL   Cl2822354   7.800   1.273   8.104  0.4913  0.2008  0.3041
  184MOL    C2922355   7.765   1.449   8.319 -0.7703  0.3527 -0.1451
  184MOL    H3022356   7.658   1.435   8.302 -0.4852 -0.3910 -1.4021
  184MOL    H3122357   7.785   1.462   8.425  0.7348  1.2597 -0.5341
  184MOL    C3222358   7.812   1.584   8.258 -0.2149  0.1889 -0.1433
  184MOL   Cl3322359   7.826   1.583   8.079 -0.2263  0.1640  0.3739
  184MOL   Cl3422360   7.974   1.617   8.327 -0.3395  0.0513  0.1434
  184MOL    C3522361   7.732   1.714   8.297 -0.6610  0.1614  0.3452
  184MOL    H3622362   7.757   1.739   8.400 -1.6878  0.9192  0.4184
  184MOL    H3722363   7.765   1.793   8.229  1.6185  0.0377  1.2459
  184MOL    C3822364   7.574   1.708   8.307  0.5230  0.4978  0.5945
  184MOL   Cl3922365   7.519   1.874   8.351 -0.0714  0.3078  0.1556
  184MOL   Cl4022366   7.529   1.605   8.438 -0.0800  0.1084  0.0698
  184MOL    C4122367   7.505   1.658   8.178  0.0154  0.0534 -0.1941
  184MOL    H4222368   7.509   1.745   8.113  0.6168 -0.2093 -0.5196
  184MOL    H4322369   7.574   1.591   8.126 -1.4859 -2.5944  1.0772
  184MOL    C4422370   7.361   1.611   8.167 -0.9255  0.3373 -0.2720
  184MOL   Cl4522371   7.254   1.716   8.268 -0.3533 -0.3236 -0.1883
  184MOL   Cl4622372   7.358   1.438   8.224 -0.1933 -0.4040 -0.4768
  184MOL    C4722373   7.301   1.610   8.022 -0.4056 -0.2471 -0.7464
  184MOL    H4822374   7.212   1.550   8.044 -1.1904  1.1545 -0.0089
  184MOL    H4922375   7.268   1.709   7.990  1.4769  0.1790 -1.4289
  184MOL    C5022376   7.369   1.547   7.903  1.1647  0.0824 -0.0938
  184MOL   Cl5122377   7.504   1.652   7.864  0.1386  0.3551  0.1172
  184MOL   Cl5222378   7.246   1.553   7.777 -0.2388  0.3591 -0.0866
  184MOL    C5322379   7.423   1.399   7.921 -0.3895 -0.8034  0.3051
  184MOL    H5422380   7.513   1.400   7.982  0.5927 -1.0185 -1.1112
  184MOL    H5522381   7.351   1.345   7.981 -0.7760 -1.0422 -0.3684
  184MOL    C5622382   7.459   1.312   7.799 -0.1703  0.7034  0.8494
  184MOL   Cl5722383   7.553   1.406   7.681 -0.1745 -0.2351  0.0949
  184MOL   Cl5822384   7.310   1.262   7.714 -0.0112  0.4149  0.2438
  184MOL    C5922385   7.543   1.184   7.819  0.2441  0.0267 -0.2203
  184MOL    H6022386   7.573   1.137   7.725  1.0334  0.0460  0.0196
  184MOL    H6122387   7.645   1.210   7.846  0.9790 -2.7630 -0.1747
  184MOL    C6222388   7.488   1.075   7.923  0.4144  0.2018  0.8550
  184MOL   Cl6322389   7.488   1.142   8.084 -0.0534 -0.1443  0.2463
  184MOL   Cl6422390   7.618   0.953   7.920  0.1863 -0.1922 -0.3274
  184MOL    C6522391   7.345   1.016   7.905  0.2180 -0.8068  0.0597
  184MOL    H6622392   7.265   1.085   7.933  1.6699  0.9186  0.0077
  184MOL    H6722393   7.321   1.011   7.799  2.3601  2.0686 -0.6079
  184MOL    C6822394   7.300   0.874   7.970 -0.4186 -0.5633  0.3553
  184MOL   Cl6922395   7.121   0.864   7.930  0.0507 -0.1786 -0.4547
  184MOL   Cl7022396   7.331   0.863   8.145 -0.3418  0.3043 -0.5401
  184MOL    C7122397   7.379   0.758   7.900  0.4384 -0.1322  0.5285
  184MOL    H7222398   7.406   0.800   7.802 -0.1745  1.0218  0.8362
  184MOL    H7322399   7.474   0.741   7.951  2.5363  1.7801 -2.5372
  184MOL    C7422400   7.320   0.622   7.856 -0.1520  0.5616 -0.0105
  184MOL   Cl7522401   7.208   0.645   7.718 -0.3066 -0.2658  0.0672
  184MOL   Cl7622402   7.232   0.557   7.997 -0.4756  0.7360  0.2549
  184MOL    C7722403   7.428   0.511   7.826  0.1177  0.5768 -0.4570
  184MOL    H7822404   7.480   0.499   7.921  1.7836 -0.4002 -1.4644
  184MOL    H7922405   7.371   0.418   7.814  1.2782 -0.0872 -0.9058
  184MOL    C8022406   7.533   0.518   7.709  0.4620 -0.0966 -0.0199
  184MOL   Cl8122407   7.640   0.666   7.728  0.2203 -0.4214  0.2324
  184MOL   Cl8222408   7.442   0.511   7.550  0.0124  0.1524  0.0225
  184MOL    C8322409   7.628   0.396   7.708 -0.1071 -1.4329 -0.3372
  184MOL    H8422410   7.717   0.430   7.654 -0.7395  0.4343 -0.2365
  184MOL    H8522411   7.661   0.388   7.811  2.6378  0.6147 -0.9748
  184MOL    C8622412   7.592   0.252   7.667 -0.1752  0.7688 -0.0130
  184MOL   Cl8722413   7.447   0.192   7.746  0.3847  0.2990  0.7140
  184MOL   Cl8822414   7.724   0.147   7.740  0.2956 -0.0298 -0.3159
  184MOL    C8922415   7.576   0.214   7.513  0.8698 -0.1528  0.4918
  184MOL    H9022416   7.570   0.105   7.509  2.1573 -0.1981 -0.6853
  184MOL    H9122417   7.478   0.251   7.482  1.2165  1.2084  0.9864
  184MOL    C9222418   7.683   0.255   7.406 -0.3094 -0.4589 -0.2100
  184MOL   Cl9322419   7.833   0.181   7.460 -0.0625  0.0573  0.4007
  184MOL   Cl9422420   7.713   0.435   7.388 -0.0588  0.0483 -0.5036
  184MOL    C9522421   7.654   0.203   7.262 -0.8223  0.3764  0.0904
  184MOL    H9622422   7.726   0.260   7.203  0.0267 -1.5220 -0.7477
  184MOL    H9722423   7.684   0.099   7.247 -0.2096  0.8579 -2.3116
  184MOL    C9822424   7.513   0.229   7.188 -0.2184 -0.3906  0.0186
  184MOL   Cl9922425   7.445   0.394   7.216 -0.4562  0.2512 -0.2173
  184MOL  Cl10022426   7.417   0.107   7.271 -0.0363  0.3544  0.0903
  184MOL   C10122427   7.520   0.193   7.039 -0.2106 -0.6838  0.9873
  184MOL   H10222428   7.598   0.256   6.996 -0.0521 -0.7051  1.2413
  184MOL   H10322429   7.555   0.089   7.036 -0.6249 -0.7823 -1.0422
  184MOL   C10422430   7.401   0.210   6.948 -0.2619  0.2236  0.5199
  184MOL  Cl10522431   7.456   0.138   6.797  0.4625  0.0041  0.1794
  184MOL  Cl10622432   7.383   0.386   6.910 -0.0976  0.3216  0.3814
  184MOL   C10722433   7.271   0.138   7.009 -0.1805 -0.8095  0.1304
  184MOL   H10822434   7.305   0.049   7.062 -1.7238 -0.2572  2.1516
  184MOL   H10922435   7.241   0.206   7.089  1.6704  0.9767 -0.6552
  184MOL   C11022436   7.149   0.096   6.926 -0.1970 -0.4122  0.0543
  184MOL  Cl11122437   7.075   0.231   6.855  0.3131 -0.2095  0.2169
  184MOL  Cl11222438   7.037   0.037   7.056 -0.0209 -0.1030 -0.0840
  184MOL   C11322439   7.182   9.158   6.826 -0.0862 -0.2649 -0.8451
  184MOL   H11422440   7.185   0.025   6.729 -0.4613  1.3528 -0.0825
  184MOL   H11522441   7.286   9.125   6.831 -0.2835 -1.0643 -1.7876
  184MOL   C11622442   7.097   9.026   6.814 -0.0331  0.0132 -0.4100
  184MOL  Cl11722443   6.934   9.079   6.756  0.2540 -0.2559  0.0169
  184MOL  Cl11822444   7.096   8.939   6.966 -0.4469  0.1374  0.0346
  184MOL   C11922445   7.146   8.924   6.707  0.8106 -0.3009  0.4630
  184MOL   H12022446   7.250   8.899   6.729  0.6295 -1.7488 -0.2534
  184MOL   H12122447   7.085   8.835   6.692 -0.4282  0.9695 -2.3215
  184MOL   H12222448   7.145   8.972   6.610 -0.6093 -1.2886 -0.0347
  185MOL     C122449   7.307   5.269   3.127 -1.0363  0.0935  0.0202
  185MOL    Cl222450   7.469   5.319   3.172 -0.2173 -0.0165 -0.1900
  185MOL    Cl322451   7.235   5.387   3.030  0.2418  0.1515 -0.0808
  185MOL     C422452   7.308   5.118   3.083 -0.4988 -0.2532  0.0092
  185MOL     H522453   7.365   5.102   2.992 -1.2983  1.7573 -0.8893
  185MOL     H622454   7.350   5.059   3.164  1.8740  0.1365 -0.9119
  185MOL     H722455   7.262   5.277   3.225  0.8441  0.9646  0.8430
  185MOL     C822456   7.165   5.056   3.047  0.0482 -0.0833  1.2203
  185MOL    Cl922457   7.093   5.137   2.900  0.0622 -0.4125  0.2760
  185MOL   Cl1022458   7.049   5.104   3.176  0.3355 -0.0448  0.1715
  185MOL    C1122459   7.166   4.900   3.032 -0.3880 -0.5042 -0.1605
  185MOL    H1222460   7.193   4.848   3.125  1.4916  1.2280  0.2970
  185MOL    H1322461   7.064   4.873   3.005 -0.4663  2.2361 -2.8434
  185MOL    C1422462   7.260   4.839   2.921  0.1477 -0.3489  0.4317
  185MOL   Cl1522463   7.435   4.828   2.970 -0.1128  0.0501 -0.6012
  185MOL   Cl1622464   7.256   4.933   2.772 -0.0972 -0.2564 -0.2114
  185MOL    C1722465   7.208   4.705   2.856 -0.8878  0.3377  0.3103
  185MOL    H1822466   7.114   4.728   2.807 -0.8059 -0.8913 -0.4548
  185MOL    H1922467   7.275   4.666   2.779 -1.7278 -0.2097 -0.1536
  185MOL    C2022468   7.186   4.573   2.945  0.0915 -0.4417  0.4908
  185MOL   Cl2122469   7.085   4.601   3.086  0.3174  0.0019 -0.0646
  185MOL   Cl2222470   7.346   4.525   3.009  0.2966  0.1819 -0.2969
  185MOL    C2322471   7.127   4.461   2.850  0.2779  0.7332  0.3562
  185MOL    H2422472   7.029   4.499   2.819  0.7348  1.3063 -0.4012
  185MOL    H2522473   7.175   4.460   2.752 -0.3356 -2.7435  0.0163
  185MOL    C2622474   7.106   4.311   2.894 -0.0692 -0.5190  0.0344
  185MOL   Cl2722475   7.015   4.222   2.776  0.3015 -0.3244  0.2522
  185MOL   Cl2822476   7.002   4.304   3.044 -0.1758  0.3885 -0.2181
  185MOL    C2922477   7.235   4.232   2.932  0.0120 -0.0805 -0.0818
  185MOL    H3022478   7.290   4.289   3.007  0.8960 -1.7980  0.6058
  185MOL    H3122479   7.207   4.146   2.993 -0.1934  2.0486  2.9474
  185MOL    C3222480   7.341   4.190   2.824  0.1514 -0.4297  0.0112
  185MOL   Cl3322481   7.378   4.316   2.701  0.3426  0.0056 -0.1667
  185MOL   Cl3422482   7.286   4.043   2.733  0.3125  0.4656 -0.2337
  185MOL    C3522483   7.478   4.164   2.885 -0.5877 -0.0997  0.0209
  185MOL    H3622484   7.553   4.141   2.809  0.7739  1.7105  0.8064
  185MOL    H3722485   7.511   4.264   2.912  0.9345 -0.4460 -0.5033
  185MOL    C3822486   7.495   4.065   3.008 -0.2884  0.1780 -0.6742
  185MOL   Cl3922487   7.419   4.127   3.159  0.0446  0.0434  0.2666
  185MOL   Cl4022488   7.662   4.042   3.042  0.4800  0.0917 -0.4241
  185MOL    C4122489   7.423   3.925   2.983  0.0710 -0.3101  0.1853
  185MOL    H4222490   7.317   3.947   2.969  0.1960  0.6609  0.7370
  185MOL    H4322491   7.453   3.894   2.883  3.2953 -0.0199  0.9952
  185MOL    C4422492   7.432   3.805   3.074 -0.2829 -0.0187 -0.5403
  185MOL   Cl4522493   7.592   3.731   3.041  0.1518  0.0244 -0.4677
  185MOL   Cl4622494   7.321   3.686   3.007 -0.2062  0.1243 -0.0932
  185MOL    C4722495   7.405   3.836   3.223  0.0341  0.2950  0.1391
  185MOL    H4822496   7.493   3.897   3.245  0.1218 -0.4479  1.9663
  185MOL    H4922497   7.317   3.900   3.237 -0.4536 -0.7754  2.2371
  185MOL    C5022498   7.398   3.729   3.337  0.6612 -0.0991 -0.3013
  185MOL   Cl5122499   7.354   3.808   3.489 -0.0663 -0.3002  0.0354
  185MOL   Cl5222500   7.555   3.646   3.365  0.0716 -0.2129 -0.1896
  185MOL    C5322501   7.284   3.624   3.314 -0.3437  0.1965 -0.1550
  185MOL    H5422502   7.200   3.688   3.287  0.1639  1.8194  1.9468
  185MOL    H5522503   7.316   3.576   3.221  1.1279  1.4443 -0.3237
  185MOL    C5622504   7.247   3.503   3.425  0.2461  0.6009  0.3844
  185MOL   Cl5722505   7.374   3.372   3.412  0.0060 -0.0865  0.2687
  185MOL   Cl5822506   7.098   3.435   3.370 -0.1490  0.1560  0.1483
  185MOL    C5922507   7.243   3.533   3.576 -0.1681 -0.0623 -0.0583
  185MOL    H6022508   7.350   3.538   3.600 -0.6674  1.7316  2.0097
  185MOL    H6122509   7.204   3.632   3.599 -0.0693  0.7114 -3.0554
  185MOL    C6222510   7.172   3.441   3.670 -0.9618 -0.0801 -0.4892
  185MOL   Cl6322511   6.996   3.480   3.662 -0.2134 -0.2456 -0.1485
  185MOL   Cl6422512   7.231   3.510   3.820 -0.1295  0.0831 -0.3833
  185MOL    C6522513   7.194   3.291   3.657  0.2253  0.0739  0.0821
  185MOL    H6622514   7.174   3.271   3.552  0.2880  1.3358 -0.1728
  185MOL    H6722515   7.298   3.263   3.675  0.4371 -0.4473 -1.7815
  185MOL    C6822516   7.111   3.188   3.742 -0.3350 -0.2885 -0.2142
  185MOL   Cl6922517   7.184   3.026   3.712  0.1477  0.2927 -0.0189
  185MOL   Cl7022518   6.949   3.174   3.675  0.0532 -0.0852 -0.0314
  185MOL    C7122519   7.101   3.216   3.892  0.6913  0.0323  0.0016
  185MOL    H7222520   7.202   3.247   3.919  0.6222  0.5466 -0.3379
  185MOL    H7322521   7.034   3.301   3.895  1.2216  0.4319  0.6575
  185MOL    C7422522   7.054   3.112   3.998  0.6516  0.0462 -0.4223
  185MOL   Cl7522523   7.069   3.196   4.157 -0.1474  0.3725  0.3957
  185MOL   Cl7622524   7.160   2.966   4.011  0.0501  0.0120 -0.2419
  185MOL    C7722525   6.911   3.052   3.974 -0.0189  0.6072 -0.2576
  185MOL    H7822526   6.838   3.125   3.938  0.4180  0.1829 -2.0633
  185MOL    H7922527   6.923   2.980   3.893 -1.8458  2.1335 -1.9516
  185MOL    C8022528   6.833   2.967   4.082  1.1569 -0.1139 -0.9324
  185MOL   Cl8122529   6.809   3.061   4.240  0.0562  0.4961  0.2820
  185MOL   Cl8222530   6.921   2.820   4.131  0.0875  0.0796  0.2565
  185MOL    C8322531   6.690   2.928   4.043  0.0637 -0.0754 -0.1572
  185MOL    H8422532   6.652   2.871   4.128 -0.3961 -2.2724 -1.8039
  185MOL    H8522533   6.628   3.017   4.052 -0.7229 -0.4894 -1.3277
  185MOL    C8622534   6.663   2.874   3.897  0.2172 -0.1394  0.3831
  185MOL   Cl8722535   6.790   2.756   3.841 -0.1347 -0.1698  0.0724
  185MOL   Cl8822536   6.652   3.011   3.782  0.2779  0.1122 -0.1218
  185MOL    C8922537   6.531   2.799   3.889 -0.0162  0.5553  0.1028
  185MOL    H9022538   6.520   2.782   3.782  0.4952  1.3219 -0.0811
  185MOL    H9122539   6.538   2.700   3.935 -1.8713  0.4953  0.2807
  185MOL    C9222540   6.393   2.861   3.937 -0.2131 -0.0442  0.4892
  185MOL   Cl9322541   6.390   2.859   4.119  0.1014 -0.4003  0.1877
  185MOL   Cl9422542   6.259   2.755   3.888  0.1071  0.4952 -0.2199
  185MOL    C9522543   6.353   3.002   3.883  0.3009  0.0099  0.0675
  185MOL    H9622544   6.426   3.069   3.929  0.1830  0.4266 -0.3413
  185MOL    H9722545   6.364   2.995   3.775 -1.1935 -2.3003  0.0392
  185MOL    C9822546   6.208   3.060   3.908 -0.0796 -0.6190 -0.0347
  185MOL   Cl9922547   6.146   3.028   4.070  0.0236  0.5519  0.0199
  185MOL  Cl10022548   6.079   3.004   3.799 -0.2171 -0.2144 -0.4325
  185MOL   C10122549   6.201   3.210   3.890  0.0340 -0.4435  0.3039
  185MOL   H10222550   6.097   3.238   3.899 -0.0777 -0.4832 -0.7568
  185MOL   H10322551   6.254   3.253   3.975  1.8223 -2.7174  0.3981
  185MOL   C10422552   6.263   3.284   3.770  0.6833  0.4565 -0.2472
  185MOL  Cl10522553   6.229   3.194   3.619 -0.3076 -0.1111 -0.1489
  185MOL  Cl10622554   6.445   3.296   3.789  0.5055 -0.0750 -0.0408
  185MOL   C10722555   6.204   3.427   3.733 -0.3375 -0.2677 -0.1963
  185MOL   H10822556   6.267   3.451   3.648 -1.3512 -1.4384 -1.3063
  185MOL   H10922557   6.099   3.413   3.706 -0.6472 -1.8114  1.6676
  185MOL   C11022558   6.199   3.542   3.833  0.4243 -0.2276  0.4198
  185MOL  Cl11122559   6.348   3.568   3.930  0.3886 -0.4824 -0.5064
  185MOL  Cl11222560   6.070   3.501   3.953  0.2932 -0.2556 -0.0065
  185MOL   C11322561   6.148   3.672   3.771  0.4259 -0.3485  0.2926
  185MOL   H11422562   6.044   3.652   3.743 -0.0572  1.9275  0.3418
  185MOL   H11522563   6.129   3.741   3.854  2.9955  0.0537  0.5802
  185MOL   C11622564   6.217   3.745   3.658  0.6603  0.1405 -0.2231
  185MOL  Cl11722565   6.141   3.902   3.644  0.1040 -0.0727 -0.1514
  185MOL  Cl11822566   6.181   3.665   3.502 -0.3620 -0.2320  0.1057
  185MOL   C11922567   6.359   3.773   3.676 -0.2484  0.6072  0.4765
  185MOL   H12022568   6.396   3.829   3.591 -0.7329  1.1539  0.6228
  185MOL   H12122569   6.386   3.824   3.768 -0.8132  1.8051 -0.0180
  185MOL   H12222570   6.417   3.681   3.667  1.5222  1.7926 -0.3378
  186MOL     C122571   5.715   8.049   8.948  0.1962 -0.3058  0.2299
  186MOL    Cl222572   5.625   8.206   8.958  0.2955 -0.0122 -0.2084
  186MOL    Cl322573   5.869   8.075   8.862 -0.3499 -0.4552 -0.0065
  186MOL     C422574   5.748   7.997   9.095 -0.2296 -0.1722  0.8337
  186MOL     H522575   5.840   7.939   9.095  0.9352  1.6030 -0.1312
  186MOL     H622576   5.763   8.086   9.156 -0.1370  2.0551 -2.3122
  186MOL     H722577   5.655   7.980   8.890 -0.2448 -0.4116  0.7987
  186MOL     C822578   5.638   7.924   9.176  0.3366  0.1700  0.1415
  186MOL    Cl922579   5.729   7.839   0.126  0.3186  0.0326  0.1927
  186MOL   Cl1022580   5.560   7.804   9.070  0.0044 -0.0400  0.1431
  186MOL    C1122581   5.530   8.020   0.056  0.3383 -0.5320 -0.5937
  186MOL    H1222582   5.577   8.097   0.118 -0.9517  0.3609 -0.7096
  186MOL    H1322583   5.484   8.066   9.150  1.0393 -1.2471 -1.3537
  186MOL    C1422584   5.408   7.977   0.143  0.0892  0.7981  0.8905
  186MOL   Cl1522585   5.459   7.893   0.292  0.0412 -0.1697 -0.3009
  186MOL   Cl1622586   5.311   7.850   0.066  0.1558  0.6006  0.0110
  186MOL    C1722587   5.310   8.094   0.180  0.1578 -0.5608 -0.0522
  186MOL    H1822588   5.274   8.128   0.083 -2.6402 -0.2771  1.0358
  186MOL    H1922589   5.227   8.058   0.241 -0.5569  1.5512  0.2738
  186MOL    C2022590   5.366   8.226   0.242  0.1195  0.1730 -0.4009
  186MOL   Cl2122591   5.464   8.315   0.126  0.1641  0.0041 -0.1340
  186MOL   Cl2222592   5.477   8.195   0.381 -0.4864  0.2810  0.0597
  186MOL    C2322593   5.253   8.320   0.302 -0.1661  0.1082  0.9559
  186MOL    H2422594   5.215   8.263   0.387 -0.6986 -1.2577 -0.1939
  186MOL    H2522595   5.303   8.408   0.342 -0.0624 -1.0285  3.4499
  186MOL    C2622596   5.130   8.368   0.220 -0.5091 -0.7993 -0.5848
  186MOL   Cl2722597   5.039   8.225   0.170 -0.0586 -0.0791  0.0797
  186MOL   Cl2822598   5.190   8.460   0.076  0.4628  0.0335  0.0208
  186MOL    C2922599   5.032   8.468   0.287 -0.3193 -0.3518  0.1744
  186MOL    H3022600   5.079   8.566   0.286 -0.4957 -0.2002  2.7704
  186MOL    H3122601   4.943   8.487   0.226  0.9878  0.4917 -1.5030
  186MOL    C3222602   4.993   8.456   0.438  0.1371  0.4532 -0.2546
  186MOL   Cl3322603   5.142   8.476   0.542  0.0609 -0.3908 -0.0099
  186MOL   Cl3422604   4.934   8.287   0.473  0.2826 -0.2427 -0.6045
  186MOL    C3522605   4.884   8.556   0.487  0.0591  0.0473  0.4564
  186MOL    H3622606   4.888   8.554   0.596 -1.5761  0.3328  0.5343
  186MOL    H3722607   4.927   8.653   0.465  0.6459 -0.1752  0.6064
  186MOL    C3822608   4.732   8.546   0.453  0.7003 -0.5143  0.3614
  186MOL   Cl3922609   4.708   8.605   0.283  0.5824 -0.4023 -0.0800
  186MOL   Cl4022610   4.647   8.670   0.551  0.5688  0.1518 -0.4011
  186MOL    C4122611   4.663   8.409   0.479 -0.5321 -0.0586 -0.8842
  186MOL    H4222612   4.685   8.340   0.397 -3.5708 -1.3423 -0.6896
  186MOL    H4322613   4.713   8.368   0.567  2.5814 -0.9222 -2.9597
  186MOL    C4422614   4.510   8.397   0.492  0.8452  0.0224  0.9682
  186MOL   Cl4522615   4.452   8.457   0.648  0.0145 -0.1242  0.3306
  186MOL   Cl4622616   4.471   8.228   0.494  0.2337 -0.5160 -0.0108
  186MOL    C4722617   4.431   8.458   0.366  0.1106  0.1442  0.6230
  186MOL    H4822618   4.470   8.556   0.341 -0.5152  0.1252 -0.4840
  186MOL    H4922619   4.456   8.401   0.276 -0.5655 -1.8377  1.6535
  186MOL    C5022620   4.274   8.473   0.368 -0.0756  0.3075  0.1337
  186MOL   Cl5122621   4.233   8.534   0.203 -0.2068 -0.0518  0.3216
  186MOL   Cl5222622   4.243   8.615   0.465  0.1452 -0.2943  0.0811
  186MOL    C5322623   4.189   8.347   0.403  0.4315 -0.4098  0.0965
  186MOL    H5422624   4.239   8.281   0.333  0.4393  0.6879 -0.9505
  186MOL    H5522625   4.215   8.310   0.502 -1.4290  1.2264  1.2421
  186MOL    C5622626   4.031   8.335   0.380 -0.1533  0.1101  0.0386
  186MOL   Cl5722627   3.973   8.188   0.461  0.1795 -0.0790  0.1731
  186MOL   Cl5822628   4.000   8.313   0.204  0.2480 -0.6073  0.1829
  186MOL    C5922629   3.949   8.463   0.418 -0.2342 -0.4276  0.7467
  186MOL    H6022630   3.999   8.559   0.404 -0.7477 -0.2719 -0.0975
  186MOL    H6122631   3.855   8.464   0.363  0.4628 -0.5148 -0.4867
  186MOL    C6222632   3.899   8.479   0.563 -0.1766  0.6394  0.5155
  186MOL   Cl6322633   4.033   8.429   0.675 -0.3684  0.5214 -0.0180
  186MOL   Cl6422634   3.755   8.377   0.596  0.0849 -0.0796  0.2247
  186MOL    C6522635   3.886   8.623   0.615 -0.0819 -0.7124  0.0511
  186MOL    H6622636   3.885   8.622   0.724  2.6799 -0.1208  0.1232
  186MOL    H6722637   3.985   8.659   0.589 -0.0301 -0.4827  0.5572
  186MOL    C6822638   3.771   8.725   0.569  0.2717 -0.7182  0.1607
  186MOL   Cl6922639   3.619   8.667   0.649 -0.0620 -0.3449  0.4366
  186MOL   Cl7022640   3.734   8.717   0.390  0.0406  0.0408 -0.3029
  186MOL    C7122641   3.787   8.874   0.604  0.1637  0.2138  0.2740
  186MOL    H7222642   3.694   8.920   0.571 -0.5474  0.1896  2.2116
  186MOL    H7322643   3.783   8.878   0.713 -1.5678  0.8409  0.2045
  186MOL    C7422644   3.901   8.970   0.540 -0.4865 -0.4640 -0.1954
  186MOL   Cl7522645   3.866   9.014   0.366 -0.3035  0.4099 -0.5612
  186MOL   Cl7622646   4.061   8.903   0.541 -0.1669  0.1906  0.2259
  186MOL    C7722647   3.920   9.104   0.614 -0.1109 -0.0027  0.3862
  186MOL    H7822648   3.982   9.091   0.702  0.9270  0.4741 -0.2708
  186MOL    H7922649   3.978   9.178   0.559  0.2387  1.1558  2.2935
  186MOL    C8022650   3.794   0.006   0.663 -0.9813 -0.2997 -0.0666
  186MOL   Cl8122651   3.674   0.015   0.536  0.0910  0.0822 -0.2153
  186MOL   Cl8222652   3.847   0.175   0.690 -0.2459 -0.0479 -0.0034
  186MOL    C8322653   3.705   9.148   0.785 -0.5020 -0.2555 -0.0370
  186MOL    H8422654   3.618   0.033   0.797  0.2976  0.5065  1.7827
  186MOL    H8522655   3.656   9.051   0.773  1.7209 -1.4852  0.6697
  186MOL    C8622656   3.765   9.124   0.933 -0.0264 -0.1503  0.0935
  186MOL   Cl8722657   3.835   0.104   0.988  0.4581  0.3762  0.1116
  186MOL   Cl8822658   3.888   8.986   0.941 -0.0630  0.2292  0.0643
  186MOL    C8922659   3.654   9.094   1.038  0.5621  0.5251 -0.7763
  186MOL    H9022660   3.567   9.152   1.007  0.3081  0.8095  0.4434
  186MOL    H9122661   3.616   8.995   1.013  2.6405  0.2887 -3.2508
  186MOL    C9222662   3.681   9.082   1.191 -0.2590  0.2556 -0.2724
  186MOL   Cl9322663   3.538   8.988   1.251 -0.3009 -0.1363  0.0172
  186MOL   Cl9422664   3.661   0.067   1.258  0.3206  0.0003 -0.1915
  186MOL    C9522665   3.819   9.026   1.241 -0.7623 -0.7701 -0.5612
  186MOL    H9622666   3.839   8.935   1.186  1.6504 -2.5071  2.9869
  186MOL    H9722667   3.887   9.105   1.209 -1.9626  0.2767 -0.5783
  186MOL    C9822668   3.858   8.989   1.388 -0.6331 -0.1310 -1.1559
  186MOL   Cl9922669   3.772   8.840   1.411 -0.0539  0.3568 -0.4915
  186MOL  Cl10022670   3.794   9.114   1.497 -0.1758  0.2697 -0.1164
  186MOL   C10122671   4.014   8.973   1.407 -0.6654  1.0490 -0.4059
  186MOL   H10222672   4.041   8.886   1.348  0.8096  0.6658  0.7911
  186MOL   H10322673   4.060   9.060   1.360  0.2966  0.2873 -0.8838
  186MOL   C10422674   4.083   8.970   1.547 -0.2092  0.0875  0.0887
  186MOL  Cl10522675   4.104   9.135   1.626 -0.0497  0.3973 -0.4708
  186MOL  Cl10622676   4.255   8.917   1.520  0.2318  0.3071  0.3525
  186MOL   C10722677   4.016   8.869   1.644  0.4902 -0.7633 -0.7266
  186MOL   H10822678   3.922   8.913   1.678  0.1040  0.3382 -3.1305
  186MOL   H10922679   3.996   8.784   1.579 -0.6702 -1.5564  0.6394
  186MOL   C11022680   4.072   8.798   1.777 -0.1896  0.1304 -0.2582
  186MOL  Cl11122681   4.142   8.646   1.730 -0.1916  0.3515 -0.2963
  186MOL  Cl11222682   3.929   8.751   1.871 -0.0528 -0.1514 -0.0121
  186MOL   C11322683   4.175   8.883   1.857  0.5314  0.2549  0.1900
  186MOL   H11422684   4.251   8.914   1.786 -0.1649  1.7540  0.0737
  186MOL   H11522685   4.122   8.977   1.876  1.8235  0.8458  0.8698
  186MOL   C11622686   4.236   8.829   1.989  0.1171  0.0977 -0.3546
  186MOL  Cl11722687   4.284   8.975   2.070 -0.3430  0.0619 -0.2759
  186MOL  Cl11822688   4.385   8.741   1.944 -0.0371  0.1388 -0.5141
  186MOL   C11922689   4.153   8.750   2.087  0.3739  0.2877  0.0730
  186MOL   H12022690   4.064   8.797   2.128 -0.0784  2.5704 -3.3614
  186MOL   H12122691   4.125   8.657   2.038 -0.7873  0.9179 -0.4849
  186MOL   H12222692   4.215   8.720   2.172 -1.3433  0.3908  1.3826
  187MOL     C122693   0.116   7.414   1.357  0.0432  0.4547  0.1913
  187MOL    Cl222694   0.013   7.301   1.266  0.2050  0.1517 -0.2874
  187MOL    Cl322695   0.061   7.424   1.518  0.1135  0.0937 -0.3116
  187MOL     C422696   0.266   7.373   1.351 -0.3286 -0.5340 -0.2308
  187MOL     H522697   0.282   7.291   1.420 -2.2640  0.2204  1.1827
  187MOL     H622698   0.280   7.334   1.251 -0.0162 -2.1965  0.4466
  187MOL     H722699   0.100   7.511   1.311  1.3858 -0.4734 -2.3184
  187MOL     C822700   0.372   7.489   1.364  0.8385 -0.6251  0.2407
  187MOL    Cl922701   0.350   7.579   1.520  0.1905 -0.2261 -0.2202
  187MOL   Cl1022702   0.328   7.610   1.243 -0.1364  0.0614  0.2488
  187MOL    C1122703   0.517   7.453   1.353  0.3183 -0.0726  0.1224
  187MOL    H1222704   0.584   7.538   1.344 -0.6839  1.0773  2.9525
  187MOL    H1322705   0.544   7.419   1.453 -0.9029  0.7778  0.7547
  187MOL    C1422706   0.571   7.349   1.259  0.5735 -0.6406 -0.2956
  187MOL   Cl1522707   0.523   7.399   1.090 -0.1254  0.0198 -0.1264
  187MOL   Cl1622708   0.497   7.189   1.299  0.1835  0.2287  0.5542
  187MOL    C1722709   0.725   7.328   1.278 -0.5903  0.3146 -0.1387
  187MOL    H1822710   0.778   7.419   1.303  0.4034  0.7165 -3.5090
  187MOL    H1922711   0.725   7.272   1.372 -0.7021  1.8890  0.8100
  187MOL    C2022712   0.815   7.256   1.171  0.0359  0.4648 -0.1565
  187MOL   Cl2122713   0.838   7.378   1.039 -0.5097  0.1729  0.1271
  187MOL   Cl2222714   0.737   7.107   1.099 -0.2310  0.2617 -0.0702
  187MOL    C2322715   0.958   7.218   1.221  0.0447 -0.3977  0.5998
  187MOL    H2422716   1.014   7.195   1.130  1.7667  2.5728  0.8481
  187MOL    H2522717   1.021   7.295   1.265 -0.3281 -0.4179  1.1712
  187MOL    C2622718   0.983   7.087   1.310  0.9037 -0.7744  0.2308
  187MOL   Cl2722719   0.986   6.952   1.201  0.1135  0.1360 -0.5699
  187MOL   Cl2822720   0.843   7.054   1.415 -0.2731  0.2752  0.0543
  187MOL    C2922721   1.107   7.069   1.392  0.2397 -0.6455 -0.5323
  187MOL    H3022722   1.099   6.972   1.441  2.4574  0.2879  1.7859
  187MOL    H3122723   1.192   7.037   1.330 -0.0800  1.0233 -1.8579
  187MOL    C3222724   1.164   7.183   1.483 -0.3162 -0.0509 -0.3661
  187MOL   Cl3322725   1.033   7.290   1.543 -0.0586  0.3133  0.3227
  187MOL   Cl3422726   1.269   7.280   1.380  0.3137 -0.0538 -0.3792
  187MOL    C3522727   1.237   7.116   1.604  0.0699 -0.2746  0.6321
  187MOL    H3622728   1.155   7.086   1.670  0.0380  1.8838  1.6414
  187MOL    H3722729   1.296   7.028   1.580 -0.1112 -0.1318 -0.3592
  187MOL    C3822730   1.336   7.198   1.689 -0.2606  0.0501 -0.6033
  187MOL   Cl3922731   1.494   7.206   1.605  0.0612  0.2728  0.4266
  187MOL   Cl4022732   1.349   7.089   1.831  0.9343 -0.2224  0.1482
  187MOL    C4122733   1.278   7.333   1.740 -0.0735  0.5128 -0.1668
  187MOL    H4222734   1.250   7.381   1.645  0.7907 -0.7897 -1.0893
  187MOL    H4322735   1.185   7.323   1.797  1.0181 -2.0019  1.2125
  187MOL    C4422736   1.365   7.432   1.818 -0.2849 -0.2650 -0.6807
  187MOL   Cl4522737   1.254   7.564   1.856  0.2355 -0.2326  0.6373
  187MOL   Cl4622738   1.480   7.511   1.709 -0.0533 -0.1536 -0.2063
  187MOL    C4722739   1.434   7.374   1.948 -0.7952  0.2694 -0.2593
  187MOL    H4822740   1.362   7.310   1.999 -1.3346  1.2501  0.2077
  187MOL    H4922741   1.517   7.315   1.908 -1.2552 -1.7471  1.6613
  187MOL    C5022742   1.496   7.467   2.062 -1.1782  0.0179  0.1409
  187MOL   Cl5122743   1.608   7.581   1.990 -0.0337 -0.2855 -0.2937
  187MOL   Cl5222744   1.604   7.356   2.166 -0.1214  0.2151 -0.3727
  187MOL    C5322745   1.392   7.552   2.148  0.1553  0.2085 -0.1360
  187MOL    H5422746   1.369   7.643   2.093  1.3994  1.4914  1.4509
  187MOL    H5522747   1.306   7.485   2.147 -0.0761  0.5019  0.2280
  187MOL    C5622748   1.422   7.604   2.291 -0.7223  0.1861  0.2833
  187MOL   Cl5722749   1.577   7.692   2.292 -0.3035  0.2949  0.2200
  187MOL   Cl5822750   1.420   7.479   2.410  0.4887  0.2020  0.0406
  187MOL    C5922751   1.332   7.717   2.343  0.8053 -0.5543 -0.6840
  187MOL    H6022752   1.374   7.756   2.436 -1.2924  1.1009 -0.3736
  187MOL    H6122753   1.347   7.799   2.272 -0.2136 -0.1283 -0.4212
  187MOL    C6222754   1.184   7.713   2.361 -0.0276  0.7658 -0.3919
  187MOL   Cl6322755   1.111   7.674   2.200  0.0005 -0.0927  0.2070
  187MOL   Cl6422756   1.139   7.888   2.399 -0.3882  0.2341 -0.1238
  187MOL    C6522757   1.144   7.612   2.459  0.1372  0.0269 -0.7780
  187MOL    H6622758   1.173   7.510   2.435 -0.8352 -0.9176  1.8325
  187MOL    H6722759   1.188   7.636   2.556  1.7269  0.7251 -1.6601
  187MOL    C6822760   0.987   7.601   2.500 -0.0946 -0.0453 -0.3418
  187MOL   Cl6922761   0.941   7.752   2.583  0.5630 -0.1831 -0.0729
  187MOL   Cl7022762   0.969   7.469   2.615  0.0321  0.0542 -0.5038
  187MOL    C7122763   0.888   7.574   2.379 -0.2929 -0.4648 -0.1609
  187MOL    H7222764   0.879   7.662   2.315 -1.0519 -2.0763 -2.3365
  187MOL    H7322765   0.936   7.489   2.330  0.6361  0.3026 -0.6015
  187MOL    C7422766   0.738   7.530   2.399 -1.0918  0.0185 -0.3548
  187MOL   Cl7522767   0.736   7.352   2.399  0.2706  0.0597  0.2862
  187MOL   Cl7622768   0.661   7.570   2.242 -0.0797  0.3139 -0.2566
  187MOL    C7722769   0.663   7.589   2.525 -0.0028 -0.5359  0.1376
  187MOL    H7822770   0.724   7.619   2.610  0.1216 -2.3275  0.7066
  187MOL    H7922771   0.627   7.688   2.499  0.0548 -0.2695  1.0605
  187MOL    C8022772   0.540   7.528   2.582  0.3140 -0.7368  0.7742
  187MOL   Cl8122773   0.484   7.651   2.701  0.1619  0.3709  0.0284
  187MOL   Cl8222774   0.598   7.392   2.679 -0.1633 -0.1244 -0.0934
  187MOL    C8322775   0.433   7.486   2.477 -0.1920 -0.1525 -0.3936
  187MOL    H8422776   0.437   7.548   2.387 -0.2532  1.3746  0.6348
  187MOL    H8522777   0.463   7.387   2.445 -0.5914 -0.2421 -0.4899
  187MOL    C8622778   0.279   7.474   2.525  0.2610 -0.8653 -0.9757
  187MOL   Cl8722779   0.225   7.639   2.516  0.0013  0.1908 -0.5026
  187MOL   Cl8822780   0.262   7.414   2.690 -0.3338 -0.1727 -0.0279
  187MOL    C8922781   0.193   7.394   2.422 -0.3555 -0.3946 -0.3699
  187MOL    H9022782   0.196   7.449   2.327  0.5069  0.2747  0.0353
  187MOL    H9122783   0.232   7.293   2.409  0.0815 -0.1512 -0.9612
  187MOL    C9222784   0.043   7.360   2.448 -0.5486 -0.1529 -0.5413
  187MOL   Cl9322785   0.019   7.230   2.581 -0.2515  0.4111  0.6462
  187MOL   Cl9422786   9.170   7.276   2.299 -0.2064 -0.3989  0.0531
  187MOL    C9522787   9.136   7.483   2.458  0.1430  0.2122 -0.0958
  187MOL    H9622788   9.173   7.533   2.547  0.6772 -0.3197 -0.0170
  187MOL    H9722789   9.159   7.551   2.376 -1.2637 -1.1000 -1.6099
  187MOL    C9822790   8.986   7.478   2.475 -0.2377 -0.2307 -0.0622
  187MOL   Cl9922791   8.924   7.649   2.483 -0.3932 -0.0552  0.0030
  187MOL  Cl10022792   8.944   7.417   2.632  0.1315 -0.4274 -0.5429
  187MOL   C10122793   8.898   7.410   2.366  0.0048 -0.2484 -1.1191
  187MOL   H10222794   8.917   7.303   2.370  1.3413  0.0201 -0.1905
  187MOL   H10322795   8.805   7.421   2.422  1.2390 -3.0444  1.6361
  187MOL   C10422796   8.878   7.467   2.226 -0.1604  0.7400 -0.1022
  187MOL  Cl10522797   9.023   7.547   2.168 -0.1813  0.2240 -0.1946
  187MOL  Cl10622798   8.744   7.583   2.224  0.3702 -0.2151  0.1342
  187MOL   C10722799   8.845   7.362   2.118 -0.2825  0.1137  0.7478
  187MOL   H10822800   8.813   7.409   2.025 -0.0386  0.6653  0.9411
  187MOL   H10922801   8.932   7.300   2.095 -1.9672 -1.0554 -2.8162
  187MOL   C11022802   8.727   7.261   2.134  0.2360 -0.3079 -0.3749
  187MOL  Cl11122803   8.577   7.329   2.213 -0.2152  0.4812 -0.0439
  187MOL  Cl11222804   8.797   7.124   2.235  0.1724 -0.0227 -0.1461
  187MOL   C11322805   8.690   7.203   1.993  0.1849  0.6640  0.4175
  187MOL   H11422806   8.643   7.107   2.012 -1.1006  0.4192 -3.5979
  187MOL   H11522807   8.617   7.258   1.934  2.5754  2.0686 -1.3005
  187MOL   C11622808   8.792   7.169   1.880 -0.1918 -0.1682 -0.2611
  187MOL  Cl11722809   8.921   7.057   1.928 -0.0540 -0.2051  0.0381
  187MOL  Cl11822810   8.860   7.312   1.801  0.4899 -0.0228 -0.2390
  187MOL   C11922811   8.709   7.097   1.765 -0.2294 -0.3165  0.7382
  187MOL   H12022812   8.648   7.015   1.804 -3.0932  0.8268 -1.2001
  187MOL   H12122813   8.648   7.171   1.714 -0.0853 -0.9085 -0.3180
  187MOL   H12222814   8.779   7.041   1.704  2.3384  0.3857  2.9508
  188MOL     C122815   8.272   4.713   7.121 -0.2336 -0.7241 -0.1121
  188MOL    Cl222816   8.379   4.599   7.028  0.0659 -0.2560  0.5575
  188MOL    Cl322817   8.371   4.792   7.251 -0.0070 -0.1853 -0.0305
  188MOL     C422818   8.219   4.827   7.026  0.7023  0.6583  0.2451
  188MOL     H522819   8.293   4.906   7.017  0.8755  0.2574 -1.9965
  188MOL     H622820   8.220   4.788   6.924 -1.3851  0.7256  0.1627
  188MOL     H722821   8.197   4.660   7.180 -0.0274 -0.7109  0.1645
  188MOL     C822822   8.078   4.880   7.066  0.0379  0.5696  0.9279
  188MOL    Cl922823   8.054   4.919   7.240  0.3330  0.0043 -0.1576
  188MOL   Cl1022824   7.968   4.743   7.024  0.0912  0.2471  0.3778
  188MOL    C1122825   8.022   5.002   6.985 -0.3216 -0.2239  0.4371
  188MOL    H1222826   7.986   4.986   6.883  1.4391  1.3646 -0.4564
  188MOL    H1322827   7.934   5.037   7.039 -1.5220 -1.2533 -0.8210
  188MOL    C1422828   8.131   5.119   6.955 -0.2275 -0.1502 -0.4414
  188MOL   Cl1522829   8.249   5.089   6.827  0.3802  0.1642  0.0009
  188MOL   Cl1622830   8.224   5.160   7.101 -0.4930 -0.0119  0.2253
  188MOL    C1722831   8.053   5.250   6.924 -0.1196  0.1136 -0.5316
  188MOL    H1822832   8.010   5.296   7.013 -0.1964  2.3611 -1.6994
  188MOL    H1922833   8.129   5.324   6.900 -0.8125  1.3373  0.9253
  188MOL    C2022834   7.944   5.264   6.810 -0.6719 -0.0379  0.1161
  188MOL   Cl2122835   7.794   5.182   6.866 -0.0928 -0.2178 -0.3882
  188MOL   Cl2222836   7.996   5.193   6.651  0.1406  0.1588  0.3175
  188MOL    C2322837   7.900   5.410   6.796 -0.2104  0.4855 -0.0473
  188MOL    H2422838   7.841   5.413   6.705  1.2202  0.6551 -0.9985
  188MOL    H2522839   7.846   5.432   6.888 -1.6392 -2.8121 -0.0068
  188MOL    C2622840   7.998   5.530   6.776 -0.0793 -0.5325 -0.6573
  188MOL   Cl2722841   8.108   5.487   6.640 -0.2265  0.0983 -0.2258
  188MOL   Cl2822842   8.095   5.567   6.924  0.0973 -0.1620  0.3366
  188MOL    C2922843   7.932   5.662   6.725  0.4321 -0.1207 -0.5128
  188MOL    H3022844   8.013   5.728   6.695  1.5276 -1.0450  0.3778
  188MOL    H3122845   7.876   5.639   6.634 -4.2748  0.7370  1.9794
  188MOL    C3222846   7.831   5.734   6.818  0.0289 -0.2254  0.6756
  188MOL   Cl3322847   7.693   5.620   6.834  0.2642 -0.2394 -0.0727
  188MOL   Cl3422848   7.774   5.874   6.717  0.2088  0.3241  0.4621
  188MOL    C3522849   7.872   5.770   6.958  0.2125 -0.2662  0.2270
  188MOL    H3622850   7.785   5.801   7.015 -0.6999 -0.1459 -1.2067
  188MOL    H3722851   7.882   5.676   7.012 -0.4739 -1.3190 -1.4148
  188MOL    C3822852   7.966   5.892   6.982  0.6365 -0.0973  0.6814
  188MOL   Cl3922853   7.866   6.041   6.979 -0.2294  0.0698  0.0339
  188MOL   Cl4022854   8.096   5.913   6.865 -0.0252  0.0730 -0.4023
  188MOL    C4122855   8.018   5.869   7.124  0.3419  0.1679 -0.3207
  188MOL    H4222856   7.930   5.862   7.188  0.4467 -0.3690 -0.2327
  188MOL    H4322857   8.067   5.772   7.134  2.1034  1.0294 -0.2953
  188MOL    C4422858   8.108   5.971   7.199 -0.0808  0.3863 -0.6406
  188MOL   Cl4522859   8.172   5.873   7.331 -0.1660 -0.1299 -0.0837
  188MOL   Cl4622860   8.003   6.098   7.272  0.0345 -0.1108  0.3539
  188MOL    C4722861   8.222   6.037   7.112 -0.0989 -0.7411 -0.0954
  188MOL    H4822862   8.282   5.953   7.075  1.9992  1.2034 -1.2354
  188MOL    H4922863   8.171   6.091   7.033 -1.9520  0.5773  1.9665
  188MOL    C5022864   8.328   6.134   7.173 -0.5507 -0.1814  0.5703
  188MOL   Cl5122865   8.234   6.276   7.220 -0.1612 -0.2159  0.0240
  188MOL   Cl5222866   8.438   6.182   7.036  0.2498 -0.3129 -0.3471
  188MOL    C5322867   8.395   6.079   7.309  0.2879  0.3207  0.7945
  188MOL    H5422868   8.324   6.108   7.387 -0.7160  0.0847 -0.0180
  188MOL    H5522869   8.403   5.970   7.314 -0.6162  0.2410  0.7498
  188MOL    C5622870   8.526   6.143   7.372  0.1397 -0.0340 -0.8179
  188MOL   Cl5722871   8.504   6.316   7.377 -0.1549  0.1463  0.1001
  188MOL   Cl5822872   8.667   6.122   7.269  0.3137  0.2053  0.4324
  188MOL    C5922873   8.563   6.081   7.514 -0.5733 -0.3042  0.3148
  188MOL    H6022874   8.600   5.981   7.493  1.3905  0.5983 -0.6583
  188MOL    H6122875   8.643   6.141   7.556 -0.1224  0.4893 -1.6284
  188MOL    C6222876   8.461   6.061   7.630 -0.0081 -0.7208  0.7733
  188MOL   Cl6322877   8.351   5.926   7.591 -0.1954 -0.0929  0.0118
  188MOL   Cl6422878   8.365   6.210   7.653 -0.1111 -0.0768  0.4291
  188MOL    C6522879   8.539   6.041   7.766  0.1268  0.3417  0.7104
  188MOL    H6622880   8.631   6.099   7.758  1.0258 -1.1642 -0.1790
  188MOL    H6722881   8.479   6.090   7.842  0.3482 -0.1937  1.2332
  188MOL    C6822882   8.581   5.903   7.814  0.4870  0.1475 -0.1584
  188MOL   Cl6922883   8.715   5.926   7.929 -0.3379 -0.1597  0.0721
  188MOL   Cl7022884   8.651   5.792   7.690 -0.1310 -0.0286 -0.2983
  188MOL    C7122885   8.459   5.827   7.878  0.6795  0.2387  0.3688
  188MOL    H7222886   8.388   5.902   7.915 -0.3569 -0.4225 -0.2550
  188MOL    H7322887   8.414   5.779   7.791 -0.8114  2.8066 -0.3325
  188MOL    C7422888   8.460   5.712   7.982  0.1351 -0.1438 -0.2505
  188MOL   Cl7522889   8.296   5.649   7.989  0.1787  0.1367 -0.0240
  188MOL   Cl7622890   8.493   5.779   8.144 -0.0220  0.1750 -0.0015
  188MOL    C7722891   8.566   5.601   7.946  0.2969  0.9946  0.2313
  188MOL    H7822892   8.555   5.576   7.841 -0.2864  0.7304  0.3545
  188MOL    H7922893   8.665   5.647   7.941  0.5292  0.4920  0.2461
  188MOL    C8022894   8.575   5.464   8.019 -0.0293 -0.5566  0.1599
  188MOL   Cl8122895   8.723   5.390   7.944 -0.5929  0.0199 -0.1286
  188MOL   Cl8222896   8.440   5.359   7.970  0.1784 -0.0377  0.1803
  188MOL    C8322897   8.586   5.450   8.175  0.6325 -0.4557  0.4389
  188MOL    H8422898   8.499   5.509   8.201 -0.5871 -0.9984 -2.2867
  188MOL    H8522899   8.567   5.346   8.197 -2.2510 -0.3839 -1.4580
  188MOL    C8622900   8.713   5.487   8.266  0.7334 -0.2065 -0.4864
  188MOL   Cl8722901   8.784   5.650   8.249  0.1639  0.1616  0.1788
  188MOL   Cl8822902   8.839   5.372   8.230 -0.2220 -0.4519 -0.3435
  188MOL    C8922903   8.677   5.452   8.418 -0.1749  0.8783  0.1539
  188MOL    H9022904   8.622   5.357   8.415 -1.0014  1.2854  1.6143
  188MOL    H9122905   8.771   5.414   8.457 -0.9847 -0.5618  0.7466
  188MOL    C9222906   8.611   5.538   8.520 -0.6583 -0.1802  0.4640
  188MOL   Cl9322907   8.471   5.618   8.458  0.0877 -0.8263  0.2220
  188MOL   Cl9422908   8.729   5.664   8.567 -0.1345 -0.0895  0.1701
  188MOL    C9522909   8.583   5.453   8.646  0.3702 -0.4277 -0.5043
  188MOL    H9622910   8.527   5.365   8.615  0.9601 -1.6996  1.9027
  188MOL    H9722911   8.677   5.412   8.684  0.8602  1.4392  0.3876
  188MOL    C9822912   8.507   5.519   8.767 -0.1036 -0.2014 -0.3280
  188MOL   Cl9922913   8.331   5.539   8.732 -0.3041 -0.0033 -0.2040
  188MOL  Cl10022914   8.566   5.678   8.825  0.2173 -0.2830 -0.2855
  188MOL   C10122915   8.506   5.419   8.888 -0.5367  0.1373 -0.6503
  188MOL   H10222916   8.452   5.461   8.973 -2.4093 -0.4271 -1.5460
  188MOL   H10322917   8.446   5.332   8.861 -1.7646  0.6988  0.2232
  188MOL   C10422918   8.630   5.346   8.939  0.5775  0.9322  0.0804
  188MOL  Cl10522919   8.767   5.441   8.917 -0.3823 -0.2883  0.6574
  188MOL  Cl10622920   8.663   5.202   8.837 -0.2856  0.4470 -0.0337
  188MOL   C10722921   8.619   5.308   9.092 -0.0227  0.6378 -0.1143
  188MOL   H10822922   8.721   5.280   9.119  0.2087  0.9036 -0.7204
  188MOL   H10922923   8.588   5.403   9.135 -0.4207  0.6870 -0.5060
  188MOL   C11022924   8.517   5.200   9.140 -0.8274 -0.5199  0.1035
  188MOL  Cl11122925   8.548   5.041   9.068 -0.0509 -0.4282 -0.1584
  188MOL  Cl11222926   8.349   5.240   9.089  0.2958 -0.1260  0.0574
  188MOL   C11322927   8.512   5.161   0.117  0.0570 -0.9115 -0.3277
  188MOL   H11422928   8.415   5.117   0.140 -0.6603  0.7492 -0.1146
  188MOL   H11522929   8.585   5.084   0.144 -0.3302 -0.4723  2.1250
  188MOL   C11622930   8.535   5.271   0.220 -0.2332  0.2998 -0.2317
  188MOL  Cl11722931   8.435   5.415   0.164 -0.2571  0.0745 -0.1569
  188MOL  Cl11822932   8.706   5.313   0.229  0.2000 -0.3722  0.1246
  188MOL   C11922933   8.493   5.233   0.359  0.0308 -0.1047 -0.1489
  188MOL   H12022934   8.556   5.149   0.390  1.4127  0.4122 -1.4958
  188MOL   H12122935   8.516   5.308   0.435 -0.2817  1.4700 -1.5984
  188MOL   H12222936   8.387   5.219   0.377 -0.1608  1.1679 -0.2953
  189MOL     C122937   0.893   7.879   4.413  0.0977 -0.0864  0.3178
  189MOL    Cl222938   1.004   7.966   4.309 -0.0695 -0.5366  0.0127
  189MOL    Cl322939   0.779   7.999   4.488  0.2445  0.2462 -0.4414
  189MOL     C422940   0.808   7.771   4.346  0.7340  1.0411  0.5869
  189MOL     H522941   0.733   7.735   4.416  0.9496 -1.1152 -0.2341
  189MOL     H622942   0.758   7.794   4.252 -0.3758 -0.4931  0.7690
  189MOL     H722943   0.950   7.842   4.499  2.8117  0.5292 -1.1726
  189MOL     C822944   0.874   7.640   4.301 -0.9544  0.0038 -0.3558
  189MOL    Cl922945   0.753   7.510   4.292 -0.0644  0.4494 -0.1330
  189MOL   Cl1022946   0.986   7.590   4.433  0.2968  0.1921 -0.2396
  189MOL    C1122947   0.960   7.643   4.163 -0.0411 -0.3563 -0.0911
  189MOL    H1222948   1.045   7.709   4.184  0.8641 -2.4053  3.0843
  189MOL    H1322949   1.010   7.547   4.158  1.8657  0.5520  0.9857
  189MOL    C1422950   0.895   7.677   4.024 -0.0790  0.3122  0.3169
  189MOL   Cl1522951   1.014   7.627   3.904  0.3566  0.1316  0.1174
  189MOL   Cl1622952   0.858   7.849   4.023  0.5941  0.6743  0.0024
  189MOL    C1722953   0.767   7.589   3.990 -0.7281 -0.6017 -0.2869
  189MOL    H1822954   0.784   7.487   4.025 -2.2512 -1.3820 -1.6892
  189MOL    H1922955   0.677   7.613   4.048 -0.7992 -0.4392 -0.4638
  189MOL    C2022956   0.708   7.576   3.846  0.2570  0.4676  0.1982
  189MOL   Cl2122957   0.553   7.489   3.876  0.1008  0.7250  0.0510
  189MOL   Cl2222958   0.801   7.461   3.756 -0.0555 -0.0139  0.0708
  189MOL    C2322959   0.687   7.713   3.770  0.2742 -0.6688  0.7918
  189MOL    H2422960   0.621   7.775   3.831 -1.1670  1.7783 -3.0404
  189MOL    H2522961   0.781   7.767   3.765  0.3002 -0.8611 -1.5427
  189MOL    C2622962   0.630   7.711   3.626  0.9553 -0.3623 -1.1326
  189MOL   Cl2722963   0.462   7.635   3.612 -0.1232 -0.2549  0.3266
  189MOL   Cl2822964   0.741   7.645   3.506 -0.4384  0.1955 -0.2008
  189MOL    C2922965   0.630   7.855   3.563 -0.0813 -0.6301 -0.7010
  189MOL    H3022966   0.734   7.888   3.556 -0.4921  0.5825 -1.2511
  189MOL    H3122967   0.583   7.843   3.466 -2.3661 -2.2553  0.5758
  189MOL    C3222968   0.554   7.978   3.629  0.5746 -0.3047 -0.3863
  189MOL   Cl3322969   0.651   8.037   3.765  0.3860 -0.1734  0.1307
  189MOL   Cl3422970   0.388   7.945   3.686  0.2053 -0.0022 -0.3842
  189MOL    C3522971   0.539   8.090   3.526  0.1664 -0.2362  0.3481
  189MOL    H3622972   0.457   8.060   3.461  1.2960 -1.7868 -0.4019
  189MOL    H3722973   0.493   8.178   3.570 -1.1189  0.0113 -1.4745
  189MOL    C3822974   0.657   8.143   3.439 -0.1315  0.3351 -0.4764
  189MOL   Cl3922975   0.702   8.018   3.314  0.3447  0.3524 -0.0692
  189MOL   Cl4022976   0.806   8.174   3.542 -0.0173  0.0204 -0.2000
  189MOL    C4122977   0.628   8.280   3.369  0.1218  0.1857 -0.5098
  189MOL    H4222978   0.580   8.336   3.449 -1.2856  1.1874 -2.0108
  189MOL    H4322979   0.722   8.332   3.354 -0.5237  1.3889 -0.4602
  189MOL    C4422980   0.535   8.303   3.242 -0.8148  0.6617  1.1970
  189MOL   Cl4522981   0.500   8.477   3.234 -0.3348  0.5148  0.2122
  189MOL   Cl4622982   0.381   8.219   3.260  0.3628  0.2508 -0.3041
  189MOL    C4722983   0.614   8.268   3.112  0.1763 -0.0868  0.0468
  189MOL    H4822984   0.663   8.361   3.085  0.6666 -0.6147 -0.9045
  189MOL    H4922985   0.700   8.202   3.131 -1.1456 -1.2731  2.1858
  189MOL    C5022986   0.543   8.213   2.987 -0.3722 -0.1675  0.2900
  189MOL   Cl5122987   0.401   8.317   2.950  0.0230 -0.1440 -0.0211
  189MOL   Cl5222988   0.484   8.048   3.020 -0.1646  0.2791  0.0456
  189MOL    C5322989   0.636   8.220   2.863 -0.2976  0.9486 -0.0653
  189MOL    H5422990   0.577   8.252   2.777 -1.0921 -0.4806 -0.0570
  189MOL    H5522991   0.709   8.299   2.882 -1.0552  2.4018 -3.0145
  189MOL    C5622992   0.721   8.094   2.815  0.3826 -0.4900  0.0325
  189MOL   Cl5722993   0.614   7.974   2.724  0.2150  0.1661 -0.2008
  189MOL   Cl5822994   0.791   8.016   2.956 -0.0999 -0.2503 -0.2660
  189MOL    C5922995   0.839   8.114   2.712 -0.0674  0.2448 -0.4467
  189MOL    H6022996   0.895   8.021   2.706  0.4190  0.5287 -0.3531
  189MOL    H6122997   0.791   8.117   2.615 -1.6648  0.2885  0.3401
  189MOL    C6222998   0.945   8.231   2.717 -0.2501  0.2302  0.0251
  189MOL   Cl6322999   1.000   8.257   2.885 -0.2999  0.0180 -0.0770
  189MOL   Cl6423000   0.863   8.377   2.663  0.0349 -0.2312 -0.4089
  189MOL    C6523001   1.065   8.200   2.615  0.1826  0.1503 -0.2701
  189MOL    H6623002   1.100   8.101   2.644 -1.7278 -0.2078  0.9159
  189MOL    H6723003   1.013   8.194   2.520  0.6394 -0.7792 -0.4653
  189MOL    C6823004   1.196   8.281   2.612  0.1094 -0.0746 -0.0614
  189MOL   Cl6923005   1.300   8.231   2.471 -0.4686 -0.4300  0.0250
  189MOL   Cl7023006   1.286   8.233   2.764 -0.1271 -0.6761 -0.1576
  189MOL    C7123007   1.190   8.443   2.609  0.1460 -0.2209  0.2302
  189MOL    H7223008   1.121   8.475   2.687 -0.8136 -0.2622 -0.5893
  189MOL    H7323009   1.288   8.473   2.646  1.3379 -0.6362 -2.4744
  189MOL    C7423010   1.155   8.530   2.480 -0.3275 -0.2846  0.1834
  189MOL   Cl7523011   1.028   8.451   2.385 -0.0570 -0.2276  0.4600
  189MOL   Cl7623012   1.313   8.547   2.399 -0.3761 -0.4168 -0.1105
  189MOL    C7723013   1.108   8.674   2.519  0.0376 -0.7973  0.6313
  189MOL    H7823014   1.004   8.664   2.552 -0.8104 -0.4588 -1.8550
  189MOL    H7923015   1.175   8.712   2.596 -0.1693  0.1578  0.3486
  189MOL    C8023016   1.111   8.792   2.417 -0.0528  0.4347 -0.2976
  189MOL   Cl8123017   1.272   8.869   2.417  0.0322  0.3364  0.0090
  189MOL   Cl8223018   1.005   8.911   2.485 -0.0868 -0.0129 -0.0127
  189MOL    C8323019   1.056   8.746   2.281 -0.4208 -0.1440  0.1251
  189MOL    H8423020   1.120   8.673   2.233 -0.8486 -1.4592  1.5218
  189MOL    H8523021   0.967   8.683   2.293  0.6069 -2.1400 -2.2109
  189MOL    C8623022   1.014   8.832   2.155 -0.1688 -0.4049 -0.1295
  189MOL   Cl8723023   1.127   8.965   2.124  0.3391  0.2164 -0.1920
  189MOL   Cl8823024   0.864   8.920   2.188 -0.0804  0.2987 -0.5156
  189MOL    C8923025   1.001   8.749   2.022  0.4105 -0.2461  0.3017
  189MOL    H9023026   0.940   8.661   2.042  1.0684 -0.7115  0.2515
  189MOL    H9123027   0.925   8.793   1.958  2.5017  1.5911 -1.0011
  189MOL    C9223028   1.127   8.715   1.936  0.0378 -0.0519  0.3492
  189MOL   Cl9323029   1.085   8.556   1.873 -0.0639  0.3355 -0.2218
  189MOL   Cl9423030   1.270   8.691   2.030 -0.1288  0.5985 -0.3315
  189MOL    C9523031   1.131   8.824   1.822 -0.4172 -0.1839  0.3922
  189MOL    H9623032   1.050   8.807   1.752 -0.2376 -1.7249  0.5472
  189MOL    H9723033   1.107   8.925   1.854  0.5679  0.0171  0.5322
  189MOL    C9823034   1.265   8.838   1.732 -0.1122  0.5783  0.5377
  189MOL   Cl9923035   1.395   8.914   1.830 -0.2875  0.0400 -0.1442
  189MOL  Cl10023036   1.227   8.940   1.592 -0.0641  0.1450 -0.0511
  189MOL   C10123037   1.317   8.700   1.692 -0.0710 -0.1819  0.1400
  189MOL   H10223038   1.361   8.652   1.779 -0.7471  0.9955  1.1522
  189MOL   H10323039   1.229   8.640   1.668 -1.0600  0.8488  1.1415
  189MOL   C10423040   1.410   8.679   1.573 -0.4172  0.5968 -0.2806
  189MOL  Cl10523041   1.326   8.703   1.420 -0.6564  0.0050  0.1584
  189MOL  Cl10623042   1.452   8.505   1.582 -0.1172  0.0448  0.2542
  189MOL   C10723043   1.548   8.763   1.576  1.1961 -0.1756  0.0506
  189MOL   H10823044   1.539   8.862   1.620 -1.5468 -0.1918 -0.3916
  189MOL   H10923045   1.603   8.711   1.654 -1.0528 -0.5269  1.4439
  189MOL   C11023046   1.644   8.775   1.454  0.3442  0.4062 -0.0241
  189MOL  Cl11123047   1.560   8.873   1.338  0.3950 -0.3389  0.0217
  189MOL  Cl11223048   1.677   8.623   1.369  0.0361 -0.1514  0.1997
  189MOL   C11323049   1.782   8.850   1.486  0.3925  0.3862  0.0870
  189MOL   H11423050   1.831   8.862   1.390 -0.9441 -2.9277 -1.0746
  189MOL   H11523051   1.744   8.949   1.511 -0.9320 -0.2636  0.6845
  189MOL   C11623052   1.869   8.827   1.603  0.1246 -0.0775 -0.1773
  189MOL  Cl11723053   1.894   8.651   1.608  0.0041 -0.2295 -0.0240
  189MOL  Cl11823054   1.792   8.871   1.765 -0.2094  0.0882  0.3500
  189MOL   C11923055   2.010   8.886   1.593  0.0940  0.2219  0.2855
  189MOL   H12023056   2.057   8.856   1.500  1.4591  3.2415 -0.0464
  189MOL   H12123057   1.996   8.994   1.588  0.3847  0.1534 -3.8405
  189MOL   H12223058   2.075   8.858   1.676  1.3418  2.5901  0.1343
  190MOL     C123059   6.153   4.874   3.387  0.0741  0.1140 -0.2777
  190MOL    Cl223060   6.197   4.957   3.239  0.2081 -0.2741 -0.0301
  190MOL    Cl323061   6.301   4.832   3.462  0.3427 -0.3229  0.3153
  190MOL     C423062   6.069   4.969   3.480 -0.6366 -0.4937  0.0069
  190MOL     H523063   6.087   4.941   3.584  1.2739  0.5740 -0.0136
  190MOL     H623064   6.120   5.064   3.469 -0.4394 -0.3586  1.8239
  190MOL     H723065   6.097   4.783   3.366  2.8837 -0.9938 -3.3959
  190MOL     C823066   5.917   4.972   3.455 -0.1970  0.1011 -0.0395
  190MOL    Cl923067   5.856   5.091   3.578  0.2428 -0.0515 -0.2464
  190MOL   Cl1023068   5.854   4.813   3.508 -0.3247  0.0825 -0.0678
  190MOL    C1123069   5.868   4.999   3.309 -0.7769  0.9329 -0.0424
  190MOL    H1223070   5.913   4.924   3.245  0.4979  0.0113  1.8703
  190MOL    H1323071   5.765   4.963   3.313 -0.9447  1.4557  0.5708
  190MOL    C1423072   5.875   5.140   3.241 -0.1372  0.1830 -0.0358
  190MOL   Cl1523073   6.023   5.236   3.279  0.1763  0.1217 -0.3393
  190MOL   Cl1623074   5.741   5.248   3.303 -0.3006 -0.1042 -0.2969
  190MOL    C1723075   5.868   5.132   3.084  0.2823 -0.5323 -0.1214
  190MOL    H1823076   5.885   5.237   3.060 -0.9998 -0.3678 -0.3511
  190MOL    H1923077   5.956   5.081   3.045  1.4315  0.8062  0.6494
  190MOL    C2023078   5.737   5.098   3.009  0.5543 -0.0065 -0.2492
  190MOL   Cl2123079   5.667   4.944   3.074 -0.1685  0.3548  0.1480
  190MOL   Cl2223080   5.780   5.069   2.838 -0.3204  0.1157 -0.3807
  190MOL    C2323081   5.624   5.213   3.012  0.2563 -0.1951 -0.4303
  190MOL    H2423082   5.581   5.208   3.112  0.8103  1.8353 -0.0768
  190MOL    H2523083   5.665   5.314   3.016  2.2269 -0.9213 -1.4703
  190MOL    C2623084   5.500   5.220   2.917 -0.1652 -0.5529 -0.0386
  190MOL   Cl2723085   5.429   5.062   2.872 -0.1342  0.1507  0.3538
  190MOL   Cl2823086   5.546   5.303   2.763 -0.6304 -0.0108  0.0971
  190MOL    C2923087   5.395   5.305   2.996  0.3044  0.3566 -0.0546
  190MOL    H3023088   5.361   5.233   3.071  0.2337 -0.7337 -1.1049
  190MOL    H3123089   5.447   5.378   3.058  1.2745  0.4395 -0.9685
  190MOL    C3223090   5.269   5.367   2.918  1.0305  0.1654 -0.5283
  190MOL   Cl3323091   5.307   5.510   2.813  0.3407  0.2366 -0.4336
  190MOL   Cl3423092   5.159   5.406   3.052  0.3434  0.0045  0.0701
  190MOL    C3523093   5.200   5.262   2.824  0.2060 -0.3160  0.4409
  190MOL    H3623094   5.273   5.238   2.747 -0.1444 -1.7270  0.5243
  190MOL    H3723095   5.192   5.170   2.882 -2.7967 -0.9932 -0.9425
  190MOL    C3823096   5.058   5.276   2.763 -0.1103  0.4411  0.6707
  190MOL   Cl3923097   5.063   5.158   2.622  0.3808  0.2759  0.2003
  190MOL   Cl4023098   5.034   5.438   2.699  0.1234  0.1173 -0.2912
  190MOL    C4123099   4.939   5.218   2.859 -0.2124  0.1981 -0.4750
  190MOL    H4223100   4.972   5.128   2.911 -2.4443 -0.5591 -0.2899
  190MOL    H4323101   4.925   5.290   2.940 -1.0050  0.4300 -0.8102
  190MOL    C4423102   4.795   5.185   2.807  0.1862 -0.3587 -0.1208
  190MOL   Cl4523103   4.684   5.142   2.945  0.3332  0.0483  0.2517
  190MOL   Cl4623104   4.807   5.030   2.706 -0.1628  0.2938  0.0234
  190MOL    C4723105   4.730   5.302   2.717  0.1957  0.8053  0.5739
  190MOL    H4823106   4.814   5.333   2.654 -0.2712 -2.2604 -1.6946
  190MOL    H4923107   4.665   5.262   2.639  2.0250  1.3573 -1.2783
  190MOL    C5023108   4.667   5.428   2.779  0.2232 -1.1180  0.1204
  190MOL   Cl5123109   4.739   5.468   2.935  0.0279  0.4995 -0.0075
  190MOL   Cl5223110   4.497   5.401   2.813  0.0821 -0.0649  0.1363
  190MOL    C5323111   4.691   5.556   2.688 -0.0224  0.2008 -0.7594
  190MOL    H5423112   4.657   5.645   2.742  1.5591  1.2348 -1.4175
  190MOL    H5523113   4.799   5.570   2.683 -0.0553  0.0308 -1.9005
  190MOL    C5623114   4.633   5.556   2.543 -0.3190  0.1366 -0.1906
  190MOL   Cl5723115   4.457   5.546   2.543 -0.4893  0.2761  0.2537
  190MOL   Cl5823116   4.705   5.421   2.441  0.5584 -0.0957  0.0384
  190MOL    C5923117   4.685   5.690   2.483 -0.2575  0.8249 -0.2746
  190MOL    H6023118   4.689   5.764   2.563 -0.5713 -1.1229  1.5946
  190MOL    H6123119   4.791   5.677   2.461  0.2684  1.3642  1.8331
  190MOL    C6223120   4.620   5.748   2.353  0.1460 -0.2940  0.3466
  190MOL   Cl6323121   4.475   5.844   2.382 -0.1482  0.2117 -0.1750
  190MOL   Cl6423122   4.594   5.623   2.229 -0.3066 -0.0720 -0.3503
  190MOL    C6523123   4.705   5.858   2.286 -0.5719  0.8073  0.9349
  190MOL    H6623124   4.784   5.800   2.237 -0.9061  0.6707  0.5552
  190MOL    H6723125   4.652   5.897   2.199 -3.8215 -2.6948  1.2355
  190MOL    C6823126   4.779   5.974   2.363  0.5169  0.7668 -0.6980
  190MOL   Cl6923127   4.862   6.081   2.241  0.0492  0.2037  0.0269
  190MOL   Cl7023128   4.910   5.917   2.473  0.0923 -0.3891 -0.0203
  190MOL    C7123129   4.687   6.064   2.454 -0.6509 -0.0905 -0.0262
  190MOL    H7223130   4.582   6.085   2.433 -0.6617  3.5214  3.0085
  190MOL    H7323131   4.668   6.012   2.548 -0.8056  0.1624  0.0861
  190MOL    C7423132   4.740   6.206   2.500  0.3265 -0.3871  0.0465
  190MOL   Cl7523133   4.632   6.238   2.646  0.0043  0.0559 -0.1378
  190MOL   Cl7623134   4.699   6.326   2.379 -0.0727 -0.2408  0.0893
  190MOL    C7723135   4.887   6.209   2.553  0.5019 -0.2054 -0.3128
  190MOL    H7823136   4.889   6.137   2.636  1.2968  1.0065  0.7324
  190MOL    H7923137   4.955   6.174   2.476 -0.6587 -1.2791 -0.8693
  190MOL    C8023138   4.962   6.340   2.598 -0.1392 -0.1356 -0.2527
  190MOL   Cl8123139   4.986   6.438   2.446  0.1873  0.0965  0.0241
  190MOL   Cl8223140   5.121   6.299   2.658 -0.2321 -0.0804 -0.1806
  190MOL    C8323141   4.880   6.426   2.697  0.4390  0.7068 -0.8978
  190MOL    H8423142   4.788   6.451   2.643 -0.9249 -0.8967  0.6386
  190MOL    H8523143   4.850   6.366   2.782 -0.7410  0.3083 -1.5861
  190MOL    C8623144   4.930   6.562   2.764 -0.2208 -0.5414 -0.0807
  190MOL   Cl8723145   5.059   6.548   2.888  0.1857  0.0050  0.0770
  190MOL   Cl8823146   4.783   6.611   2.850  0.2681  0.4436 -0.1773
  190MOL    C8923147   4.975   6.672   2.648  0.9037 -0.3069  0.3335
  190MOL    H9023148   5.064   6.636   2.596  1.5749  0.7522  0.7506
  190MOL    H9123149   4.892   6.679   2.577  1.7362  1.2169 -0.5019
  190MOL    C9223150   5.018   6.813   2.692  0.0021 -0.3995 -0.4759
  190MOL   Cl9323151   4.891   6.900   2.786 -0.1622 -0.3912  0.0065
  190MOL   Cl9423152   5.029   6.904   2.543 -0.0636  0.4985 -0.2066
  190MOL    C9523153   5.154   6.830   2.763 -0.1928 -0.4281  0.2434
  190MOL    H9623154   5.113   6.860   2.860 -1.2421 -2.7827  0.5829
  190MOL    H9723155   5.207   6.736   2.778  1.0170  0.1756 -0.1895
  190MOL    C9823156   5.260   6.937   2.736 -0.3869  0.1623  0.1616
  190MOL   Cl9923157   5.362   6.948   2.883 -0.2695 -0.0569 -0.4237
  190MOL  Cl10023158   5.197   7.097   2.733 -0.1580 -0.3140  0.3732
  190MOL   C10123159   5.346   6.914   2.607  0.5574 -0.4764 -0.9175
  190MOL   H10223160   5.285   6.902   2.518 -1.5909 -1.1605  0.6174
  190MOL   H10323161   5.398   7.008   2.587  1.3965 -0.4833  1.0965
  190MOL   C10423162   5.445   6.789   2.590 -0.4576  0.4777 -0.4138
  190MOL  Cl10523163   5.372   6.631   2.621 -0.1922  0.4044 -0.2344
  190MOL  Cl10623164   5.577   6.799   2.707 -0.1782  0.4007 -0.1636
  190MOL   C10723165   5.486   6.782   2.441 -0.4365  0.2834 -0.4923
  190MOL   H10823166   5.562   6.707   2.422 -1.0122 -0.1926 -0.9509
  190MOL   H10923167   5.398   6.747   2.387  0.6866 -0.6488 -1.7322
  190MOL   C11023168   5.554   6.903   2.360  0.9166 -0.6458 -0.4747
  190MOL  Cl11123169   5.649   7.004   2.472 -0.1975 -0.2257 -0.1849
  190MOL  Cl11223170   5.421   7.009   2.294  0.0652 -0.1970 -0.1189
  190MOL   C11323171   5.654   6.848   2.250 -0.9385  0.2002 -0.4297
  190MOL   H11423172   5.705   6.936   2.212  0.1715 -1.2085 -2.3007
  190MOL   H11523173   5.734   6.792   2.298 -1.4504  0.1226  0.3419
  190MOL   C11623174   5.602   6.760   2.135 -0.3763  0.2520  0.9319
  190MOL  Cl11723175   5.550   6.592   2.173 -0.0836  0.1813 -0.5813
  190MOL  Cl11823176   5.741   6.744   2.023  0.1464  0.1003 -0.3777
  190MOL   C11923177   5.494   6.830   2.060  0.2372  0.3992 -0.2514
  190MOL   H12023178   5.395   6.818   2.106 -1.5227  1.7630 -3.5114
  190MOL   H12123179   5.511   6.935   2.036  0.9207 -0.0802 -1.8722
  190MOL   H12223180   5.487   6.790   1.959  0.5000 -0.8705  0.2224
  191MOL     C123181   1.142   8.449   5.960 -0.2356 -0.3314  0.0711
  191MOL    Cl223182   1.164   8.589   6.061  0.2483  0.0004 -0.1507
  191MOL    Cl323183   1.081   8.497   5.797 -0.1958 -0.1655 -0.4026
  191MOL     C423184   1.280   8.371   5.961  0.4666  0.5762  0.3706
  191MOL     H523185   1.349   8.417   5.891 -0.0483 -0.8048 -1.0849
  191MOL     H623186   1.320   8.387   6.061  3.6752 -1.0377 -0.5860
  191MOL     H723187   1.071   8.385   6.012 -0.1148 -2.6461 -2.4851
  191MOL     C823188   1.270   8.211   5.964  0.5640 -0.0278  0.2195
  191MOL    Cl923189   1.175   8.158   5.824  0.1279  0.0880  0.1693
  191MOL   Cl1023190   1.176   8.171   6.113  0.2761 -0.3660 -0.0311
  191MOL    C1123191   1.405   8.146   5.967 -0.1965  0.7001 -0.5753
  191MOL    H1223192   1.437   8.167   5.865 -0.1962  1.0614 -0.5043
  191MOL    H1323193   1.481   8.200   6.025 -1.8954 -0.7769  3.1349
  191MOL    C1423194   1.426   7.994   5.999 -0.7175  0.2000  0.4481
  191MOL   Cl1523195   1.291   7.894   5.962 -0.0922  0.3920  0.2043
  191MOL   Cl1623196   1.438   7.988   6.175  0.4048 -0.1968  0.3597
  191MOL    C1723197   1.557   7.941   5.943  0.0105 -0.0104 -0.2303
  191MOL    H1823198   1.635   8.007   5.980  0.1086 -0.1130 -0.2548
  191MOL    H1923199   1.568   7.848   5.999 -0.9414  0.1736  0.2647
  191MOL    C2023200   1.595   7.917   5.790  0.1937 -0.2917  0.3090
  191MOL   Cl2123201   1.566   8.059   5.686 -0.1938 -0.1850  0.3476
  191MOL   Cl2223202   1.502   7.777   5.736  0.3399  0.4903  0.2142
  191MOL    C2323203   1.743   7.889   5.775  0.5776 -0.6222  0.1354
  191MOL    H2423204   1.802   7.960   5.832  2.4268  0.5764 -3.0983
  191MOL    H2523205   1.758   7.796   5.830 -2.1689 -1.3110 -0.2069
  191MOL    C2623206   1.819   7.870   5.644 -0.0220  0.1521 -0.3631
  191MOL   Cl2723207   1.729   7.764   5.535 -0.2337  0.0082  0.2630
  191MOL   Cl2823208   1.966   7.777   5.686 -0.0290  0.0563  0.2483
  191MOL    C2923209   1.858   7.998   5.555  0.1199  0.6124 -0.8757
  191MOL    H3023210   1.904   7.957   5.465  3.3737 -0.2394  1.0999
  191MOL    H3123211   1.765   8.039   5.515  0.0130  1.3704  0.1098
  191MOL    C3223212   1.946   8.114   5.611 -0.7977 -0.2001  0.4649
  191MOL   Cl3323213   1.861   8.200   5.751  0.7349 -0.3122  0.0379
  191MOL   Cl3423214   1.942   8.233   5.479  0.0952 -0.1644  0.3687
  191MOL    C3523215   2.093   8.076   5.653  0.2518 -0.4850  0.1145
  191MOL    H3623216   2.125   8.145   5.731  0.5987 -0.6211  0.0945
  191MOL    H3723217   2.096   7.986   5.714  1.2894 -0.7189 -0.2637
  191MOL    C3823218   2.213   8.073   5.555 -0.3451 -0.5854 -1.1363
  191MOL   Cl3923219   2.166   7.974   5.407  0.2193  0.2934  0.0469
  191MOL   Cl4023220   2.351   7.991   5.642 -0.0641  0.0045 -0.1955
  191MOL    C4123221   2.265   8.209   5.496  0.0902  0.5047 -0.6650
  191MOL    H4223222   2.351   8.182   5.434 -0.0820  0.1160 -0.7374
  191MOL    H4323223   2.191   8.236   5.420 -0.5221 -0.1912 -0.3184
  191MOL    C4423224   2.308   8.330   5.589  0.2398  1.0937 -1.1520
  191MOL   Cl4523225   2.158   8.391   5.677  0.2536  0.3554  0.3657
  191MOL   Cl4623226   2.363   8.448   5.466  0.2649 -0.0435 -0.1308
  191MOL    C4723227   2.421   8.292   5.682  0.2523 -0.6377 -0.2061
  191MOL    H4823228   2.365   8.237   5.757 -0.2630  0.5788  0.3113
  191MOL    H4923229   2.493   8.228   5.631 -1.0424  0.4230 -3.5337
  191MOL    C5023230   2.508   8.394   5.759 -0.0953 -0.0040 -0.4169
  191MOL   Cl5123231   2.634   8.449   5.646 -0.0199  0.3362  0.2367
  191MOL   Cl5223232   2.587   8.295   5.887  0.0474  0.1741 -0.3865
  191MOL    C5323233   2.441   8.526   5.814 -0.5434 -0.1602 -0.0865
  191MOL    H5423234   2.414   8.597   5.735 -0.9406  0.6833  0.7826
  191MOL    H5523235   2.342   8.498   5.851 -0.0413 -0.0139  1.3972
  191MOL    C5623236   2.509   8.613   5.925  0.3059  0.4704  0.0027
  191MOL   Cl5723237   2.677   8.635   5.880  0.1582  0.0627  0.1734
  191MOL   Cl5823238   2.500   8.529   6.083 -0.0076 -0.2052  0.0935
  191MOL    C5923239   2.445   8.761   5.932 -0.1572  0.0725  0.0484
  191MOL    H6023240   2.479   8.806   6.025  0.6657 -0.8676  0.2114
  191MOL    H6123241   2.490   8.816   5.849  1.8724 -4.0621 -1.7425
  191MOL    C6223242   2.293   8.780   5.934 -0.1575 -0.2273 -0.1834
  191MOL   Cl6323243   2.209   8.645   6.021  0.0292 -0.2199  0.4812
  191MOL   Cl6423244   2.237   8.769   5.765  0.2090 -0.2400 -0.0960
  191MOL    C6523245   2.243   8.913   6.005 -0.8618  0.2041 -0.9456
  191MOL    H6623246   2.135   8.925   6.000 -0.9173  0.5685  0.8355
  191MOL    H6723247   2.264   8.901   6.112 -0.6839  1.3634 -0.8383
  191MOL    C6823248   2.298   9.045   5.969 -0.6388 -0.2445  0.1743
  191MOL   Cl6923249   2.275   9.079   5.796 -0.0079 -0.3257 -0.3294
  191MOL   Cl7023250   2.474   9.059   5.989 -0.0400 -0.0227 -0.1504
  191MOL    C7123251   2.232   9.162   6.047 -0.6796  0.1616  0.2316
  191MOL    H7223252   2.279   9.171   6.144 -1.7108  1.2537  0.6330
  191MOL    H7323253   2.261   0.078   6.005  0.2493  0.6732  2.0115
  191MOL    C7423254   2.078   9.172   6.080  0.0011  0.3474 -0.2548
  191MOL   Cl7523255   1.983   9.165   5.930  0.1036  0.1393 -0.0241
  191MOL   Cl7623256   2.067   0.154   6.144  0.1812 -0.2546  0.0369
  191MOL    C7723257   2.022   9.087   6.205 -0.3054 -0.4793 -0.0686
  191MOL    H7823258   2.071   8.990   6.204  1.0196  0.1129  2.6614
  191MOL    H7923259   2.064   9.136   6.293 -0.1284  0.7565 -0.8263
  191MOL    C8023260   1.874   9.060   6.228  0.2951 -0.3194 -0.0871
  191MOL   Cl8123261   1.861   8.990   6.394 -0.1923 -0.3185 -0.1643
  191MOL   Cl8223262   1.818   8.947   6.107  0.1985 -0.6575 -0.3450
  191MOL    C8323263   1.785   0.009   6.221 -0.3470  0.4685 -0.7391
  191MOL    H8423264   1.811   0.073   6.306 -0.5963 -0.6700  0.2025
  191MOL    H8523265   1.812   0.068   6.134  1.7959 -1.0564 -1.1293
  191MOL    C8623266   1.626   0.019   6.237 -0.0449  0.2164 -0.1561
  191MOL   Cl8723267   1.596   0.193   6.228 -0.1445  0.1669  0.3323
  191MOL   Cl8823268   1.569   9.144   6.397 -0.2653 -0.2124  0.0539
  191MOL    C8923269   1.554   9.130   6.116 -0.3699 -0.4830 -0.2140
  191MOL    H9023270   1.616   9.143   6.027 -1.7100  0.2987 -1.0519
  191MOL    H9123271   1.554   9.023   6.140  1.4903 -0.7849 -1.5081
  191MOL    C9223272   1.414   9.167   6.067 -0.1853 -0.3367 -0.1001
  191MOL   Cl9323273   1.419   0.128   5.969 -0.1846 -0.0702  0.4326
  191MOL   Cl9423274   1.290   0.001   6.194 -0.1458  0.1487 -0.1867
  191MOL    C9523275   1.359   9.045   5.978 -0.6048 -0.8707 -0.6473
  191MOL    H9623276   1.440   9.026   5.907 -0.1837 -0.4883 -0.2775
  191MOL    H9723277   1.366   8.954   6.038  1.7485 -0.0169  0.4357
  191MOL    C9823278   1.228   9.040   5.895  0.0778 -0.6340 -0.1134
  191MOL   Cl9923279   1.238   8.879   5.821  0.1161  0.3221  0.5458
  191MOL  Cl10023280   1.231   9.160   5.758  0.2635  0.1312 -0.0546
  191MOL   C10123281   1.097   9.054   5.975  0.4299  0.1623  0.2852
  191MOL   H10223282   1.101   8.988   6.062 -3.2195 -0.0198  0.3910
  191MOL   H10323283   1.119   9.154   6.010 -0.7777  0.4259  0.3157
  191MOL   C10423284   0.953   9.027   5.918  0.2167  0.3270  0.3348
  191MOL  Cl10523285   0.924   8.854   5.907  0.1749  0.1572  0.4513
  191MOL  Cl10623286   0.935   9.091   5.748 -0.2452  0.5387 -0.0950
  191MOL   C10723287   0.840   9.071   6.015  0.3861 -0.5064  0.4075
  191MOL   H10823288   0.743   9.037   5.980 -1.7953  2.5071  3.1648
  191MOL   H10923289   0.842   9.011   6.106 -0.4775 -0.0319  0.7531
  191MOL   C11023290   0.828   0.041   6.062 -0.4147  0.0216 -0.0354
  191MOL  Cl11123291   0.958   0.076   6.170  0.3174 -0.3909 -0.0208
  191MOL  Cl11223292   0.673   0.052   6.149 -0.2080  0.2711  0.5232
  191MOL   C11323293   0.842   0.156   5.953  0.5637  0.5616  0.1578
  191MOL   H11423294   0.936   0.145   5.900 -0.2589  2.3598 -1.7064
  191MOL   H11523295   0.761   0.133   5.884  0.8764  1.6698 -0.5843
  191MOL   C11623296   0.824   0.305   5.988  0.1977 -0.3580 -0.1099
  191MOL  Cl11723297   0.774   0.369   5.828  0.2384 -0.3098  0.1042
  191MOL  Cl11823298   0.985   0.374   6.050  0.4816  0.7670 -0.4510
  191MOL   C11923299   0.708   0.344   6.076 -0.2747 -0.0362  0.4574
  191MOL   H12023300   0.619   0.291   6.043  1.2977 -0.7108 -2.8131
  191MOL   H12123301   0.725   0.337   6.184 -1.0413 -0.5040  0.5497
  191MOL   H12223302   0.685   0.451   6.075  0.1704  0.0525 -2.0090
  192MOL     C123303   2.603   7.368   4.425  0.5648  0.3273 -0.3196
  192MOL    Cl223304   2.617   7.540   4.376 -0.2612  0.0133  0.3693
  192MOL    Cl323305   2.760   7.299   4.373 -0.0121  0.0531  0.0808
  192MOL     C423306   2.581   7.373   4.576  0.1840 -0.5010 -0.0644
  192MOL     H523307   2.661   7.434   4.618 -0.1873 -0.1346  0.1030
  192MOL     H623308   2.492   7.432   4.594 -0.1972 -1.5463  1.4879
  192MOL     H723309   2.518   7.334   4.365 -0.7432 -0.9143  2.1751
  192MOL     C823310   2.544   7.246   4.655 -0.2101 -0.4363 -0.2071
  192MOL    Cl923311   2.421   7.154   4.570 -0.4278  0.4463 -0.3901
  192MOL   Cl1023312   2.483   7.294   4.819  0.0066 -0.5071  0.4797
  192MOL    C1123313   2.663   7.137   4.652  0.1550 -0.4251 -0.1359
  192MOL    H1223314   2.619   7.038   4.667 -2.2238  0.9510  2.3060
  192MOL    H1323315   2.716   7.134   4.556 -1.6962  0.0732 -1.1835
  192MOL    C1423316   2.781   7.158   4.750  0.0569  0.2153 -0.1875
  192MOL   Cl1523317   2.724   7.111   4.910 -0.0418  0.4060 -0.0882
  192MOL   Cl1623318   2.836   7.330   4.754 -0.1980  0.1922  0.3889
  192MOL    C1723319   2.905   7.077   4.708 -0.0648  0.9421  0.1384
  192MOL    H1823320   2.941   7.109   4.609 -0.7019 -5.1131 -2.2603
  192MOL    H1923321   2.985   7.106   4.775  0.0298 -0.5053  0.6685
  192MOL    C2023322   2.900   6.922   4.696  0.1699  0.0472 -1.1274
  192MOL   Cl2123323   3.055   6.868   4.632 -0.3303  0.3316  0.3655
  192MOL   Cl2223324   2.790   6.858   4.575 -0.3795  0.1191  0.1553
  192MOL    C2323325   2.885   6.844   4.835 -0.4698 -0.2687  0.3652
  192MOL    H2423326   2.977   6.868   4.890 -0.8003  0.1577  0.7351
  192MOL    H2523327   2.799   6.885   4.887 -0.6587  3.2209 -2.5708
  192MOL    C2623328   2.872   6.688   4.856  0.5045 -0.0670  0.0969
  192MOL   Cl2723329   2.994   6.586   4.776 -0.1501  0.0916 -0.2550
  192MOL   Cl2823330   2.709   6.638   4.792 -0.0601  0.0997 -0.0806
  192MOL    C2923331   2.894   6.646   5.003  0.1091  0.5797  0.4960
  192MOL    H3023332   2.883   6.538   5.004  2.3136  0.2346 -3.3631
  192MOL    H3123333   2.997   6.668   5.030  2.0455 -4.6211 -2.0547
  192MOL    C3223334   2.813   6.693   5.122  0.9875  0.0626 -0.1434
  192MOL   Cl3323335   2.632   6.690   5.085  0.0673  0.0265  0.0642
  192MOL   Cl3423336   2.863   6.859   5.162 -0.0017  0.4225 -0.0974
  192MOL    C3523337   2.830   6.599   5.242 -0.6180 -0.1506 -0.1147
  192MOL    H3623338   2.783   6.507   5.208 -1.5265  0.4607 -0.5467
  192MOL    H3723339   2.935   6.572   5.255  0.9575  4.7424 -1.4735
  192MOL    C3823340   2.777   6.619   5.385  0.3935 -0.8617 -0.6518
  192MOL   Cl3923341   2.883   6.741   5.463  0.1401  0.0526 -0.1070
  192MOL   Cl4023342   2.797   6.466   5.473  0.4753 -0.4624 -0.1274
  192MOL    C4123343   2.634   6.680   5.399 -0.2287  0.5295  0.2630
  192MOL    H4223344   2.656   6.778   5.356 -0.7236  1.5696  2.3040
  192MOL    H4323345   2.565   6.633   5.329 -0.8184 -1.2369  1.9986
  192MOL    C4423346   2.554   6.697   5.541  0.0590  0.1580  0.4086
  192MOL   Cl4523347   2.655   6.757   5.674  0.6556  0.1963  0.3936
  192MOL   Cl4623348   2.497   6.539   5.598 -0.0045 -0.2987  0.1758
  192MOL    C4723349   2.431   6.787   5.535  0.4761  0.4825 -0.2611
  192MOL    H4823350   2.343   6.726   5.517  1.4022 -0.6173 -1.1631
  192MOL    H4923351   2.413   6.818   5.638  0.2850 -0.7272  0.0837
  192MOL    C5023352   2.438   6.916   5.443  0.1918 -0.5304  0.4998
  192MOL   Cl5123353   2.429   6.863   5.278  0.0842  0.2245  0.0838
  192MOL   Cl5223354   2.592   7.004   5.473 -0.3555  0.1846  0.1183
  192MOL    C5323355   2.322   7.022   5.465 -0.4554 -0.5708 -0.0374
  192MOL    H5423356   2.365   7.120   5.444  1.1664 -1.2060  0.2899
  192MOL    H5523357   2.252   7.005   5.383  1.3797 -0.4929 -1.6686
  192MOL    C5623358   2.244   7.055   5.594  0.4225 -0.3630  0.2227
  192MOL   Cl5723359   2.363   7.095   5.724  0.1330 -0.2395  0.1291
  192MOL   Cl5823360   2.143   6.918   5.621 -0.0897  0.2868 -0.1069
  192MOL    C5923361   2.161   7.184   5.571 -0.1865  0.6690  0.2926
  192MOL    H6023362   2.226   7.271   5.572 -0.3770  0.7978  1.2200
  192MOL    H6123363   2.130   7.179   5.466 -0.3276 -0.3021  0.3761
  192MOL    C6223364   2.031   7.222   5.655 -0.6110 -0.5609 -0.0928
  192MOL   Cl6323365   1.893   7.115   5.607  0.0916  0.3439  0.2926
  192MOL   Cl6423366   1.991   7.382   5.590 -0.3877 -0.0119  0.5218
  192MOL    C6523367   2.054   7.215   5.809 -0.3243  0.4579  1.0820
  192MOL    H6623368   2.067   7.108   5.823 -1.8216 -0.0492 -1.1552
  192MOL    H6723369   2.154   7.249   5.837  0.5796 -0.2958 -1.1146
  192MOL    C6823370   1.947   7.273   5.901 -0.0105  0.0909  0.0005
  192MOL   Cl6923371   1.986   7.435   5.930  0.2857 -0.0992  0.4385
  192MOL   Cl7023372   1.966   7.180   6.060 -0.1355 -0.0504  0.5817
  192MOL    C7123373   1.799   7.261   5.859 -0.7451  0.4947 -0.0055
  192MOL    H7223374   1.780   7.292   5.756  0.1654  1.1473  0.0085
  192MOL    H7323375   1.781   7.154   5.852  0.7278  0.0954  1.8286
  192MOL    C7423376   1.674   7.336   5.928  0.1718 -0.2511 -0.3058
  192MOL   Cl7523377   1.682   7.495   5.845 -0.2738 -0.3971 -0.3846
  192MOL   Cl7623378   1.690   7.341   6.101 -0.1044 -0.6112  0.1727
  192MOL    C7723379   1.544   7.268   5.881 -0.2380 -0.1752 -0.2651
  192MOL    H7823380   1.552   7.233   5.778 -3.1804 -1.4701 -0.1079
  192MOL    H7923381   1.546   7.184   5.950 -1.1072 -0.3279 -0.4144
  192MOL    C8023382   1.405   7.335   5.885 -1.0528  0.3337 -0.4811
  192MOL   Cl8123383   1.282   7.205   5.850  0.2003  0.2209  0.5339
  192MOL   Cl8223384   1.388   7.463   5.757 -0.2756 -0.0214  0.0515
  192MOL    C8323385   1.374   7.390   6.028 -0.5102  0.2994  0.2277
  192MOL    H8423386   1.408   7.318   6.102 -0.2502 -0.3436 -0.4979
  192MOL    H8523387   1.448   7.467   6.050  0.4623  0.0063 -1.8581
  192MOL    C8623388   1.240   7.442   6.067 -0.4835  0.2530 -0.4001
  192MOL   Cl8723389   1.271   7.538   6.209 -0.0713 -0.1434  0.3494
  192MOL   Cl8823390   1.158   7.306   6.122  0.2145  0.4025  0.1066
  192MOL    C8923391   1.151   7.517   5.965  0.5633  0.0151 -0.1375
  192MOL    H9023392   1.199   7.606   5.923  0.3086  0.6485  0.8810
  192MOL    H9123393   1.133   7.453   5.878 -0.4425 -0.7792  0.6484
  192MOL    C9223394   1.003   7.560   5.995  0.8650  0.0463  0.5398
  192MOL   Cl9323395   0.897   7.419   5.988 -0.2040 -0.2200  0.0707
  192MOL   Cl9423396   0.962   7.652   5.856 -0.0773  0.2945  0.1234
  192MOL    C9523397   0.986   7.636   6.126 -0.0793  0.3505 -0.5743
  192MOL    H9623398   1.003   7.560   6.203  0.4765  0.8659 -0.1794
  192MOL    H9723399   1.059   7.715   6.148  2.6944 -1.6172 -2.3236
  192MOL    C9823400   0.851   7.714   6.160 -0.4511  0.9322  0.3068
  192MOL   Cl9923401   0.848   7.874   6.079 -0.4126  0.7073 -0.1988
  192MOL  Cl10023402   0.877   7.758   6.324  0.0486  0.3989  0.4215
  192MOL   C10123403   0.718   7.633   6.135 -0.7484  0.0603  0.4280
  192MOL   H10223404   0.711   7.621   6.026  2.0914 -3.1043  0.4899
  192MOL   H10323405   0.749   7.533   6.167 -0.5358 -0.3048 -0.8724
  192MOL   C10423406   0.579   7.670   6.198 -0.3745  0.2309  1.1004
  192MOL  Cl10523407   0.547   7.845   6.188  0.0320 -0.5066  0.1574
  192MOL  Cl10623408   0.574   7.629   6.374 -0.2872 -0.0234  0.1004
  192MOL   C10723409   0.452   7.592   6.141 -0.6279 -0.6483  0.4490
  192MOL   H10823410   0.475   7.490   6.175 -1.1667 -0.6106  0.9406
  192MOL   H10923411   0.365   7.612   6.204 -0.3436 -1.9507  1.2901
  192MOL   C11023412   0.417   7.587   5.990 -0.0513  0.0559 -0.3597
  192MOL  Cl11123413   0.542   7.505   5.889 -0.1638 -0.1591  0.1851
  192MOL  Cl11223414   0.396   7.748   5.922 -0.4038 -0.2886  0.1051
  192MOL   C11323415   0.277   7.523   5.963 -0.1405 -0.1389  0.4409
  192MOL   H11423416   0.215   7.604   6.001  1.3075  0.3025  1.9476
  192MOL   H11523417   0.264   7.522   5.855 -0.8735  0.3257  0.5231
  192MOL   C11623418   0.236   7.386   6.029 -0.1106  0.7084 -0.0377
  192MOL  Cl11723419   0.184   7.425   6.193 -0.2689  0.2597  0.1763
  192MOL  Cl11823420   0.378   7.268   6.037  0.0179  0.2310  0.1394
  192MOL   C11923421   0.110   7.315   5.962  0.6473  0.0900  0.5538
  192MOL   H12023422   0.111   7.215   6.004 -1.8113 -0.4566 -0.5985
  192MOL   H12123423   0.018   7.364   5.994  0.5672  0.6786 -0.5337
  192MOL   H12223424   0.119   7.311   5.853  2.9838  4.2808  0.4865
  193MOL     C123425   7.543   7.301   3.930 -0.0090  0.1546 -0.6057
  193MOL    Cl223426   7.410   7.384   4.004 -0.3753  0.1738 -0.1791
  193MOL    Cl323427   7.686   7.404   3.936  0.1180 -0.1763 -0.4373
  193MOL     C423428   7.570   7.158   3.989 -0.0178  0.3910  0.4946
  193MOL     H523429   7.678   7.155   4.000  0.5079  0.2440 -3.7313
  193MOL     H623430   7.527   7.156   4.089 -0.1251 -0.2175  0.4362
  193MOL     H723431   7.523   7.287   3.823 -0.0442 -2.0629 -0.3241
  193MOL     C823432   7.511   7.031   3.910 -0.1845  0.0615  0.2372
  193MOL    Cl923433   7.579   7.037   3.745  0.4178 -0.4497  0.0962
  193MOL   Cl1023434   7.338   7.030   3.889 -0.1973 -0.1951 -0.0654
  193MOL    C1123435   7.559   6.896   3.967  0.0501 -0.2274  0.4323
  193MOL    H1223436   7.515   6.822   3.900 -1.0080  0.8235 -0.0375
  193MOL    H1323437   7.668   6.895   3.957  0.0865 -0.5782  0.8714
  193MOL    C1423438   7.540   6.849   4.116 -0.5935 -0.0332  0.1043
  193MOL   Cl1523439   7.653   6.953   4.210  0.1514  0.4922 -0.3629
  193MOL   Cl1623440   7.596   6.684   4.140  0.0206  0.2390  0.5298
  193MOL    C1723441   7.388   6.874   4.159 -0.2048  0.5096  0.7834
  193MOL    H1823442   7.374   6.982   4.159 -0.3290  0.4899  0.3161
  193MOL    H1923443   7.323   6.829   4.084 -0.2358  2.2575 -0.2488
  193MOL    C2023444   7.337   6.826   4.297 -0.7113  0.1742 -0.4181
  193MOL   Cl2123445   7.447   6.881   4.433  0.2292  0.4941  0.4980
  193MOL   Cl2223446   7.321   6.646   4.296 -0.2720  0.0349  0.6604
  193MOL    C2323447   7.202   6.899   4.347 -0.0992  0.8844  0.3828
  193MOL    H2423448   7.119   6.840   4.308  1.4309 -0.6677 -0.6131
  193MOL    H2523449   7.209   6.889   4.456 -2.3118 -1.1309  0.3822
  193MOL    C2623450   7.173   7.048   4.318  0.5969 -0.3151 -0.2061
  193MOL   Cl2723451   7.130   7.079   4.145  0.0143  0.2033 -0.4362
  193MOL   Cl2823452   7.316   7.149   4.359 -0.0497  0.1030  0.0523
  193MOL    C2923453   7.061   7.111   4.412 -0.7812  0.3488  0.3704
  193MOL    H3023454   7.104   7.124   4.511  0.8798  0.1330 -0.3156
  193MOL    H3123455   7.056   7.215   4.380 -0.9154  0.4218  0.6309
  193MOL    C3223456   6.923   7.054   4.430 -0.3604 -0.3309 -0.3520
  193MOL   Cl3323457   6.940   6.886   4.491 -0.2051 -0.5494  0.2359
  193MOL   Cl3423458   6.846   7.048   4.270 -0.0689 -0.0507 -0.2481
  193MOL    C3523459   6.844   7.130   4.540  0.2170  0.5665  0.4268
  193MOL    H3623460   6.881   7.117   4.641  0.7317 -1.2479  0.0249
  193MOL    H3723461   6.862   7.235   4.516 -1.3533  1.0097  1.1555
  193MOL    C3823462   6.694   7.114   4.553 -0.5385 -0.4974 -1.0888
  193MOL   Cl3923463   6.607   7.196   4.426  0.3716 -0.0017  0.3736
  193MOL   Cl4023464   6.658   7.197   4.707  0.1914  0.0668  0.2218
  193MOL    C4123465   6.653   6.962   4.569  0.2622  0.0953  0.1159
  193MOL    H4223466   6.681   6.914   4.476  0.9271  0.2067  0.2547
  193MOL    H4323467   6.719   6.930   4.650  1.6589  1.1051 -0.6026
  193MOL    C4423468   6.511   6.912   4.616  0.0593  0.2819  0.4870
  193MOL   Cl4523469   6.488   6.925   4.788  0.0577 -0.1337  0.1448
  193MOL   Cl4623470   6.514   6.743   4.581 -0.0133  0.2688  0.1348
  193MOL    C4723471   6.391   6.981   4.539  0.3383  0.0944 -0.2671
  193MOL    H4823472   6.410   7.082   4.574  0.7497 -0.2866  0.6143
  193MOL    H4923473   6.401   6.984   4.430 -0.7514  1.4609 -0.3484
  193MOL    C5023474   6.238   6.953   4.565 -0.4284 -0.2982 -0.1928
  193MOL   Cl5123475   6.180   7.023   4.717 -0.3265  0.2557  0.0503
  193MOL   Cl5223476   6.207   6.772   4.563  0.0751  0.4610 -0.3483
  193MOL    C5323477   6.152   7.011   4.441  0.7922  0.5002  0.5637
  193MOL    H5423478   6.204   6.966   4.356 -1.7620  0.9370 -1.3011
  193MOL    H5523479   6.054   6.964   4.450 -0.7405  3.2668 -0.7725
  193MOL    C5623480   6.134   7.169   4.420  0.0089 -0.3144 -0.0622
  193MOL   Cl5723481   6.281   7.268   4.448 -0.2578  0.2516  0.2324
  193MOL   Cl5823482   6.010   7.230   4.535  0.1187 -0.1753 -0.5396
  193MOL    C5923483   6.081   7.206   4.276  0.1045  0.2048 -0.3515
  193MOL    H6023484   5.975   7.181   4.279  0.1992 -0.0255  1.3734
  193MOL    H6123485   6.070   7.314   4.266 -0.7607  0.4503  2.7868
  193MOL    C6223486   6.136   7.141   4.151  0.4164  0.5689  0.5462
  193MOL   Cl6323487   6.313   7.115   4.158 -0.0526  0.0387  0.0255
  193MOL   Cl6423488   6.102   7.249   4.009 -0.4393 -0.0051  0.0038
  193MOL    C6523489   6.075   7.003   4.109  0.0532 -0.4951 -0.4597
  193MOL    H6623490   6.097   6.996   4.003 -0.9251  0.3021 -0.7324
  193MOL    H6723491   6.118   6.918   4.162 -1.4817 -1.1060 -0.1578
  193MOL    C6823492   5.920   6.973   4.113 -0.1786 -0.0695 -0.5088
  193MOL   Cl6923493   5.832   7.116   4.060 -0.0811 -0.3559 -0.0175
  193MOL   Cl7023494   5.860   6.945   4.282  0.4215 -0.1243  0.0008
  193MOL    C7123495   5.877   6.865   4.018 -0.6222 -0.0230 -0.1170
  193MOL    H7223496   5.768   6.868   4.020 -0.6508 -1.2695  1.4199
  193MOL    H7323497   5.899   6.900   3.918  0.7155  1.7445  0.7665
  193MOL    C7423498   5.926   6.718   4.038 -0.0692 -0.5109 -0.8441
  193MOL   Cl7523499   5.978   6.676   4.201  0.1938  0.0692 -0.2641
  193MOL   Cl7623500   6.060   6.690   3.928  0.0800 -0.0350  0.2123
  193MOL    C7723501   5.812   6.625   3.992  0.2362 -0.3536  0.6589
  193MOL    H7823502   5.786   6.661   3.893  1.1827  0.6743  0.7752
  193MOL    H7923503   5.852   6.526   3.971 -0.2834 -0.0137 -2.0457
  193MOL    C8023504   5.682   6.594   4.077  0.3120 -0.2777 -0.8598
  193MOL   Cl8123505   5.585   6.741   4.142 -0.5795  0.0309 -0.0749
  193MOL   Cl8223506   5.728   6.484   4.210  0.3129  0.4828  0.0968
  193MOL    C8323507   5.591   6.500   3.989  0.5068 -0.0135  0.3662
  193MOL    H8423508   5.557   6.571   3.913  0.5352  1.2950  1.5548
  193MOL    H8523509   5.650   6.428   3.932 -1.3677 -0.5143 -1.0181
  193MOL    C8623510   5.461   6.424   4.040  0.1223  0.5816  0.5674
  193MOL   Cl8723511   5.518   6.258   4.068 -0.4310  0.0715 -0.1559
  193MOL   Cl8823512   5.362   6.411   3.893 -0.3321 -0.3068 -0.1235
  193MOL    C8923513   5.383   6.487   4.150  0.0924  0.5334  0.6835
  193MOL    H9023514   5.454   6.511   4.228  2.0242  1.1264 -1.2163
  193MOL    H9123515   5.347   6.575   4.095  0.7838  0.2590 -0.2173
  193MOL    C9223516   5.256   6.421   4.213  0.5925 -0.3856 -0.1199
  193MOL   Cl9323517   5.318   6.271   4.294  0.3082  0.0646  0.2408
  193MOL   Cl9423518   5.128   6.378   4.099 -0.0460 -0.3328  0.0115
  193MOL    C9523519   5.202   6.514   4.325 -0.1247  0.3585 -0.1237
  193MOL    H9623520   5.140   6.450   4.388 -1.4215 -0.7007 -2.4319
  193MOL    H9723521   5.292   6.537   4.382  0.1990  0.6669 -0.7521
  193MOL    C9823522   5.129   6.653   4.300 -0.0974 -0.0725 -1.0221
  193MOL   Cl9923523   5.237   6.769   4.212 -0.0639  0.3642 -0.0765
  193MOL  Cl10023524   5.115   6.714   4.466  0.1191 -0.2071  0.0641
  193MOL   C10123525   4.994   6.653   4.226 -0.1143 -0.3511 -0.9815
  193MOL   H10223526   5.025   6.640   4.122  0.7175  1.4257 -0.9621
  193MOL   H10323527   4.942   6.557   4.230  0.4757 -0.6505 -0.3912
  193MOL   C10423528   4.886   6.765   4.229  0.6296  0.5067 -0.6096
  193MOL  Cl10523529   4.785   6.735   4.377  0.1150 -0.0760  0.0962
  193MOL  Cl10623530   4.784   6.745   4.080 -0.1557 -0.0838  0.2065
  193MOL   C10723531   4.933   6.916   4.229  0.5432  0.6114  0.3990
  193MOL   H10823532   4.975   6.931   4.329 -0.4703  0.9737  0.7747
  193MOL   H10923533   5.014   6.932   4.158  0.2516 -0.3067 -0.1439
  193MOL   C11023534   4.841   7.039   4.216  0.2198 -0.7491 -0.3271
  193MOL  Cl11123535   4.714   7.025   4.332  0.0233 -0.2451  0.0619
  193MOL  Cl11223536   4.765   7.057   4.048  0.0270  0.4096  0.0136
  193MOL   C11323537   4.895   7.183   4.248 -0.0373 -0.5607  0.2556
  193MOL   H11423538   4.803   7.240   4.239 -0.0545 -0.7943 -1.2190
  193MOL   H11523539   4.921   7.177   4.354  0.8240 -0.0452  0.0795
  193MOL   C11623540   5.012   7.250   4.162  0.6481 -0.1164  0.4799
  193MOL  Cl11723541   5.163   7.155   4.185  0.0598  0.0304  0.0011
  193MOL  Cl11823542   5.032   7.418   4.227 -0.2615  0.2802 -0.2758
  193MOL   C11923543   4.990   7.271   4.004  0.4409  0.3900  0.2276
  193MOL   H12023544   5.063   7.335   3.955  0.4346  0.2981  0.0994
  193MOL   H12123545   4.991   7.183   3.939  2.3232  0.2651  0.3949
  193MOL   H12223546   4.888   7.303   3.983  0.4637 -0.6913 -1.6665
  194MOL     C123547   7.412   6.594   6.491 -0.1901 -0.2921 -0.1105
  194MOL    Cl223548   7.561   6.667   6.537 -0.1626 -0.1072 -0.3061
  194MOL    Cl323549   7.404   6.596   6.310  0.1438 -0.2895 -0.0052
  194MOL     C423550   7.412   6.442   6.518 -0.4169  0.2565 -0.5817
  194MOL     H523551   7.323   6.398   6.474 -1.5995  1.2260  0.7747
  194MOL     H623552   7.500   6.395   6.475  0.7412  1.0664  0.8481
  194MOL     H723553   7.317   6.626   6.532 -2.4174 -4.5055 -1.6548
  194MOL     C823554   7.387   6.405   6.664  0.1249  0.1684  0.1420
  194MOL    Cl923555   7.255   6.505   6.737  0.0244  0.3751  0.2109
  194MOL   Cl1023556   7.532   6.436   6.762 -0.0448 -0.0016  0.0448
  194MOL    C1123557   7.352   6.256   6.682  0.2183  0.1835  1.0543
  194MOL    H1223558   7.319   6.248   6.786 -0.6677 -0.0517  0.7603
  194MOL    H1323559   7.252   6.246   6.639  0.8844  0.7985 -0.6633
  194MOL    C1423560   7.449   6.144   6.629 -0.7706 -0.6701 -0.2956
  194MOL   Cl1523561   7.628   6.171   6.647  0.3298  0.0181 -0.3597
  194MOL   Cl1623562   7.407   6.131   6.460  0.0431  0.2664  0.2962
  194MOL    C1723563   7.399   6.004   6.692 -0.1150  0.2285 -0.2363
  194MOL    H1823564   7.308   5.986   6.635 -0.7477  1.2968  0.4154
  194MOL    H1923565   7.473   5.929   6.665 -0.6514 -0.4799  0.2501
  194MOL    C2023566   7.377   5.973   6.842 -0.9569  0.6455 -0.1159
  194MOL   Cl2123567   7.344   5.797   6.849 -0.1977  0.3984 -0.3487
  194MOL   Cl2223568   7.219   6.043   6.887  0.2200 -0.2209  0.1893
  194MOL    C2323569   7.495   6.024   6.937 -0.0211 -0.3382  0.1917
  194MOL    H2423570   7.587   6.002   6.883  0.2404 -1.8823  1.2360
  194MOL    H2523571   7.485   6.132   6.934 -1.8211 -0.4012  2.9127
  194MOL    C2623572   7.495   5.983   7.091 -0.5009  0.5418  0.0258
  194MOL   Cl2723573   7.626   6.071   7.166  0.1396  0.4464 -0.2402
  194MOL   Cl2823574   7.531   5.809   7.107  0.3326  0.3402 -0.3775
  194MOL    C2923575   7.366   6.015   7.173 -0.3745  0.6553  0.4067
  194MOL    H3023576   7.320   6.109   7.145 -2.2199 -0.6646 -1.1516
  194MOL    H3123577   7.298   5.940   7.132  2.4296 -1.2914 -0.8120
  194MOL    C3223578   7.359   6.011   7.327 -0.5738 -0.3402  0.7084
  194MOL   Cl3323579   7.182   6.037   7.350 -0.0792  0.3371  0.3049
  194MOL   Cl3423580   7.434   6.162   7.402  0.0371 -0.3798 -0.0995
  194MOL    C3523581   7.383   5.871   7.391  0.7022  0.7495 -0.4906
  194MOL    H3623582   7.287   5.834   7.427  0.2406  1.0099 -1.4229
  194MOL    H3723583   7.407   5.800   7.312 -0.3203 -0.6062  0.4042
  194MOL    C3823584   7.490   5.858   7.505 -0.3216  0.2731 -0.2200
  194MOL   Cl3923585   7.461   5.959   7.653 -0.1784 -0.5537  0.2104
  194MOL   Cl4023586   7.650   5.908   7.435  0.1432 -0.1639 -0.0091
  194MOL    C4123587   7.504   5.718   7.563 -0.5424  0.1115 -0.2558
  194MOL    H4223588   7.566   5.658   7.496 -0.6110  0.5339 -0.6983
  194MOL    H4323589   7.558   5.724   7.658  1.3253  0.6399 -1.3305
  194MOL    C4423590   7.374   5.640   7.602  0.1281  0.6653 -0.3600
  194MOL   Cl4523591   7.329   5.566   7.446 -0.0227 -0.1887 -0.0758
  194MOL   Cl4623592   7.225   5.735   7.643  0.2544  0.0323 -0.0861
  194MOL    C4723593   7.385   5.523   7.695 -0.3648  0.4249  0.7533
  194MOL    H4823594   7.288   5.475   7.699 -0.0262 -0.3033  0.2600
  194MOL    H4923595   7.440   5.440   7.651  0.6851  0.2531  2.3452
  194MOL    C5023596   7.444   5.534   7.836  0.7176 -0.5176 -0.4640
  194MOL   Cl5123597   7.623   5.549   7.821 -0.4617  0.6889  0.1310
  194MOL   Cl5223598   7.412   5.372   7.904 -0.0937  0.4546 -0.3139
  194MOL    C5323599   7.366   5.624   7.941 -0.1154  0.3766 -0.6049
  194MOL    H5423600   7.318   5.706   7.887 -1.0471 -0.1228 -0.5383
  194MOL    H5523601   7.279   5.566   7.971 -0.4260  0.9376 -0.4090
  194MOL    C5623602   7.448   5.689   8.063  0.2920 -0.3410 -0.1056
  194MOL   Cl5723603   7.537   5.826   7.997  0.0388  0.0828  0.0351
  194MOL   Cl5823604   7.569   5.580   8.140  0.0068 -0.2083  0.2589
  194MOL    C5923605   7.361   5.753   8.178 -0.4438  0.3487  0.5824
  194MOL    H6023606   7.436   5.798   8.243  1.7539 -1.3072 -0.6981
  194MOL    H6123607   7.312   5.844   8.144 -1.4103 -0.4933 -0.3254
  194MOL    C6223608   7.247   5.671   8.249 -0.2372  0.3034  0.3079
  194MOL   Cl6323609   7.110   5.674   8.136  0.1909  0.3829 -0.2572
  194MOL   Cl6423610   7.213   5.759   8.402  0.2488  0.2774 -0.1963
  194MOL    C6523611   7.287   5.521   8.271  0.2709  0.9468 -0.1090
  194MOL    H6623612   7.328   5.474   8.181 -1.2703 -3.1288  1.1776
  194MOL    H6723613   7.366   5.520   8.345  0.8303  1.8437 -0.6961
  194MOL    C6823614   7.183   5.414   8.329 -0.3463  0.3225  0.0403
  194MOL   Cl6923615   7.070   5.364   8.206  0.1625 -0.2057  0.0401
  194MOL   Cl7023616   7.087   5.475   8.466  0.1089  0.0755 -0.5003
  194MOL    C7123617   7.256   5.283   8.383  0.9011  0.1636  0.2295
  194MOL    H7223618   7.313   5.324   8.466  1.0114  2.0058 -0.7300
  194MOL    H7323619   7.180   5.215   8.423 -1.1452  1.0372 -1.9916
  194MOL    C7423620   7.356   5.204   8.309  0.2889  0.1647  0.1714
  194MOL   Cl7523621   7.409   5.067   8.409  0.1034  0.0875  0.2273
  194MOL   Cl7623622   7.509   5.294   8.283 -0.2778  0.2438  0.3571
  194MOL    C7723623   7.323   5.155   8.166 -0.2785  0.3158  0.4845
  194MOL    H7823624   7.294   5.247   8.116  2.7420  0.9916 -0.0783
  194MOL    H7923625   7.413   5.145   8.105 -2.3522  2.5803 -3.1337
  194MOL    C8023626   7.227   5.033   8.146  0.0128 -0.8750 -0.4033
  194MOL   Cl8123627   7.124   5.068   8.004 -0.0042  0.2564 -0.3779
  194MOL   Cl8223628   7.111   5.021   8.277  0.0521  0.1127 -0.1545
  194MOL    C8323629   7.293   4.889   8.130  0.5687 -0.0292  0.3459
  194MOL    H8423630   7.337   4.877   8.229  0.7601  1.4433  0.4539
  194MOL    H8523631   7.215   4.813   8.123 -0.3238  0.9005  0.0501
  194MOL    C8623632   7.410   4.860   8.031  0.2964  1.6165  0.2413
  194MOL   Cl8723633   7.560   4.922   8.100 -0.2535  0.0065  0.0848
  194MOL   Cl8823634   7.383   4.942   7.876  0.6008  0.3465  0.0553
  194MOL    C8923635   7.409   4.706   8.004  0.3156  0.6396  0.5400
  194MOL    H9023636   7.379   4.661   8.099  0.5818  0.1541  0.3931
  194MOL    H9123637   7.339   4.670   7.929  0.6177 -0.7227  0.8905
  194MOL    C9223638   7.533   4.624   7.963  0.0570  0.1627  0.5672
  194MOL   Cl9323639   7.465   4.459   7.948  0.0381 -0.5343  0.0766
  194MOL   Cl9423640   7.655   4.618   8.096 -0.1109  0.2646  0.2666
  194MOL    C9523641   7.586   4.692   7.827 -0.9271  0.1540 -0.2387
  194MOL    H9623642   7.508   4.690   7.751 -2.4904  2.9106  1.2137
  194MOL    H9723643   7.600   4.798   7.850  0.7085  0.1169 -1.0507
  194MOL    C9823644   7.717   4.659   7.753 -0.8973 -0.1109 -0.1360
  194MOL   Cl9923645   7.861   4.710   7.851  0.1052 -0.3187  0.0924
  194MOL  Cl10023646   7.718   4.758   7.608 -0.0395  0.3713 -0.3440
  194MOL   C10123647   7.720   4.511   7.715  0.4968  0.2917 -0.3319
  194MOL   H10223648   7.726   4.452   7.807 -0.3074  0.0232 -0.4510
  194MOL   H10323649   7.622   4.483   7.679  0.0391 -0.2285  1.2475
  194MOL   C10423650   7.820   4.465   7.603  0.6426  0.7979 -0.6676
  194MOL  Cl10523651   7.753   4.518   7.443 -0.1243  0.2416  0.1134
  194MOL  Cl10623652   7.795   4.291   7.591  0.0218 -0.1736 -0.4435
  194MOL   C10723653   7.973   4.498   7.643  0.8467  0.0080 -0.6077
  194MOL   H10823654   7.981   4.600   7.682 -0.8055  0.7174 -2.0829
  194MOL   H10923655   7.994   4.426   7.723  1.5709 -0.0497 -0.8443
  194MOL   C11023656   8.097   4.482   7.551 -0.6429  0.4812  0.1795
  194MOL  Cl11123657   8.242   4.527   7.644 -0.0208  0.0925 -0.0208
  194MOL  Cl11223658   8.084   4.604   7.416  0.2572  0.0702 -0.1478
  194MOL   C11323659   8.111   4.334   7.498  0.1587  0.3885  0.1958
  194MOL   H11423660   8.138   4.273   7.584  1.6540 -0.4556 -0.8433
  194MOL   H11523661   8.009   4.305   7.474  0.7428 -1.1757 -0.4299
  194MOL   C11623662   8.204   4.296   7.382 -0.2534  0.0579 -0.3162
  194MOL  Cl11723663   8.115   4.331   7.229 -0.2902 -0.0464 -0.0939
  194MOL  Cl11823664   8.237   4.126   7.393  0.2658  0.1064 -0.0032
  194MOL   C11923665   8.339   4.361   7.384 -0.3306  0.0803 -0.3814
  194MOL   H12023666   8.402   4.326   7.303 -3.2535  3.5721 -4.4403
  194MOL   H12123667   8.330   4.469   7.378  0.8543  0.1571 -0.7598
  194MOL   H12223668   8.391   4.336   7.476 -0.5290  0.0312 -0.2820
  195MOL     C123669   6.922   3.041   7.504  0.0424 -0.0568  0.1083
  195MOL    Cl223670   6.859   2.889   7.429 -0.0350  0.1971  0.5795
  195MOL    Cl323671   6.886   3.176   7.401 -0.0975  0.1883 -0.0995
  195MOL     C423672   6.856   3.048   7.644  0.0474  0.2074  0.0797
  195MOL     H523673   6.748   3.049   7.635 -0.1478  0.3805  2.0700
  195MOL     H623674   6.871   2.953   7.697  2.1274  0.7840  0.5803
  195MOL     H723675   7.031   3.044   7.498 -0.0729  1.6180 -1.8735
  195MOL     C823676   6.911   3.157   7.744  0.1620  0.5419 -0.0385
  195MOL    Cl923677   6.887   3.319   7.686  0.1061  0.2993  0.3892
  195MOL   Cl1023678   7.086   3.141   7.753  0.2542  0.3100  0.0097
  195MOL    C1123679   6.854   3.150   7.893  0.7682 -0.5383  0.1040
  195MOL    H1223680   6.886   3.058   7.942 -2.0126 -2.4127 -1.4690
  195MOL    H1323681   6.915   3.224   7.944  0.0936  1.3179 -1.7022
  195MOL    C1423682   6.696   3.163   7.926 -0.3811 -0.1901 -0.5944
  195MOL   Cl1523683   6.703   3.172   8.103 -0.3227  0.1521  0.7526
  195MOL   Cl1623684   6.617   3.010   7.875 -0.5526 -0.5472 -0.2791
  195MOL    C1723685   6.623   3.290   7.870  0.7560  0.5720  0.5268
  195MOL    H1823686   6.677   3.377   7.908 -0.2012  1.0594  0.7936
  195MOL    H1923687   6.646   3.293   7.764  0.2783 -0.2081  0.3949
  195MOL    C2023688   6.468   3.317   7.904 -0.1397 -0.1672 -0.3403
  195MOL   Cl2123689   6.442   3.330   8.075 -0.1111 -0.1530  0.2535
  195MOL   Cl2223690   6.366   3.181   7.855  0.0434  0.0244  0.3140
  195MOL    C2323691   6.404   3.449   7.843 -1.3049  0.2315 -0.0773
  195MOL    H2423692   6.365   3.427   7.744  1.2611 -0.6595 -0.9373
  195MOL    H2523693   6.315   3.471   7.903  0.2286  0.9889  1.9784
  195MOL    C2623694   6.468   3.585   7.828 -0.8263  0.8745 -1.2676
  195MOL   Cl2723695   6.579   3.549   7.694 -0.3525 -0.3810 -0.2149
  195MOL   Cl2823696   6.563   3.605   7.975 -0.0482 -0.2470  0.1956
  195MOL    C2923697   6.377   3.701   7.773 -0.2490 -0.0519  0.1682
  195MOL    H3023698   6.435   3.769   7.711 -0.2425  0.5952  0.8774
  195MOL    H3123699   6.326   3.657   7.687  0.6698  2.8531 -1.9358
  195MOL    C3223700   6.295   3.794   7.864 -0.2835  0.2822 -0.3679
  195MOL   Cl3323701   6.401   3.887   7.978  0.3433 -0.2501  0.4841
  195MOL   Cl3423702   6.190   3.695   7.972  0.4295 -0.0080  0.2908
  195MOL    C3523703   6.211   3.897   7.801  0.0273 -0.6681 -0.2467
  195MOL    H3623704   6.160   3.952   7.880  0.2270  0.2393 -0.7320
  195MOL    H3723705   6.290   3.965   7.767  2.7535 -1.8421  3.3996
  195MOL    C3823706   6.113   3.875   7.686 -0.3060 -0.7627  0.0816
  195MOL   Cl3923707   6.005   3.735   7.710  0.2570  0.3036  0.0461
  195MOL   Cl4023708   6.210   3.853   7.546 -0.2812 -0.3361 -0.0813
  195MOL    C4123709   6.019   4.003   7.665  0.7481  0.7735  0.1198
  195MOL    H4223710   5.958   4.007   7.755 -0.0281 -1.7665 -0.2565
  195MOL    H4323711   6.083   4.091   7.671 -0.1762  1.4173  0.5911
  195MOL    C4423712   5.929   4.024   7.533 -0.2090 -0.8384 -0.0898
  195MOL   Cl4523713   6.029   4.100   7.413 -0.2373 -0.1754 -0.1837
  195MOL   Cl4623714   5.804   4.144   7.574 -0.4374  0.4049 -0.0893
  195MOL    C4723715   5.840   3.900   7.481 -0.3444  0.2334 -0.6343
  195MOL    H4823716   5.906   3.813   7.488  2.2962  2.2724  0.5678
  195MOL    H4923717   5.757   3.883   7.549 -0.4058 -0.5871 -0.9132
  195MOL    C5023718   5.792   3.897   7.330 -0.3018 -0.1415  0.0101
  195MOL   Cl5123719   5.934   3.861   7.226  0.4389 -0.3160  0.5266
  195MOL   Cl5223720   5.726   4.067   7.281  0.1667 -0.4249  0.0393
  195MOL    C5323721   5.692   3.785   7.294  0.1562  0.3721 -0.2236
  195MOL    H5423722   5.672   3.797   7.188  2.9746 -0.2304 -0.8675
  195MOL    H5523723   5.753   3.696   7.277 -2.0097 -1.2199  0.0977
  195MOL    C5623724   5.563   3.751   7.367  0.2279 -0.0772 -0.8747
  195MOL   Cl5723725   5.464   3.895   7.384 -0.3270  0.4641  0.1323
  195MOL   Cl5823726   5.587   3.693   7.535 -0.5976 -0.0664  0.4311
  195MOL    C5923727   5.469   3.648   7.289  0.0731 -1.3298 -0.0875
  195MOL    H6023728   5.391   3.616   7.359  0.4989  1.7378  1.8580
  195MOL    H6123729   5.429   3.688   7.196  1.3283  2.8684  1.0853
  195MOL    C6223730   5.526   3.512   7.232  0.6072  0.6860 -0.4438
  195MOL   Cl6323731   5.626   3.541   7.085 -0.1592 -0.1837  0.2756
  195MOL   Cl6423732   5.376   3.426   7.179  0.6898 -0.0220 -0.1679
  195MOL    C6523733   5.599   3.423   7.343  0.3440 -0.4775  0.3149
  195MOL    H6623734   5.666   3.480   7.408  0.0560 -0.1966  0.3702
  195MOL    H6723735   5.518   3.399   7.412  0.8099 -0.4227  0.8817
  195MOL    C6823736   5.655   3.287   7.317 -0.0909 -0.0356 -1.0918
  195MOL   Cl6923737   5.671   3.218   7.483 -0.3075  0.4271 -0.2054
  195MOL   Cl7023738   5.825   3.335   7.275  0.0497 -0.3076  0.2406
  195MOL    C7123739   5.574   3.189   7.223  0.2727 -0.3175  0.3225
  195MOL    H7223740   5.472   3.199   7.260  0.5826  1.3351  0.7995
  195MOL    H7323741   5.581   3.245   7.129  3.3317 -3.3976 -1.3895
  195MOL    C7423742   5.622   3.043   7.189 -0.6675  0.8216  0.1919
  195MOL   Cl7523743   5.517   2.990   7.064  0.0420  0.2254 -0.2434
  195MOL   Cl7623744   5.578   2.941   7.327 -0.2853 -0.1194  0.1513
  195MOL    C7723745   5.770   3.033   7.147  0.1115 -0.4720  0.3293
  195MOL    H7823746   5.775   3.086   7.052  1.5218 -1.9439 -0.4363
  195MOL    H7923747   5.848   3.081   7.207  0.8127  1.6161 -2.1748
  195MOL    C8023748   5.831   2.898   7.115 -0.2586 -0.0485 -0.1175
  195MOL   Cl8123749   5.724   2.781   7.037  0.4600  0.1989 -0.0902
  195MOL   Cl8223750   5.850   2.828   7.276  0.1116 -0.0965  0.5588
  195MOL    C8323751   5.978   2.900   7.066 -0.0703 -0.3710  0.1784
  195MOL    H8423752   6.038   2.935   7.150 -1.6483  0.4880  0.9733
  195MOL    H8523753   6.009   2.797   7.051  0.2792 -0.2578  0.1049
  195MOL    C8623754   6.014   2.982   6.934 -0.2093 -0.0773 -0.0525
  195MOL   Cl8723755   6.189   2.950   6.921  0.1060 -0.2145  0.1524
  195MOL   Cl8823756   5.986   3.153   6.948 -0.3083 -0.0546  0.4303
  195MOL    C8923757   5.946   2.913   6.810  0.2854 -0.5679 -0.5442
  195MOL    H9023758   5.983   2.811   6.810 -0.7524 -0.9468 -1.2095
  195MOL    H9123759   5.842   2.900   6.841  0.8877 -2.3254  0.8335
  195MOL    C9223760   5.958   2.968   6.665 -0.4823 -0.9127  0.1123
  195MOL   Cl9323761   6.125   3.009   6.632 -0.1658 -0.1156  0.5714
  195MOL   Cl9423762   5.847   3.105   6.663  0.0581  0.3022  0.1985
  195MOL    C9523763   5.904   2.877   6.547  0.9735 -0.4104  0.3195
  195MOL    H9623764   5.903   2.938   6.456 -1.1502 -0.4105  0.3096
  195MOL    H9723765   5.980   2.801   6.555  0.1417 -1.1590  1.2496
  195MOL    C9823766   5.774   2.789   6.541 -0.2040 -0.2261 -0.1636
  195MOL   Cl9923767   5.626   2.882   6.571  0.0393  0.0240 -0.2347
  195MOL  Cl10023768   5.797   2.663   6.662  0.1931  0.1928 -0.0834
  195MOL   C10123769   5.752   2.698   6.422  0.6065  0.1635 -0.0704
  195MOL   H10223770   5.844   2.641   6.414 -0.2527 -1.2159 -0.2798
  195MOL   H10323771   5.681   2.621   6.452  2.7595 -2.3094 -1.1417
  195MOL   C10423772   5.711   2.756   6.279  0.1139 -0.4284 -0.7147
  195MOL  Cl10523773   5.810   2.889   6.221 -0.1048 -0.3458 -0.1481
  195MOL  Cl10623774   5.540   2.813   6.276  0.1049 -0.0635 -0.0062
  195MOL   C10723775   5.725   2.646   6.166 -1.1547 -0.5956  0.5490
  195MOL   H10823776   5.662   2.692   6.089  0.7256  2.7893  0.9303
  195MOL   H10923777   5.828   2.655   6.131 -1.8272 -0.3858 -1.4725
  195MOL   C11023778   5.676   2.498   6.190 -0.0256 -0.1311  0.7737
  195MOL  Cl11123779   5.513   2.509   6.262 -0.1920  0.1311  0.4866
  195MOL  Cl11223780   5.781   2.406   6.295  0.0798  0.2089  0.3753
  195MOL   C11323781   5.647   2.424   6.055  0.7271  0.0523  0.6804
  195MOL   H11423782   5.625   2.320   6.074  2.3445 -0.1484  1.5829
  195MOL   H11523783   5.548   2.447   6.016  1.1180 -1.1232 -1.0711
  195MOL   C11623784   5.756   2.437   5.947  0.5823 -0.0150  0.4981
  195MOL  Cl11723785   5.927   2.412   6.007  0.5063 -0.0846 -0.5775
  195MOL  Cl11823786   5.752   2.590   5.867 -0.0381 -0.0434 -0.0061
  195MOL   C11923787   5.743   2.328   5.835  0.1566 -0.0437 -0.2467
  195MOL   H12023788   5.748   2.226   5.873  0.1833  0.6052  1.5373
  195MOL   H12123789   5.652   2.331   5.774  1.5771  0.4342 -2.4039
  195MOL   H12223790   5.820   2.346   5.760 -0.1136 -0.3957 -0.6148
  196MOL     C123791   3.612   2.644   4.504  0.0784  0.2236  0.1728
  196MOL    Cl223792   3.546   2.797   4.568  0.1419  0.1899  0.2526
  196MOL    Cl323793   3.725   2.691   4.378  0.1660 -0.0497 -0.4099
  196MOL     C423794   3.671   2.551   4.609  0.2832 -0.6100  0.3203
  196MOL     H523795   3.749   2.489   4.563  0.9945  0.9480 -0.5919
  196MOL     H623796   3.713   2.608   4.693 -0.8647 -0.2891  0.6755
  196MOL     H723797   3.532   2.592   4.452  2.4033 -2.2712 -1.0478
  196MOL     C823798   3.576   2.441   4.679 -1.0616 -0.1888 -0.0837
  196MOL    Cl923799   3.534   2.314   4.556  0.2412 -0.4189 -0.5111
  196MOL   Cl1023800   3.420   2.520   4.721  0.1416  0.2412  0.1201
  196MOL    C1123801   3.640   2.384   4.808  0.5725  0.7760 -0.1898
  196MOL    H1223802   3.659   2.476   4.865  0.6142  2.0063 -2.1359
  196MOL    H1323803   3.577   2.320   4.869  1.1754  0.6437  0.2937
  196MOL    C1423804   3.775   2.296   4.802  0.0510 -0.3488 -0.4077
  196MOL   Cl1523805   3.820   2.250   4.976  0.1825  0.2645 -0.0436
  196MOL   Cl1623806   3.912   2.399   4.751 -0.0570  0.2251  0.0327
  196MOL    C1723807   3.770   2.175   4.705  0.3147  0.2062 -0.2677
  196MOL    H1823808   3.672   2.130   4.725  0.2266  0.9592  1.0200
  196MOL    H1923809   3.760   2.206   4.601 -1.4170  1.3115  0.2108
  196MOL    C2023810   3.877   2.057   4.709  0.8695  0.0050 -0.2730
  196MOL   Cl2123811   4.046   2.111   4.695 -0.4533 -0.1166  0.1295
  196MOL   Cl2223812   3.843   1.966   4.563 -0.5179  0.5197  0.1362
  196MOL    C2323813   3.848   1.957   4.832 -0.0444 -1.0279  0.6051
  196MOL    H2423814   3.809   2.004   4.923 -1.3205  0.3775 -0.6556
  196MOL    H2523815   3.769   1.893   4.792 -1.3317  1.5409 -1.1536
  196MOL    C2623816   3.956   1.853   4.881  0.2472  0.5295 -0.2452
  196MOL   Cl2723817   3.864   1.750   4.992  0.2560  0.0302  0.1668
  196MOL   Cl2823818   4.079   1.933   4.961  0.1320 -0.3343 -0.6880
  196MOL    C2923819   4.005   1.764   4.760 -0.2820  0.6222 -0.2426
  196MOL    H3023820   3.919   1.719   4.711  0.5341  0.0325 -1.1377
  196MOL    H3123821   4.049   1.829   4.684  1.0263  1.1989  0.9885
  196MOL    C3223822   4.116   1.653   4.781 -0.5938 -0.7114 -0.2153
  196MOL   Cl3323823   4.275   1.739   4.810 -0.0017  0.1777  0.1883
  196MOL   Cl3423824   4.140   1.589   4.619 -0.1483 -0.0086  0.2286
  196MOL    C3523825   4.089   1.538   4.892 -0.6641  0.2985  0.4111
  196MOL    H3623826   4.079   1.589   4.988  0.8628  1.8967 -0.2429
  196MOL    H3723827   3.996   1.491   4.860  0.0171  0.9396 -2.6397
  196MOL    C3823828   4.184   1.425   4.926 -0.6917 -0.6829  0.5606
  196MOL   Cl3923829   4.198   1.326   4.777  0.2417  0.2703  0.2422
  196MOL   Cl4023830   4.100   1.317   5.043  0.4147 -0.3120  0.0614
  196MOL    C4123831   4.326   1.466   4.973 -0.7952 -0.1956  0.6385
  196MOL    H4223832   4.365   1.517   4.885  0.2767 -1.5089  0.3355
  196MOL    H4323833   4.307   1.546   5.045 -0.1571  0.7554 -0.2446
  196MOL    C4423834   4.440   1.362   5.025  0.0615  0.0981  0.0446
  196MOL   Cl4523835   4.392   1.244   5.152 -0.1523 -0.1573  0.5023
  196MOL   Cl4623836   4.565   1.473   5.098 -0.2223 -0.0563 -0.4465
  196MOL    C4723837   4.511   1.291   4.904  0.2909  0.4667  0.6470
  196MOL    H4823838   4.434   1.272   4.829  0.9272  1.9638 -0.4077
  196MOL    H4923839   4.574   1.362   4.851 -0.9235  1.9589  1.1834
  196MOL    C5023840   4.595   1.160   4.898  1.1954  0.4423 -0.3609
  196MOL   Cl5123841   4.501   1.009   4.939  0.0949  0.5654 -0.4001
  196MOL   Cl5223842   4.734   1.180   5.006 -0.2959 -0.2877 -0.1914
  196MOL    C5323843   4.662   1.126   4.760 -0.2451  0.0705 -0.4435
  196MOL    H5423844   4.729   1.042   4.777 -0.5680  0.2559  1.8129
  196MOL    H5523845   4.582   1.095   4.692  0.7113  1.3640 -2.2111
  196MOL    C5623846   4.741   1.237   4.682 -0.1832  0.0388 -0.4130
  196MOL   Cl5723847   4.630   1.357   4.604 -0.1841 -0.1837 -0.1097
  196MOL   Cl5823848   4.824   1.157   4.551 -0.2851 -0.0442 -0.4827
  196MOL    C5923849   4.857   1.314   4.760  0.0964  0.3944 -0.7244
  196MOL    H6023850   4.806   1.383   4.827  1.7403 -2.1067  3.2885
  196MOL    H6123851   4.909   1.243   4.824 -0.1239  1.8189  1.0825
  196MOL    C6223852   4.981   1.394   4.692  0.8529 -0.7939 -1.0394
  196MOL   Cl6323853   4.932   1.474   4.544 -0.2217 -0.2495 -0.2948
  196MOL   Cl6423854   5.104   1.278   4.647  0.0356  0.4848  0.4605
  196MOL    C6523855   5.039   1.509   4.773  0.1588 -0.7683 -0.0442
  196MOL    H6623856   5.088   1.574   4.701 -2.3327  1.5034  0.2289
  196MOL    H6723857   4.952   1.570   4.796  0.2950 -1.4172  2.3178
  196MOL    C6823858   5.134   1.487   4.893 -0.2143 -0.3039  0.2693
  196MOL   Cl6923859   5.300   1.430   4.828  0.2280 -0.0593 -0.0825
  196MOL   Cl7023860   5.058   1.373   5.000 -0.4429 -0.2536  0.5191
  196MOL    C7123861   5.148   1.623   4.974  0.1553  0.5099 -0.0799
  196MOL    H7223862   5.056   1.681   4.981 -2.4473 -3.6161  1.9765
  196MOL    H7323863   5.156   1.595   5.079  1.1691  0.6827 -0.0996
  196MOL    C7423864   5.260   1.729   4.947  0.1974 -0.7808  0.2655
  196MOL   Cl7523865   5.269   1.770   4.774  0.2054  0.0843  0.2146
  196MOL   Cl7623866   5.415   1.663   4.993  0.0773  0.0856  0.0638
  196MOL    C7723867   5.217   1.852   5.034 -0.4525  0.4545 -0.4168
  196MOL    H7823868   5.139   1.901   4.975 -1.5854  1.9386  2.2463
  196MOL    H7923869   5.174   1.816   5.127  1.3532  3.8002  1.8304
  196MOL    C8023870   5.318   1.963   5.077  0.3265 -0.4592  0.1719
  196MOL   Cl8123871   5.225   2.111   5.106 -0.1740 -0.2231  0.2967
  196MOL   Cl8223872   5.446   1.999   4.953  0.1699  0.2253 -0.3663
  196MOL    C8323873   5.398   1.925   5.209 -0.0593  1.1148  0.1313
  196MOL    H8423874   5.484   1.866   5.179 -0.1477 -0.5638  2.9842
  196MOL    H8523875   5.446   2.018   5.242  1.8860  1.6286 -3.7975
  196MOL    C8623876   5.327   1.870   5.339 -0.2605  0.2791  0.5960
  196MOL   Cl8723877   5.293   1.693   5.306 -0.0279 -0.2047  0.0965
  196MOL   Cl8823878   5.178   1.956   5.383  0.1740 -0.2791 -0.1980
  196MOL    C8923879   5.422   1.875   5.464  0.2672 -0.4946  0.2583
  196MOL    H9023880   5.359   1.839   5.545  0.9591  1.1583  1.5833
  196MOL    H9123881   5.499   1.799   5.449  0.9638  0.0016  1.2352
  196MOL    C9223882   5.490   2.003   5.514  0.0244 -0.0549 -0.1045
  196MOL   Cl9323883   5.626   2.034   5.410 -0.3436  0.5245 -0.2569
  196MOL   Cl9423884   5.573   1.960   5.667 -0.3009  0.2942  0.1798
  196MOL    C9523885   5.415   2.136   5.522  0.2397 -0.0725  0.0981
  196MOL    H9623886   5.496   2.209   5.527 -0.8603  1.2312 -0.6949
  196MOL    H9723887   5.367   2.158   5.427 -2.4841 -2.8964  0.7392
  196MOL    C9823888   5.319   2.168   5.645 -0.0630  0.3824 -0.1206
  196MOL   Cl9923889   5.406   2.234   5.782  0.0158  0.2259  0.1814
  196MOL  Cl10023890   5.246   2.018   5.710 -0.1862 -0.0295  0.6395
  196MOL   C10123891   5.203   2.270   5.613 -0.1836  1.2056 -0.4755
  196MOL   H10223892   5.124   2.216   5.562 -0.7281  2.2847 -0.7763
  196MOL   H10323893   5.167   2.305   5.710 -1.0362  2.1524 -1.1348
  196MOL   C10423894   5.214   2.403   5.534 -0.4573 -0.0141 -0.0350
  196MOL  Cl10523895   5.361   2.491   5.588 -0.7779  0.0223  0.3130
  196MOL  Cl10623896   5.086   2.504   5.602 -0.1984  0.0449 -0.2726
  196MOL   C10723897   5.196   2.383   5.382  0.2689 -0.9119 -0.0628
  196MOL   H10823898   5.283   2.329   5.344  2.7113  2.7750  0.0244
  196MOL   H10923899   5.114   2.312   5.378 -0.6104  0.1257 -0.9156
  196MOL   C11023900   5.167   2.502   5.281  0.0809  0.4268  0.5119
  196MOL  Cl11123901   5.017   2.592   5.314  0.0158  0.1588  0.0772
  196MOL  Cl11223902   5.149   2.425   5.127 -0.0348  0.1393  0.0519
  196MOL   C11323903   5.294   2.597   5.270  0.3449 -0.2314 -0.0677
  196MOL   H11423904   5.311   2.651   5.363 -2.3048  0.5912 -0.0213
  196MOL   H11523905   5.381   2.532   5.265  0.3753 -0.0789 -1.6454
  196MOL   C11623906   5.313   2.686   5.148 -0.6492 -0.4690  0.4734
  196MOL  Cl11723907   5.169   2.752   5.069 -0.3430  0.3718 -0.1358
  196MOL  Cl11823908   5.395   2.582   5.023 -0.0077  0.2669  0.2896
  196MOL   C11923909   5.409   2.808   5.176  0.2928 -0.5387 -0.2288
  196MOL   H12023910   5.496   2.776   5.234  0.3790  1.5800  0.8545
  196MOL   H12123911   5.445   2.851   5.083  1.2679 -2.8672 -0.9558
  196MOL   H12223912   5.358   2.880   5.240 -0.4536 -0.7257 -0.6118
  197MOL     C123913   8.724   8.585   6.352 -0.4312 -0.0027  0.1406
  197MOL    Cl223914   8.576   8.629   6.421 -0.3055  0.1648 -0.3526
  197MOL    Cl323915   8.810   8.739   6.328 -0.3526  0.4457 -0.0138
  197MOL     C423916   8.809   8.487   6.433 -0.5488  1.0315  0.3816
  197MOL     H523917   8.863   8.541   6.511  1.1502 -0.8915  0.5703
  197MOL     H623918   8.749   8.414   6.488 -0.5497 -2.1151 -3.5718
  197MOL     H723919   8.700   8.544   6.254 -1.9625 -1.9222  1.2796
  197MOL     C823920   8.900   8.399   6.345  0.4025 -0.0521 -0.0777
  197MOL    Cl923921   9.025   8.496   6.279 -0.0684 -0.1651 -0.2479
  197MOL   Cl1023922   8.816   8.305   6.215  0.5486 -0.3562 -0.3352
  197MOL    C1123923   8.980   8.294   6.421  0.3065  0.1715 -0.2711
  197MOL    H1223924   9.044   8.239   6.352  0.3616 -0.6396  0.4151
  197MOL    H1323925   9.058   8.336   6.485 -1.2723  3.4896 -0.4372
  197MOL    C1423926   8.919   8.182   6.502 -0.2063  0.4018 -0.0649
  197MOL   Cl1523927   8.903   8.255   6.664 -0.2080 -0.0242  0.7712
  197MOL   Cl1623928   9.049   8.063   6.522 -0.2192 -0.0276 -0.3099
  197MOL    C1723929   8.780   8.115   6.464 -0.5049  0.5036  1.4106
  197MOL    H1823930   8.711   8.198   6.473 -1.4378 -0.0573 -0.2393
  197MOL    H1923931   8.796   8.086   6.360 -3.5904  1.8782  0.5071
  197MOL    C2023932   8.717   7.996   6.537  0.2601  0.1272 -0.1342
  197MOL   Cl2123933   8.545   7.993   6.474  0.4388  0.2436  0.0077
  197MOL   Cl2223934   8.700   8.024   6.718  0.3223 -0.0407  0.2857
  197MOL    C2323935   8.788   7.862   6.516  0.1248 -0.0779  0.2373
  197MOL    H2423936   8.834   7.856   6.417 -0.5403 -2.3129  0.0402
  197MOL    H2523937   8.873   7.857   6.583  1.2005  3.0012 -0.8106
  197MOL    C2623938   8.724   7.720   6.535 -0.7363  0.3513 -0.9047
  197MOL   Cl2723939   8.637   7.696   6.374 -0.0216 -0.1198  0.1498
  197MOL   Cl2823940   8.610   7.713   6.671 -0.4521  0.3569 -0.1245
  197MOL    C2923941   8.834   7.604   6.543  0.2019 -0.0399 -0.5068
  197MOL    H3023942   8.897   7.619   6.456 -2.6479  0.9690 -2.4319
  197MOL    H3123943   8.903   7.622   6.626 -0.2748  0.0573 -0.1287
  197MOL    C3223944   8.810   7.447   6.555  0.0202 -0.0122  0.2388
  197MOL   Cl3323945   8.966   7.360   6.553  0.3346 -0.0335 -0.0929
  197MOL   Cl3423946   8.737   7.397   6.398 -0.0834  0.1628  0.3700
  197MOL    C3523947   8.724   7.411   6.678 -0.1621 -0.0784  0.3224
  197MOL    H3623948   8.742   7.487   6.753  2.2501 -0.4134  0.1255
  197MOL    H3723949   8.623   7.440   6.652  0.2532  0.4842 -0.7036
  197MOL    C3823950   8.727   7.262   6.732 -0.2495 -0.5295  0.5586
  197MOL   Cl3923951   8.722   7.128   6.611 -0.2663 -0.2019 -0.0535
  197MOL   Cl4023952   8.572   7.244   6.812  0.2135  0.3185 -0.2448
  197MOL    C4123953   8.851   7.235   6.826  0.0977 -0.0822  0.0986
  197MOL    H4223954   8.843   7.133   6.864 -0.6423 -0.1863 -0.3144
  197MOL    H4323955   8.942   7.231   6.766  0.1616  1.8121  0.0467
  197MOL    C4423956   8.888   7.332   6.944 -0.2192  0.4003 -0.0452
  197MOL   Cl4523957   8.979   7.477   6.889 -0.0336  0.0653  0.0157
  197MOL   Cl4623958   9.005   7.244   7.055 -0.0917 -0.1931  0.3596
  197MOL    C4723959   8.762   7.378   7.027 -0.3716 -0.0253 -0.0500
  197MOL    H4823960   8.704   7.453   6.974 -1.5006 -0.4406  0.5605
  197MOL    H4923961   8.704   7.286   7.032 -2.0980  0.9584 -1.4104
  197MOL    C5023962   8.759   7.445   7.164 -0.4979  0.4282 -0.1893
  197MOL   Cl5123963   8.598   7.530   7.178 -0.4120 -0.0700 -0.1224
  197MOL   Cl5223964   8.890   7.566   7.179  0.1408 -0.3423 -0.2453
  197MOL    C5323965   8.775   7.338   7.284  0.1869 -0.5366  0.2403
  197MOL    H5423966   8.681   7.282   7.281 -0.5337  0.7289 -1.9526
  197MOL    H5523967   8.851   7.265   7.257  0.7965  0.0265  0.4072
  197MOL    C5623968   8.804   7.378   7.433 -0.5749  0.3366 -0.3245
  197MOL   Cl5723969   8.975   7.418   7.442 -0.0024 -0.0627  0.1715
  197MOL   Cl5823970   8.771   7.224   7.522  0.1408 -0.3023 -0.1240
  197MOL    C5923971   8.713   7.497   7.477 -0.0268  0.4330  0.6832
  197MOL    H6023972   8.730   7.578   7.405  0.7264 -1.2636 -1.0836
  197MOL    H6123973   8.607   7.471   7.469  0.5242 -1.3857 -1.0668
  197MOL    C6223974   8.720   7.557   7.613  0.2246 -0.3502 -0.9665
  197MOL   Cl6323975   8.608   7.689   7.602 -0.4812  0.3342 -0.1882
  197MOL   Cl6423976   8.883   7.631   7.643 -0.2326 -0.0342 -0.3814
  197MOL    C6523977   8.677   7.454   7.725 -0.6559  0.1833  0.3891
  197MOL    H6623978   8.600   7.391   7.682 -1.4722  1.5088 -0.1300
  197MOL    H6723979   8.767   7.393   7.735  0.1156  0.9648 -1.4716
  197MOL    C6823980   8.634   7.507   7.864 -0.2051 -0.3051  0.2558
  197MOL   Cl6923981   8.666   7.375   7.972 -0.3940 -0.3005 -0.2957
  197MOL   Cl7023982   8.458   7.519   7.860  0.2348 -0.4338  0.2109
  197MOL    C7123983   8.705   7.629   7.926 -0.1507 -0.1786  0.1266
  197MOL    H7223984   8.804   7.587   7.935 -0.4306 -0.8815 -0.0478
  197MOL    H7323985   8.715   7.705   7.848  0.0557 -0.2988  0.0377
  197MOL    C7423986   8.671   7.700   8.065  0.7463  0.4872  0.0038
  197MOL   Cl7523987   8.781   7.831   8.081 -0.0838  0.2589  0.1470
  197MOL   Cl7623988   8.690   7.577   8.203  0.4055 -0.0055  0.0734
  197MOL    C7723989   8.517   7.746   8.065 -1.0679 -0.8586 -0.5397
  197MOL    H7823990   8.478   7.763   7.964 -2.4207  1.8141  0.3944
  197MOL    H7923991   8.466   7.656   8.098  1.4590 -1.8179  0.8898
  197MOL    C8023992   8.472   7.864   8.153 -0.4577  0.1961 -0.1807
  197MOL   Cl8123993   8.293   7.867   8.138  0.1786 -0.3034 -0.0527
  197MOL   Cl8223994   8.530   8.019   8.079  0.2545 -0.0452 -0.2588
  197MOL    C8323995   8.510   7.850   8.302 -0.0800  0.1171  0.7727
  197MOL    H8423996   8.483   7.749   8.333 -1.3236  0.8105  2.0056
  197MOL    H8523997   8.619   7.853   8.307 -0.0577 -0.9574  1.1290
  197MOL    C8623998   8.457   7.940   8.418  0.3115  0.0767  0.3658
  197MOL   Cl8723999   8.278   7.944   8.421 -0.1107  0.1108  0.1993
  197MOL   Cl8824000   8.513   8.104   8.385  0.0791 -0.1386 -0.4096
  197MOL    C8924001   8.494   7.902   8.563 -0.8080  0.4328  0.2750
  197MOL    H9024002   8.436   7.967   8.628 -1.4042  0.0541  0.1273
  197MOL    H9124003   8.444   7.808   8.587  1.5266 -0.4002  2.0018
  197MOL    C9224004   8.641   7.875   8.612  0.6328 -0.6998  0.2758
  197MOL   Cl9324005   8.719   7.743   8.510 -0.1029 -0.3252 -0.1037
  197MOL   Cl9424006   8.632   7.806   8.765  0.3122  0.1628  0.2578
  197MOL    C9524007   8.724   8.012   8.628  0.9483  0.2789 -0.3269
  197MOL    H9624008   8.688   8.078   8.550 -0.0423 -0.1644 -0.2424
  197MOL    H9724009   8.679   8.056   8.717  2.8491  1.6128  0.0143
  197MOL    C9824010   8.878   8.016   8.632  0.3229  0.3352  0.0790
  197MOL   Cl9924011   8.913   8.186   8.644 -0.0904  0.0620  0.0940
  197MOL  Cl10024012   8.954   7.954   8.481  0.0636  0.2457 -0.0663
  197MOL   C10124013   8.943   7.948   8.754 -0.0263  0.2974  0.1405
  197MOL   H10224014   8.903   7.990   8.846 -1.8340  0.6178 -0.7828
  197MOL   H10324015   8.905   7.846   8.750  2.1851 -0.5866  0.6477
  197MOL   C10424016   9.098   7.948   8.785 -0.8692  0.4740 -0.6979
  197MOL  Cl10524017   0.004   7.862   8.662 -0.3276 -0.0906  0.0406
  197MOL  Cl10624018   9.111   7.862   8.942  0.4703  0.4732 -0.0341
  197MOL   C10724019   9.162   8.094   8.805 -0.4918 -0.1205 -0.0532
  197MOL   H10824020   9.180   8.126   8.702  1.1877 -1.7688 -0.3070
  197MOL   H10924021   9.084   8.150   8.856 -1.0085 -1.4048  0.5946
  197MOL   C11024022   0.118   8.115   8.883 -0.4450  0.7402  0.2132
  197MOL  Cl11124023   0.073   8.139   9.051  0.3310  0.0997 -0.0471
  197MOL  Cl11224024   0.179   8.271   8.814 -0.1108  0.3103 -0.2266
  197MOL   C11324025   0.226   8.002   8.860  0.2231  0.1617 -0.2552
  197MOL   H11424026   0.180   7.909   8.893  1.2225  0.4743  2.1178
  197MOL   H11524027   0.247   8.004   8.753  0.7256 -1.7560 -0.2065
  197MOL   C11624028   0.361   8.008   8.933 -0.7583  0.1086  0.3149
  197MOL  Cl11724029   0.436   7.866   8.855 -0.0438  0.5846  0.1328
  197MOL  Cl11824030   0.362   7.953   9.106  0.0378 -0.0960  0.1011
  197MOL   C11924031   0.452   8.133   8.910  0.3288  0.0286 -0.4255
  197MOL   H12024032   0.546   8.119   8.964 -0.6536 -1.9287  0.8265
  197MOL   H12124033   0.471   8.157   8.805  1.0101 -0.4514 -0.4138
  197MOL   H12224034   0.414   8.220   8.964  0.4016  0.4275 -1.0121
  198MOL     C124035   7.073   5.950   4.855 -0.5913 -0.0628 -0.0328
  198MOL    Cl224036   6.964   5.918   4.716 -0.2246 -0.1215 -0.0486
  198MOL    Cl324037   7.080   6.122   4.879 -0.1048 -0.1725  0.1457
  198MOL     C424038   7.014   5.899   4.980 -0.0758  0.6646 -0.6724
  198MOL     H524039   7.065   5.944   5.065 -0.5970  0.8365 -0.4481
  198MOL     H624040   6.909   5.926   4.987 -0.4168 -0.4406 -1.3657
  198MOL     H724041   7.172   5.914   4.828 -1.2349  0.5561 -3.4684
  198MOL     C824042   7.025   5.747   5.000  0.5556 -0.6116 -0.3286
  198MOL    Cl924043   6.975   5.713   5.173 -0.2033  0.0993 -0.1908
  198MOL   Cl1024044   7.196   5.696   4.986  0.0149 -0.2040 -0.0471
  198MOL    C1124045   6.943   5.661   4.903 -0.2079 -0.8707 -0.7098
  198MOL    H1224046   6.860   5.724   4.871  0.5574  0.7021  0.3386
  198MOL    H1324047   7.011   5.659   4.819  1.0311  2.0753  0.1616
  198MOL    C1424048   6.896   5.516   4.936 -0.4149  0.2984  0.9934
  198MOL   Cl1524049   6.823   5.459   4.777  0.1629 -0.2283  0.0214
  198MOL   Cl1624050   6.753   5.525   5.037 -0.0875 -0.3418  0.0615
  198MOL    C1724051   7.017   5.431   4.984  0.1641 -0.1112 -0.1779
  198MOL    H1824052   7.090   5.437   4.904 -0.8514 -2.4428 -1.3381
  198MOL    H1924053   7.067   5.488   5.063 -1.2342 -0.5117  1.0274
  198MOL    C2024054   7.017   5.285   5.030 -0.3245 -0.3257 -0.3647
  198MOL   Cl2124055   6.932   5.279   5.184  0.0600  0.2224  0.3104
  198MOL   Cl2224056   7.188   5.247   5.061  0.1072 -0.4599 -0.0033
  198MOL    C2324057   6.959   5.190   4.920 -0.0478  0.8784  0.7183
  198MOL    H2424058   6.852   5.210   4.907  0.3078  0.5546 -3.2979
  198MOL    H2524059   7.004   5.213   4.824 -1.3960 -0.3246 -0.2312
  198MOL    C2624060   6.993   5.034   4.930  0.5852  0.5967  0.6828
  198MOL   Cl2724061   7.157   5.004   4.865  0.1276 -0.0927  0.1501
  198MOL   Cl2824062   6.894   4.952   4.807  0.0049  0.1722 -0.8106
  198MOL    C2924063   6.970   4.983   5.069  0.1971 -0.5418  0.7748
  198MOL    H3024064   7.051   5.022   5.131  1.1670  0.9032 -1.3428
  198MOL    H3124065   6.872   5.023   5.094  0.0502 -0.4614  0.0800
  198MOL    C3224066   6.968   4.832   5.103  0.4331  0.1410 -0.8047
  198MOL   Cl3324067   6.817   4.761   5.059 -0.2502  0.1707  0.3251
  198MOL   Cl3424068   6.977   4.827   5.285  0.0843 -0.1904  0.0597
  198MOL    C3524069   7.080   4.757   5.034 -0.2313  0.0130  0.2296
  198MOL    H3624070   7.060   4.754   4.926 -3.1476 -1.5710  0.7403
  198MOL    H3724071   7.169   4.820   5.038  0.0032 -0.2164 -1.0050
  198MOL    C3824072   7.128   4.613   5.081 -0.0933  0.3447 -0.1443
  198MOL   Cl3924073   7.005   4.497   5.128  0.1447 -0.5934  0.0861
  198MOL   Cl4024074   7.224   4.645   5.230  0.2506  0.1397  0.0978
  198MOL    C4124075   7.221   4.538   4.983 -0.3565  0.1164  0.0334
  198MOL    H4224076   7.317   4.590   4.979 -0.7067  0.7677 -0.0555
  198MOL    H4324077   7.234   4.439   5.026 -0.9973 -1.1347 -2.5132
  198MOL    C4424078   7.166   4.515   4.836  0.1441 -0.2543 -0.7477
  198MOL   Cl4524079   7.258   4.380   4.772  0.2783  0.2372 -0.3413
  198MOL   Cl4624080   7.227   4.662   4.753  0.2842 -0.3244  0.4690
  198MOL    C4724081   7.013   4.487   4.818  0.0644  0.1189 -0.5130
  198MOL    H4824082   6.987   4.388   4.856 -0.8690 -0.2706 -2.1101
  198MOL    H4924083   6.956   4.565   4.868  0.8362 -0.3752  1.1574
  198MOL    C5024084   6.944   4.475   4.675  0.1113 -0.0618 -0.1262
  198MOL   Cl5124085   7.022   4.349   4.572  0.3721 -0.6171  0.1749
  198MOL   Cl5224086   6.960   4.634   4.589  0.0525  0.1957  0.1059
  198MOL    C5324087   6.785   4.453   4.675  0.0882 -0.0125  0.3543
  198MOL    H5424088   6.743   4.541   4.724  2.4710  0.5641  1.3995
  198MOL    H5524089   6.750   4.455   4.572 -0.7426  1.7425  0.6505
  198MOL    C5624090   6.714   4.335   4.748  0.1414  0.1861  0.1885
  198MOL   Cl5724091   6.541   4.374   4.734  0.3106  0.3503  0.3246
  198MOL   Cl5824092   6.744   4.346   4.926 -0.3618 -0.2692  0.1255
  198MOL    C5924093   6.746   4.197   4.694 -0.7550 -0.1538  0.2176
  198MOL    H6024094   6.722   4.213   4.588  0.2096  1.6059  0.2445
  198MOL    H6124095   6.855   4.189   4.698 -0.6558  1.6389  1.9963
  198MOL    C6224096   6.670   4.067   4.739 -0.2172 -0.5996 -0.4814
  198MOL   Cl6324097   6.759   3.935   4.648  0.1353  0.1022  0.1363
  198MOL   Cl6424098   6.508   4.070   4.672  0.1756 -0.3333  0.4594
  198MOL    C6524099   6.681   4.036   4.896 -0.1668 -0.8500 -0.8124
  198MOL    H6624100   6.784   4.060   4.923 -1.0012  0.0755  1.7112
  198MOL    H6724101   6.624   4.118   4.941 -0.1162 -0.2892 -1.7532
  198MOL    C6824102   6.639   3.897   4.957 -0.1894 -0.4152  0.2586
  198MOL   Cl6924103   6.490   3.825   4.881 -0.0491 -0.2259 -0.0421
  198MOL   Cl7024104   6.618   3.922   5.138  0.1005 -0.0313  0.0024
  198MOL    C7124105   6.763   3.799   4.954  0.4383  0.1710 -0.4197
  198MOL    H7224106   6.816   3.816   4.861  0.5261  1.8805 -0.0835
  198MOL    H7324107   6.832   3.832   5.032  0.2457  1.3220 -0.7300
  198MOL    C7424108   6.747   3.645   4.977  0.0188  0.0893  0.2240
  198MOL   Cl7524109   6.906   3.572   4.997 -0.0309 -0.3872  0.4582
  198MOL   Cl7624110   6.716   3.563   4.818 -0.2487  0.1891 -0.0495
  198MOL    C7724111   6.637   3.605   5.092 -0.6110  0.6461 -0.2169
  198MOL    H7824112   6.673   3.653   5.183  1.6624  0.9579 -1.2364
  198MOL    H7924113   6.539   3.643   5.065 -1.5381 -0.1145  1.8870
  198MOL    C8024114   6.630   3.458   5.138 -0.6342 -0.6141  0.4288
  198MOL   Cl8124115   6.480   3.472   5.240 -0.2943 -0.2109 -0.0904
  198MOL   Cl8224116   6.768   3.427   5.252 -0.6130  0.0862 -0.1374
  198MOL    C8324117   6.605   3.349   5.030  0.5323  0.1703  0.4554
  198MOL    H8424118   6.554   3.391   4.943 -0.8287 -0.5473  0.8997
  198MOL    H8524119   6.707   3.337   4.991 -0.1751 -1.0444 -1.0727
  198MOL    C8624120   6.555   3.213   5.075 -0.8336  0.4623 -0.4780
  198MOL   Cl8724121   6.380   3.201   5.076 -0.1292 -0.2879  0.3744
  198MOL   Cl8824122   6.613   3.167   5.238  0.3326  0.1267  0.2221
  198MOL    C8924123   6.608   3.097   4.980  0.8478  0.8352  0.3993
  198MOL    H9024124   6.706   3.069   5.018  0.8318 -0.5761 -0.5566
  198MOL    H9124125   6.542   3.012   4.997  2.4053 -0.0986  1.8369
  198MOL    C9224126   6.614   3.114   4.828  0.4231  0.2996 -0.1008
  198MOL   Cl9324127   6.749   3.211   4.775  0.0337 -0.2543 -0.1306
  198MOL   Cl9424128   6.469   3.191   4.765 -0.1693  0.1456  0.2816
  198MOL    C9524129   6.624   2.966   4.776 -0.4285 -0.3764 -0.4302
  198MOL    H9624130   6.677   2.902   4.846  0.6813  2.1023  1.0847
  198MOL    H9724131   6.524   2.922   4.775 -0.9243  0.7753 -1.9747
  198MOL    C9824132   6.679   2.929   4.640 -0.7636  0.2898  0.6241
  198MOL   Cl9924133   6.591   3.028   4.510 -0.0636  0.1802 -0.3555
  198MOL  Cl10024134   6.647   2.756   4.611 -0.2184  0.0914  0.0196
  198MOL   C10124135   6.837   2.954   4.614  0.1308 -0.3817 -0.0259
  198MOL   H10224136   6.865   2.938   4.510  1.7772  1.1640  0.1421
  198MOL   H10324137   6.859   3.061   4.619  1.5874 -0.7281  1.5051
  198MOL   C10424138   6.950   2.889   4.705 -0.1042 -0.4277  0.0308
  198MOL  Cl10524139   6.933   2.710   4.723 -0.1413  0.0017  0.1397
  198MOL  Cl10624140   6.945   2.947   4.877  0.0822 -0.0848 -0.2167
  198MOL   C10724141   7.095   2.913   4.653  0.3646 -0.2423  0.0582
  198MOL   H10824142   7.161   2.854   4.717 -0.5783 -0.1673  1.1062
  198MOL   H10924143   7.095   2.869   4.553 -2.9796  0.2695 -0.2394
  198MOL   C11024144   7.150   3.056   4.626  0.1888 -0.8209  0.8126
  198MOL  Cl11124145   7.095   3.182   4.739 -0.5821 -0.1758  0.1162
  198MOL  Cl11224146   7.087   3.120   4.472  0.0218 -0.4069  0.0717
  198MOL   C11324147   7.304   3.068   4.617 -0.0182  0.2529  0.3369
  198MOL   H11424148   7.327   3.169   4.583 -0.8117  1.0791  2.1910
  198MOL   H11524149   7.349   3.077   4.716 -0.5062  0.8192  0.5094
  198MOL   C11624150   7.390   2.968   4.528  0.4138 -0.0398  0.1526
  198MOL  Cl11724151   7.398   2.800   4.586 -0.0850 -0.2070  0.1332
  198MOL  Cl11824152   7.561   3.016   4.530  0.1495 -0.0760 -0.1295
  198MOL   C11924153   7.348   2.964   4.378 -0.5437  0.6074  0.3868
  198MOL   H12024154   7.426   2.921   4.315 -1.6589 -1.0723  0.1269
  198MOL   H12124155   7.259   2.904   4.359  1.1923 -2.0289  0.3186
  198MOL   H12224156   7.336   3.060   4.328 -0.1316 -0.4596 -1.7708
  199MOL     C124157   5.527   0.072   0.206  0.0303 -0.2779 -0.9623
  199MOL    Cl224158   5.483   0.163   0.063  0.2136  0.0489  0.3448
  199MOL    Cl324159   5.685   0.132   0.264 -0.1686 -0.0171 -0.3613
  199MOL     C424160   5.421   0.074   0.322  0.6193  0.5408  0.2666
  199MOL     H524161   5.474   0.040   0.411 -2.6599  0.0853  2.0996
  199MOL     H624162   5.383   0.175   0.331 -2.1225 -0.5476  1.4793
  199MOL     H724163   5.551   9.149   0.182 -0.4607 -0.6769  0.2053
  199MOL     C824164   5.287   9.170   0.309 -0.9503 -0.4060 -0.1068
  199MOL    Cl924165   5.323   9.001   0.292 -0.0148 -0.6241 -0.1293
  199MOL   Cl1024166   5.187   0.043   0.174  0.2668 -0.3116  0.1847
  199MOL    C1124167   5.188   0.010   0.431  0.6191  0.1583 -0.4649
  199MOL    H1224168   5.137   0.105   0.415 -1.3009 -1.3149 -3.7921
  199MOL    H1324169   5.115   9.110   0.419  1.0201 -0.2352 -0.2546
  199MOL    C1424170   5.230   0.006   0.577 -0.3361  0.4694 -0.6248
  199MOL   Cl1524171   5.282   0.169   0.630 -0.3442  0.5596  0.0817
  199MOL   Cl1624172   5.373   9.078   0.591  0.0476  0.2128  0.0173
  199MOL    C1724173   5.120   9.105   0.661  0.1047  0.7296  0.3561
  199MOL    H1824174   5.090   9.010   0.619 -1.3500  0.3639  2.1449
  199MOL    H1924175   5.171   9.065   0.749 -1.3594 -1.4179  0.2657
  199MOL    C2024176   4.997   9.171   0.722 -0.1453  0.2173  0.2388
  199MOL   Cl2124177   4.895   9.052   0.806  0.0629 -0.1378  0.2776
  199MOL   Cl2224178   4.903   0.054   0.587 -0.2236  0.0681  0.1909
  199MOL    C2324179   5.017   0.112   0.822  0.4985  0.0200 -0.0533
  199MOL    H2424180   5.077   0.183   0.765  1.5634 -1.9599 -1.4895
  199MOL    H2524181   4.920   0.157   0.841  0.6886 -0.2524  1.5662
  199MOL    C2624182   5.102   0.108   0.954 -0.7130 -0.3798  0.0598
  199MOL   Cl2724183   5.117   0.279   1.010  0.3298 -0.0532  0.2116
  199MOL   Cl2824184   5.262   0.043   0.916  0.1551 -0.1289  0.1478
  199MOL    C2924185   5.058   0.020   1.078 -0.2101 -0.0518 -0.1250
  199MOL    H3024186   5.029   9.101   1.044 -0.1983  0.5336 -1.8851
  199MOL    H3124187   5.146   0.002   1.140 -0.1057 -3.0171 -1.0655
  199MOL    C3224188   4.935   0.050   1.173  0.3220  0.1138  0.3726
  199MOL   Cl3324189   4.981   0.191   1.270  0.0087 -0.1622 -0.1276
  199MOL   Cl3424190   4.927   9.085   1.278 -0.2123 -0.2844  0.3780
  199MOL    C3524191   4.806   0.072   1.097  0.1885 -0.1993  0.9142
  199MOL    H3624192   4.822   0.157   1.031 -0.1797 -1.0708 -0.3251
  199MOL    H3724193   4.800   9.171   1.025 -0.1887  1.1582 -0.6110
  199MOL    C3824194   4.665   0.076   1.147 -0.4459  0.0333  0.2772
  199MOL   Cl3924195   4.612   9.096   1.219 -0.3286  0.2067 -0.2923
  199MOL   Cl4024196   4.577   0.122   1.004 -0.2926 -0.0345 -0.2018
  199MOL    C4124197   4.647   0.193   1.252 -0.4987  0.4298 -0.2929
  199MOL    H4224198   4.714   0.167   1.334  0.9366 -0.0565 -1.5982
  199MOL    H4324199   4.703   0.277   1.211  0.0872  0.2169  0.0534
  199MOL    C4424200   4.511   0.233   1.315  0.3444  0.7912 -0.2597
  199MOL   Cl4524201   4.550   0.393   1.388  0.4903 -0.0188 -0.3231
  199MOL   Cl4624202   4.467   0.117   1.446 -0.1602  0.0249  0.1746
  199MOL    C4724203   4.396   0.251   1.207 -0.1878  0.3796  0.2317
  199MOL    H4824204   4.442   0.296   1.119  0.0401 -0.3542 -0.0276
  199MOL    H4924205   4.367   0.153   1.168 -2.1585  0.6889  0.8818
  199MOL    C5024206   4.265   0.329   1.238  0.7521  0.5893 -0.6236
  199MOL   Cl5124207   4.153   0.292   1.102  0.0971  0.0509 -0.1186
  199MOL   Cl5224208   4.299   0.509   1.236 -0.2419 -0.2319 -0.4028
  199MOL    C5324209   4.197   0.285   1.376 -0.1107  0.6410  0.2230
  199MOL    H5424210   4.202   0.177   1.390 -1.5522  0.4874 -0.4113
  199MOL    H5524211   4.266   0.301   1.459 -1.3296 -0.7333  1.5271
  199MOL    C5624212   4.055   0.334   1.421 -0.3265 -0.5162 -0.1732
  199MOL   Cl5724213   4.051   0.316   1.597 -0.2166 -0.0285  0.3904
  199MOL   Cl5824214   3.936   0.234   1.338 -0.2257  0.2439 -0.1913
  199MOL    C5924215   4.030   0.486   1.379  0.0827  0.2363 -0.4748
  199MOL    H6024216   4.106   0.550   1.425  0.1068 -0.2361  0.1396
  199MOL    H6124217   4.044   0.502   1.272 -0.4040  1.4593 -0.3677
  199MOL    C6224218   3.896   0.566   1.408 -0.1677  0.2328  0.7126
  199MOL   Cl6324219   3.859   0.567   1.584 -0.1145  0.2930 -0.0122
  199MOL   Cl6424220   3.754   0.494   1.321 -0.1722  0.3346  0.1967
  199MOL    C6524221   3.907   0.717   1.363 -0.9330 -0.8970  0.0552
  199MOL    H6624222   3.836   0.783   1.413 -1.2821 -1.1495 -0.1064
  199MOL    H6724223   3.997   0.753   1.413 -0.3344  1.1106 -2.3635
  199MOL    C6824224   3.892   0.762   1.217  0.1691 -0.1470  0.1379
  199MOL   Cl6924225   3.971   0.921   1.201  0.2968  0.2784  0.1419
  199MOL   Cl7024226   3.720   0.780   1.177 -0.0092 -0.2774 -0.0880
  199MOL    C7124227   3.958   0.665   1.115 -0.0452  0.7304  0.3389
  199MOL    H7224228   4.062   0.651   1.145 -0.3396 -0.8604  0.6736
  199MOL    H7324229   3.914   0.567   1.131 -1.1306  1.5564  2.6793
  199MOL    C7424230   3.986   0.692   0.961  0.5557 -0.5002 -0.1802
  199MOL   Cl7524231   4.048   0.540   0.901 -0.1756 -0.1235  0.0171
  199MOL   Cl7624232   4.118   0.822   0.942  0.4880 -0.2084  0.1426
  199MOL    C7724233   3.850   0.728   0.876  0.4455 -0.4243  0.3016
  199MOL    H7824234   3.769   0.661   0.907 -0.4974  0.8052  0.5658
  199MOL    H7924235   3.831   0.831   0.906  3.8051  0.1245  0.6941
  199MOL    C8024236   3.839   0.730   0.717  0.2932 -0.1611  0.7204
  199MOL   Cl8124237   3.871   0.572   0.636  0.2657  0.1052 -0.1159
  199MOL   Cl8224238   3.963   0.840   0.642  0.5335  0.1731 -0.0152
  199MOL    C8324239   3.692   0.765   0.662  0.1676 -0.7452  0.0524
  199MOL    H8424240   3.707   0.779   0.555 -2.0159 -1.4274 -0.3567
  199MOL    H8524241   3.635   0.673   0.662  0.9287 -1.2160 -0.7950
  199MOL    C8624242   3.613   0.889   0.711  0.0232  0.3679  0.2622
  199MOL   Cl8724243   3.714   1.032   0.698 -0.0157  0.1321 -0.0074
  199MOL   Cl8824244   3.558   0.859   0.879 -0.3452 -0.0798  0.4140
  199MOL    C8924245   3.480   0.911   0.644 -0.1585 -1.1603  0.1188
  199MOL    H9024246   3.408   0.841   0.684 -0.8285  0.2382  1.3957
  199MOL    H9124247   3.444   1.009   0.677  1.8528 -0.3021 -0.1403
  199MOL    C9224248   3.461   0.911   0.493 -0.6652  0.3062  0.5969
  199MOL   Cl9324249   3.469   0.747   0.416 -0.1119 -0.3636 -0.1821
  199MOL   Cl9424250   3.581   1.010   0.410 -0.1320  0.0140 -0.1405
  199MOL    C9524251   3.332   0.970   0.437  0.1377 -0.6734  0.8642
  199MOL    H9624252   3.338   1.077   0.455  1.0088 -0.8758  1.8111
  199MOL    H9724253   3.338   0.963   0.329 -0.3392 -1.1654  0.8705
  199MOL    C9824254   3.186   0.940   0.484  0.2259  0.1882 -0.1333
  199MOL   Cl9924255   3.163   0.950   0.660 -0.4302  0.0338  0.1865
  199MOL  Cl10024256   3.156   0.765   0.457 -0.4048  0.5458 -0.2331
  199MOL   C10124257   3.082   1.018   0.397  0.1672 -1.0224  0.7492
  199MOL   H10224258   3.095   0.978   0.296 -0.7483 -3.0093  1.4015
  199MOL   H10324259   2.982   0.983   0.423  0.2749 -0.4855  1.9254
  199MOL   C10424260   3.078   1.170   0.385 -0.7012 -0.8824  0.1691
  199MOL  Cl10524261   3.201   1.213   0.264 -0.3283 -0.4731  0.4498
  199MOL  Cl10624262   3.127   1.228   0.544  0.3428  0.0864  0.0371
  199MOL   C10724263   2.941   1.230   0.354  0.3754  0.7324  0.0357
  199MOL   H10824264   2.933   1.203   0.248  0.9307  0.2589  0.1142
  199MOL   H10924265   2.860   1.170   0.395  0.8422  0.2435  0.2430
  199MOL   C11024266   2.909   1.382   0.358  0.3643  0.1649 -0.0276
  199MOL  Cl11124267   2.873   1.451   0.525  0.2382  0.0455  0.2930
  199MOL  Cl11224268   2.756   1.389   0.264  0.1444 -0.4427  0.4862
  199MOL   C11324269   3.014   1.472   0.286 -0.0226 -0.3436  0.5005
  199MOL   H11424270   3.099   1.474   0.355  1.1601  0.9153 -0.9673
  199MOL   H11524271   3.031   1.415   0.195  2.6414 -0.7071  1.1820
  199MOL   C11624272   2.988   1.622   0.244  0.0116 -0.5413 -0.0203
  199MOL  Cl11724273   3.135   1.677   0.164 -0.4835  0.1230  0.3010
  199MOL  Cl11824274   2.964   1.734   0.388 -0.1855  0.1042 -0.1003
  199MOL   C11924275   2.881   1.646   0.136  0.3843 -0.5603  0.3902
  199MOL   H12024276   2.776   1.632   0.165  0.3050 -1.2398 -0.1991
  199MOL   H12124277   2.890   1.747   0.097 -0.7570 -0.4781  0.3240
  199MOL   H12224278   2.910   1.579   0.054  0.6913 -0.8085  0.7004
  200MOL     C124279   5.995   7.347   5.589 -0.4071 -0.2411 -0.5554
  200MOL    Cl224280   6.018   7.289   5.422 -0.1558 -0.1322 -0.4655
  200MOL    Cl324281   6.120   7.288   5.700  0.0086  0.1716  0.0225
  200MOL     C424282   5.964   7.495   5.572 -0.6600 -0.2107 -0.5892
  200MOL     H524283   6.052   7.539   5.525 -0.1783 -1.5538 -0.9883
  200MOL     H624284   5.885   7.501   5.497  0.9976 -0.9616 -2.4700
  200MOL     H724285   5.900   7.302   5.618  0.3847 -0.3848  1.9768
  200MOL     C824286   5.910   7.583   5.692 -0.1479  0.6984 -0.4179
  200MOL    Cl924287   6.043   7.600   5.805  0.1873  0.0709 -0.3566
  200MOL   Cl1024288   5.781   7.481   5.765 -0.0616 -0.1655 -0.1656
  200MOL    C1124289   5.863   7.727   5.627 -0.2138 -0.1066  0.0332
  200MOL    H1224290   5.956   7.775   5.597  0.3862 -0.8683  0.6497
  200MOL    H1324291   5.820   7.708   5.528 -1.8217 -0.4281  0.7744
  200MOL    C1424292   5.769   7.818   5.706  0.9223 -0.0519 -0.4380
  200MOL   Cl1524293   5.606   7.753   5.707  0.0082  0.3035 -0.5427
  200MOL   Cl1624294   5.750   7.982   5.630 -0.0393  0.1980 -0.4936
  200MOL    C1724295   5.795   7.833   5.856  0.0764 -0.3488 -0.0688
  200MOL    H1824296   5.706   7.856   5.915 -1.2890 -2.6424 -1.1536
  200MOL    H1924297   5.820   7.731   5.887  3.6783 -0.7064 -3.7746
  200MOL    C2024298   5.902   7.933   5.898 -0.4313  0.6795 -0.4906
  200MOL   Cl2124299   5.827   8.097   5.910  0.2517  0.2248 -0.0097
  200MOL   Cl2224300   6.039   7.966   5.788 -0.2437  0.1416  0.1184
  200MOL    C2324301   5.977   7.898   6.025  0.4628  0.9377 -0.1036
  200MOL    H2424302   6.048   7.819   6.001 -0.2023  0.3896 -0.2926
  200MOL    H2524303   6.049   7.977   6.045  1.6916 -0.4579  1.0243
  200MOL    C2624304   5.916   7.845   6.151 -0.3701 -0.0718  0.7138
  200MOL   Cl2724305   5.887   7.668   6.130 -0.2345  0.5336  0.0146
  200MOL   Cl2824306   5.756   7.925   6.181 -0.3240 -0.0338  0.0112
  200MOL    C2924307   6.008   7.876   6.274  0.5932  0.0162  0.8696
  200MOL    H3024308   6.110   7.855   6.239  0.3126 -0.6476  0.4314
  200MOL    H3124309   6.007   7.984   6.288  1.7556  0.0041  1.1391
  200MOL    C3224310   5.992   7.815   6.415 -0.6332 -0.0805 -0.7991
  200MOL   Cl3324311   6.060   7.652   6.408  0.2914  0.1447  0.0177
  200MOL   Cl3424312   5.820   7.798   6.454  0.1991 -0.3298  0.1748
  200MOL    C3524313   6.074   7.887   6.527 -0.2905 -0.1302  0.0168
  200MOL    H3624314   6.051   7.826   6.615  1.3906 -1.7673 -0.6418
  200MOL    H3724315   6.177   7.869   6.498 -0.4517 -0.1380 -0.5530
  200MOL    C3824316   6.051   8.034   6.559 -0.0713  0.6934  0.0672
  200MOL   Cl3924317   5.879   8.086   6.561 -0.0154  0.1284 -0.1540
  200MOL   Cl4024318   6.140   8.128   6.434 -0.0811 -0.2136 -0.1454
  200MOL    C4124319   6.103   8.078   6.705  0.1679  0.2035  0.4042
  200MOL    H4224320   6.094   8.186   6.712 -1.5704 -0.0173  1.9090
  200MOL    H4324321   6.028   8.050   6.779  2.0479 -0.2927  2.1917
  200MOL    C4424322   6.241   8.025   6.748 -0.1689 -0.3540  0.2694
  200MOL   Cl4524323   6.371   8.064   6.630 -0.3820  0.0235  0.2128
  200MOL   Cl4624324   6.240   7.847   6.775  0.1078  0.1922 -0.0108
  200MOL    C4724325   6.287   8.091   6.872 -0.6319 -0.3448 -0.3053
  200MOL    H4824326   6.316   8.189   6.834 -1.1651  0.1491  0.5484
  200MOL    H4924327   6.201   8.124   6.932 -0.3143  0.4026 -0.2579
  200MOL    C5024328   6.397   8.040   6.969 -0.2594 -0.4226  0.5781
  200MOL   Cl5124329   6.340   7.899   7.071  0.6153  0.3010 -0.0096
  200MOL   Cl5224330   6.405   8.173   7.097 -0.0450  0.0167 -0.1935
  200MOL    C5324331   6.532   8.010   6.891 -0.6634 -0.3862 -0.6368
  200MOL    H5424332   6.513   7.937   6.812  2.8952  0.5245 -2.4257
  200MOL    H5524333   6.558   8.109   6.854 -0.6825  0.0189  0.4093
  200MOL    C5624334   6.655   7.960   6.969 -0.3773 -0.6801 -0.1712
  200MOL   Cl5724335   6.648   7.786   6.959  0.0891  0.2470 -0.0983
  200MOL   Cl5824336   6.650   8.008   7.137  0.3685 -0.4643  0.6085
  200MOL    C5924337   6.793   8.015   6.917  0.3546 -0.1389  1.0039
  200MOL    H6024338   6.787   8.123   6.930 -2.3163 -0.1627  0.2171
  200MOL    H6124339   6.870   7.979   6.985  0.0319  1.4917  2.2731
  200MOL    C6224340   6.845   8.003   6.770 -0.4369  0.0306  0.1394
  200MOL   Cl6324341   6.728   8.057   6.657 -0.1919  0.3810 -0.3881
  200MOL   Cl6424342   6.844   7.826   6.735 -0.2242  0.1617 -0.1072
  200MOL    C6524343   6.978   8.064   6.728 -0.4699  0.0939  0.3899
  200MOL    H6624344   7.054   7.990   6.752 -1.5201 -1.5692 -1.3019
  200MOL    H6724345   6.965   8.065   6.620 -2.5812 -2.3669  0.5722
  200MOL    C6824346   7.019   8.206   6.776 -0.1925  0.1937 -0.3529
  200MOL   Cl6924347   7.075   8.189   6.948 -0.0264  0.0952 -0.0197
  200MOL   Cl7024348   6.882   8.312   6.785  0.1135 -0.1873  0.1873
  200MOL    C7124349   7.133   8.278   6.696  0.4224 -0.8409 -0.7763
  200MOL    H7224350   7.193   8.341   6.761 -0.5397 -0.6655 -0.0458
  200MOL    H7324351   7.197   8.195   6.669 -0.7233 -0.9626 -3.2194
  200MOL    C7424352   7.104   8.365   6.570 -0.1426  0.1315  0.3581
  200MOL   Cl7524353   7.077   8.533   6.627  0.2540 -0.5476 -0.1352
  200MOL   Cl7624354   6.963   8.292   6.486  0.3026  0.1781 -0.1900
  200MOL    C7724355   7.228   8.372   6.471 -0.0817 -0.1209 -0.0892
  200MOL    H7824356   7.319   8.377   6.532  0.3598 -0.6187 -0.7032
  200MOL    H7924357   7.236   8.275   6.423 -0.5062 -1.5946  2.7213
  200MOL    C8024358   7.236   8.473   6.357  0.5298  0.8219 -0.6646
  200MOL   Cl8124359   7.274   8.633   6.408  0.3922 -0.6335  0.2478
  200MOL   Cl8224360   7.087   8.473   6.265 -0.1739  0.0965 -0.5113
  200MOL    C8324361   7.333   8.424   6.247 -0.4285  0.0860  0.2093
  200MOL    H8424362   7.287   8.335   6.205  0.1323 -0.0106 -0.1965
  200MOL    H8524363   7.322   8.490   6.161  3.1454 -0.6723 -0.9291
  200MOL    C8624364   7.486   8.406   6.259  0.4485 -0.6347  0.3916
  200MOL   Cl8724365   7.523   8.291   6.397 -0.2676 -0.2281  0.1584
  200MOL   Cl8824366   7.565   8.558   6.306  0.0246  0.2040  0.2522
  200MOL    C8924367   7.562   8.366   6.129  1.0192 -0.5111 -0.4798
  200MOL    H9024368   7.533   8.432   6.047  0.0699 -0.2341  0.0631
  200MOL    H9124369   7.668   8.378   6.149  0.5997  1.4389  0.6530
  200MOL    C9224370   7.561   8.218   6.089  0.4803 -0.0095  0.5927
  200MOL   Cl9324371   7.406   8.140   6.106 -0.0241 -0.5591  0.4292
  200MOL   Cl9424372   7.679   8.124   6.186  0.4174 -0.0502  0.0565
  200MOL    C9524373   7.596   8.198   5.930 -0.1661  0.2738 -0.8038
  200MOL    H9624374   7.596   8.090   5.913 -2.2306  0.5616 -2.8220
  200MOL    H9724375   7.519   8.235   5.863 -0.7034 -0.0159 -0.3544
  200MOL    C9824376   7.720   8.253   5.862  0.0663  0.1629  0.0882
  200MOL   Cl9924377   7.866   8.214   5.954 -0.0123 -0.0368  0.1309
  200MOL  Cl10024378   7.716   8.428   5.863 -0.2119  0.1269 -0.0885
  200MOL   C10124379   7.744   8.204   5.718  0.7617  0.4048 -0.2177
  200MOL   H10224380   7.823   8.271   5.685  0.3345  1.9137  1.7385
  200MOL   H10324381   7.779   8.101   5.716  0.3840  0.2867 -0.9636
  200MOL   C10424382   7.623   8.205   5.611  0.4442  0.9639  0.4842
  200MOL  Cl10524383   7.540   8.367   5.603  0.4264 -0.2775  0.0981
  200MOL  Cl10624384   7.499   8.081   5.651 -0.4497 -0.1976 -0.2975
  200MOL   C10724385   7.652   8.170   5.467  0.7064  0.7336 -0.3306
  200MOL   H10824386   7.675   8.063   5.462 -0.2578  0.5794 -1.5270
  200MOL   H10924387   7.557   8.180   5.415 -1.6993 -0.0584  3.7311
  200MOL   C11024388   7.771   8.231   5.382 -0.4953 -0.2470 -0.5608
  200MOL  Cl11124389   7.922   8.159   5.437  0.1040  0.4633 -0.1842
  200MOL  Cl11224390   7.783   8.401   5.419 -0.0274  0.0242  0.0573
  200MOL   C11324391   7.745   8.219   5.235  0.4536 -0.2898 -0.9268
  200MOL   H11424392   7.667   8.287   5.201  1.9036  2.6388  1.4424
  200MOL   H11524393   7.822   8.275   5.183 -0.9691  2.0330 -0.5800
  200MOL   C11624394   7.733   8.090   5.166 -0.2228  0.2507 -0.3554
  200MOL  Cl11724395   7.725   8.128   4.997 -0.4404 -0.3161  0.6614
  200MOL  Cl11824396   7.591   7.999   5.206 -0.3267  0.2069 -0.1497
  200MOL   C11924397   7.858   7.996   5.171 -0.3135  0.4134 -0.1885
  200MOL   H12024398   7.844   7.908   5.108  2.6710 -0.0850 -0.2171
  200MOL   H12124399   7.955   8.035   5.142 -0.8583  0.9540 -1.3434
  200MOL   H12224400   7.865   7.961   5.274 -0.6177 -0.2505 -0.3846
  201MOL     C124401   3.487   1.466   0.603  0.0272 -0.4147  0.5418
  201MOL    Cl224402   3.367   1.525   0.486 -0.1598 -0.0520 -0.3441
  201MOL    Cl324403   3.453   1.293   0.633 -0.3094 -0.0203  0.3242
  201MOL     C424404   3.626   1.493   0.545  0.3257  0.7142  0.8855
  201MOL     H524405   3.643   1.404   0.485  1.0993  0.0622  2.0409
  201MOL     H624406   3.622   1.575   0.475 -0.5120 -0.1329 -0.0762
  201MOL     H724407   3.468   1.525   0.693 -3.1661 -1.6905  0.7944
  201MOL     C824408   3.751   1.509   0.640 -0.1007  0.3223  0.0132
  201MOL    Cl924409   3.751   1.370   0.745 -0.1672 -0.0422 -0.1760
  201MOL   Cl1024410   3.713   1.668   0.736 -0.0820 -0.3456 -0.3323
  201MOL    C1124411   3.896   1.509   0.580  0.1808 -0.4444  0.8828
  201MOL    H1224412   3.913   1.615   0.560 -1.5983 -0.5046 -1.1294
  201MOL    H1324413   3.968   1.488   0.659  0.4377 -0.1784  0.7169
  201MOL    C1424414   3.922   1.420   0.456  0.6962  0.5396 -0.1209
  201MOL   Cl1524415   3.847   1.482   0.302 -0.2742  0.3726  0.0344
  201MOL   Cl1624416   3.857   1.253   0.478 -0.0999 -0.3192 -0.2083
  201MOL    C1724417   4.080   1.390   0.442  0.2487 -0.1447  0.4464
  201MOL    H1824418   4.115   1.354   0.538 -1.3663 -3.0711 -0.0109
  201MOL    H1924419   4.101   1.310   0.371  0.1908  2.2837 -2.4685
  201MOL    C2024420   4.179   1.504   0.396  0.3938 -0.2340  0.3030
  201MOL   Cl2124421   4.174   1.650   0.504 -0.2414 -0.1857 -0.2565
  201MOL   Cl2224422   4.135   1.563   0.233 -0.2550  0.3898 -0.1510
  201MOL    C2324423   4.324   1.454   0.385 -0.3394 -0.7257  0.5721
  201MOL    H2424424   4.325   1.382   0.304  3.0684 -0.6947  0.5051
  201MOL    H2524425   4.379   1.534   0.336  0.8623 -0.9248  1.5711
  201MOL    C2624426   4.403   1.386   0.507  0.0860 -0.4310 -0.2609
  201MOL   Cl2724427   4.344   1.227   0.572  0.0149  0.2186 -0.1842
  201MOL   Cl2824428   4.412   1.503   0.639  0.2980 -0.0013 -0.1916
  201MOL    C2924429   4.549   1.352   0.467 -0.2437  0.2552 -0.2319
  201MOL    H3024430   4.604   1.445   0.454  0.8910 -0.6124 -1.7505
  201MOL    H3124431   4.588   1.297   0.552  1.4114  2.9880  0.8316
  201MOL    C3224432   4.591   1.279   0.339 -0.1704  0.3390  0.7552
  201MOL   Cl3324433   4.576   1.376   0.185  0.4554 -0.2077  0.3821
  201MOL   Cl3424434   4.484   1.139   0.315  0.2405  0.4839 -0.1480
  201MOL    C3524435   4.730   1.227   0.345 -0.6521  0.1698 -0.4908
  201MOL    H3624436   4.747   1.138   0.407  1.1133 -0.1396 -1.3957
  201MOL    H3724437   4.758   1.184   0.249 -0.9439  1.1471 -1.0175
  201MOL    C3824438   4.849   1.318   0.376 -0.2699  0.3817  0.4773
  201MOL   Cl3924439   4.856   1.387   0.536 -0.1168 -0.0373 -0.5245
  201MOL   Cl4024440   4.850   1.470   0.281  0.4381  0.3282 -0.3120
  201MOL    C4124441   4.999   1.254   0.368  0.3080  0.6459 -0.2437
  201MOL    H4224442   5.063   1.340   0.388 -0.7800  1.0017  1.8531
  201MOL    H4324443   5.016   1.194   0.457 -1.9183  0.0827 -0.1496
  201MOL    C4424444   5.047   1.173   0.247  0.0146 -0.5062  0.0455
  201MOL   Cl4524445   5.015   1.276   0.107 -0.4936 -0.1964 -0.2268
  201MOL   Cl4624446   4.957   1.021   0.234  0.3693 -0.3209  0.1058
  201MOL    C4724447   5.199   1.143   0.256 -0.0134 -0.6722 -0.3112
  201MOL    H4824448   5.248   1.232   0.298 -0.7898  1.9006 -4.5666
  201MOL    H4924449   5.212   1.066   0.331  4.1639  0.4561  0.2741
  201MOL    C5024450   5.278   1.089   0.130 -0.6414 -0.3164 -0.3254
  201MOL   Cl5124451   5.207   0.938   0.062 -0.1999  0.3432 -0.1394
  201MOL   Cl5224452   5.434   1.027   0.186 -0.2611  0.0008 -0.0331
  201MOL    C5324453   5.293   1.181   0.001 -0.2211 -0.4652  0.7833
  201MOL    H5424454   5.318   1.114   9.099 -0.5140  0.2944  0.0667
  201MOL    H5524455   5.199   1.213   9.136  0.6857 -1.1950 -1.6600
  201MOL    C5624456   5.389   1.301   9.178 -0.0158  0.2351  0.3249
  201MOL   Cl5724457   5.557   1.249   0.024 -0.1889 -0.1290 -0.2201
  201MOL   Cl5824458   5.336   1.409   0.126 -0.0917  0.1534  0.1004
  201MOL    C5924459   5.393   1.392   9.056 -0.4869 -0.3643  0.7035
  201MOL    H6024460   5.312   1.464   9.049  1.3216  1.5033 -2.1622
  201MOL    H6124461   5.474   1.464   9.069  0.1214 -0.6328 -1.4433
  201MOL    C6224462   5.427   1.345   8.913 -0.5247 -0.1118 -0.1040
  201MOL   Cl6324463   5.278   1.254   8.856  0.4151 -0.3838  0.2909
  201MOL   Cl6424464   5.561   1.228   8.907  0.4111 -0.0255  0.0046
  201MOL    C6524465   5.463   1.457   8.801 -0.1223  0.5124  0.4896
  201MOL    H6624466   5.565   1.489   8.823 -0.2205  1.3713 -0.2913
  201MOL    H6724467   5.471   1.403   8.706  1.1106 -0.6712  1.2487
  201MOL    C6824468   5.380   1.589   8.793 -0.9922  0.6153 -0.1438
  201MOL   Cl6924469   5.399   1.700   8.929  0.1265 -0.0737 -0.2388
  201MOL   Cl7024470   5.206   1.550   8.790  0.1894  0.3187 -0.2024
  201MOL    C7124471   5.405   1.678   8.666 -0.0695  0.5876 -0.1299
  201MOL    H7224472   5.332   1.651   8.590  1.2308  2.9219 -2.2488
  201MOL    H7324473   5.366   1.778   8.684  0.2458  0.5363  0.8653
  201MOL    C7424474   5.539   1.696   8.588  0.3880 -0.2244  0.9646
  201MOL   Cl7524475   5.610   1.548   8.546 -0.4721 -0.0728 -0.0919
  201MOL   Cl7624476   5.663   1.768   8.698 -0.4159 -0.3844 -0.1644
  201MOL    C7724477   5.521   1.767   8.451  0.2687 -0.0609  0.0702
  201MOL    H7824478   5.622   1.767   8.409  0.3692 -2.3691  0.2193
  201MOL    H7924479   5.456   1.708   8.385  3.3527 -1.0978 -2.1844
  201MOL    C8024480   5.477   1.911   8.435  0.0299 -0.6028 -0.4862
  201MOL   Cl8124481   5.598   2.031   8.510 -0.1215  0.0949 -0.0092
  201MOL   Cl8224482   5.320   1.933   8.506  0.3807  0.1823  0.3586
  201MOL    C8324483   5.461   1.949   8.281  0.0821  0.1011 -0.3479
  201MOL    H8424484   5.370   1.911   8.235 -0.7010 -0.0561  1.2945
  201MOL    H8524485   5.466   2.057   8.295  0.0630  0.2961 -1.8195
  201MOL    C8624486   5.578   1.919   8.183 -0.1200 -0.1408 -0.1216
  201MOL   Cl8724487   5.599   1.743   8.143  0.5061  0.0839 -0.0994
  201MOL   Cl8824488   5.741   1.975   8.232  0.3853 -0.3638 -0.5284
  201MOL    C8924489   5.560   1.989   8.048 -0.0414 -0.1250  0.4136
  201MOL    H9024490   5.584   2.095   8.065 -1.4898  0.4807 -1.2102
  201MOL    H9124491   5.631   1.944   7.979  0.4980 -0.4875  1.1967
  201MOL    C9224492   5.425   1.988   7.971  0.0988 -0.2882 -0.0984
  201MOL   Cl9324493   5.312   2.092   8.060  0.0521  0.2815 -0.0660
  201MOL   Cl9424494   5.354   1.821   7.942 -0.1430 -0.5141 -0.0141
  201MOL    C9524495   5.466   2.039   7.830  0.4373  0.3841  0.2271
  201MOL    H9624496   5.520   2.130   7.854  0.2210 -0.2283  3.2837
  201MOL    H9724497   5.539   1.969   7.788 -0.1306 -1.0883  1.6387
  201MOL    C9824498   5.374   2.061   7.709 -0.0118  0.2902 -0.3650
  201MOL   Cl9924499   5.226   2.153   7.751 -0.1882 -0.2657  0.0814
  201MOL  Cl10024500   5.307   1.906   7.634 -0.1378 -0.7057  0.1774
  201MOL   C10124501   5.446   2.143   7.593 -0.0895  1.2233 -1.1129
  201MOL   H10224502   5.378   2.137   7.507  0.0872 -0.7183 -1.1540
  201MOL   H10324503   5.461   2.245   7.626  0.4574  0.1013  2.2550
  201MOL   C10424504   5.583   2.100   7.530 -0.5192 -0.5218 -0.2477
  201MOL  Cl10524505   5.602   1.923   7.509  0.1480 -0.0416 -0.6408
  201MOL  Cl10624506   5.717   2.153   7.643  0.0060 -0.1782 -0.0454
  201MOL   C10724507   5.619   2.159   7.384  0.4920 -0.4906  0.0635
  201MOL   H10824508   5.717   2.115   7.365 -0.3329 -1.8558 -1.1835
  201MOL   H10924509   5.559   2.114   7.305  1.6078 -1.0151 -0.5005
  201MOL   C11024510   5.595   2.312   7.355 -0.0448 -0.0263 -0.1496
  201MOL  Cl11124511   5.679   2.416   7.469  0.1003  0.3896  0.1420
  201MOL  Cl11224512   5.427   2.357   7.367 -0.7484  0.0033  0.4189
  201MOL   C11324513   5.643   2.355   7.216 -0.3674  0.6048  0.3002
  201MOL   H11424514   5.588   2.291   7.148 -1.4396  0.6555  1.1180
  201MOL   H11524515   5.603   2.455   7.201 -1.0427  0.4022  0.7601
  201MOL   C11624516   5.791   2.355   7.178 -0.1422 -0.0602  0.9293
  201MOL  Cl11724517   5.869   2.507   7.235 -0.4471 -0.0327 -0.1711
  201MOL  Cl11824518   5.811   2.336   6.998 -0.0886  0.1756 -0.2850
  201MOL   C11924519   5.876   2.235   7.224 -0.0577 -1.0502  0.0199
  201MOL   H12024520   5.976   2.247   7.181  0.5443  2.3711  2.2152
  201MOL   H12124521   5.882   2.246   7.332 -0.2342  0.3726 -0.1142
  201MOL   H12224522   5.845   2.136   7.190 -1.9310 -1.3822  2.5463
  202MOL     C124523   6.051   8.998   2.020 -0.4289  0.3386  0.4642
  202MOL    Cl224524   6.094   8.860   1.915 -0.0675  0.1256  0.0490
  202MOL    Cl324525   5.911   8.947   2.104  0.1117 -0.3732  0.0291
  202MOL     C424526   6.160   9.043   2.120 -0.1122  0.6957 -0.2663
  202MOL     H524527   6.116   9.127   2.173 -0.3211  0.1454  0.4292
  202MOL     H624528   6.165   8.961   2.191 -2.0968 -1.7478 -2.8169
  202MOL     H724529   6.020   9.082   1.958 -0.6638  0.1742  0.3588
  202MOL     C824530   6.297   9.081   2.072  0.0546 -0.0343  0.7169
  202MOL    Cl924531   6.280   9.175   1.922 -0.1569 -0.0035 -0.0884
  202MOL   Cl1024532   6.378   8.924   2.032  0.0087 -0.3203  0.5242
  202MOL    C1124533   6.385   9.171   2.167  0.0570 -0.0738  1.2224
  202MOL    H1224534   6.484   0.001   2.123  0.2615  0.8042  1.8737
  202MOL    H1324535   6.340   0.089   2.151  0.2361 -0.2554 -0.5514
  202MOL    C1424536   6.397   9.145   2.313 -0.1340 -0.1065  0.0643
  202MOL   Cl1524537   6.439   8.975   2.353  0.3386  0.3396 -0.4209
  202MOL   Cl1624538   6.246   9.170   2.408 -0.3796  0.1006 -0.6758
  202MOL    C1724539   6.501   0.069   2.366 -0.1515  0.4625  0.6392
  202MOL    H1824540   6.595   0.040   2.320 -0.4335 -1.0854  1.0241
  202MOL    H1924541   6.471   0.163   2.320 -0.2686 -0.4862 -1.2678
  202MOL    C2024542   6.531   0.090   2.517 -0.3168  0.1638  0.2133
  202MOL   Cl2124543   6.395   0.178   2.588 -0.1511 -0.3362 -0.3562
  202MOL   Cl2224544   6.670   0.213   2.519 -0.5802 -0.3513  0.0130
  202MOL    C2324545   6.559   9.139   2.599  0.2923  0.3420  0.5376
  202MOL    H2424546   6.461   9.093   2.610  0.2112 -0.1702 -2.0109
  202MOL    H2524547   6.633   9.073   2.552 -0.2055 -0.0703  0.3300
  202MOL    C2624548   6.627   9.143   2.744  0.0186  0.0012 -0.3231
  202MOL   Cl2724549   6.584   0.115   2.830  0.3167 -0.0066 -0.1850
  202MOL   Cl2824550   6.805   9.158   2.716 -0.2572  0.1526  0.2839
  202MOL    C2924551   6.596   9.024   2.841 -0.0709 -0.2719  0.9384
  202MOL    H3024552   6.662   9.022   2.928  1.2080 -1.6039 -0.0398
  202MOL    H3124553   6.500   9.043   2.889 -0.5326  1.8744 -0.7839
  202MOL    C3224554   6.586   8.880   2.779 -0.0731 -0.2698  0.2129
  202MOL   Cl3324555   6.732   8.847   2.680  0.1253  0.2266 -0.3470
  202MOL   Cl3424556   6.453   8.837   2.675 -0.2315  0.1401  0.3768
  202MOL    C3524557   6.589   8.770   2.888 -0.1139  0.2834 -0.6997
  202MOL    H3624558   6.570   8.676   2.838  2.8602 -0.8342  0.1753
  202MOL    H3724559   6.695   8.748   2.900 -0.7993 -3.1555 -0.5851
  202MOL    C3824560   6.517   8.781   3.018  0.0985 -0.5142 -0.0041
  202MOL   Cl3924561   6.349   8.825   2.984 -0.3154 -0.2989  0.0880
  202MOL   Cl4024562   6.578   8.909   3.124 -0.1194 -0.0460 -0.4253
  202MOL    C4124563   6.498   8.640   3.080  0.8557  0.1358 -0.5482
  202MOL    H4224564   6.415   8.660   3.148  1.1144 -2.5653  0.6180
  202MOL    H4324565   6.453   8.570   3.010 -2.0530  0.1820  1.1912
  202MOL    C4424566   6.600   8.581   3.184  0.1124  0.2297 -0.1507
  202MOL   Cl4524567   6.574   8.662   3.347  0.2941 -0.0731 -0.0311
  202MOL   Cl4624568   6.762   8.629   3.119  0.2294  0.3115  0.1724
  202MOL    C4724569   6.588   8.421   3.190 -0.3109 -0.0692  0.7134
  202MOL    H4824570   6.483   8.393   3.201 -0.0113 -1.6047 -0.0981
  202MOL    H4924571   6.618   8.383   3.093  1.2390  1.3121  0.6237
  202MOL    C5024572   6.647   8.332   3.305  0.2494 -0.5466  0.4079
  202MOL   Cl5124573   6.636   8.162   3.257 -0.2228 -0.2555  0.1323
  202MOL   Cl5224574   6.533   8.347   3.445  0.2571 -0.1585  0.4639
  202MOL    C5324575   6.790   8.369   3.364  0.0529 -0.3288  0.0385
  202MOL    H5424576   6.785   8.477   3.375 -0.0009 -0.2743 -0.5104
  202MOL    H5524577   6.799   8.336   3.468 -1.4861 -0.2469  0.2057
  202MOL    C5624578   6.921   8.326   3.290 -0.1926  0.3227 -0.1409
  202MOL   Cl5724579   6.891   8.337   3.117  0.0623 -0.3186  0.0909
  202MOL   Cl5824580   6.948   8.157   3.343  0.0033 -0.0472 -0.1019
  202MOL    C5924581   7.038   8.424   3.310  0.1476 -0.4902 -0.0053
  202MOL    H6024582   7.107   8.397   3.230 -1.5146 -0.8225 -1.3492
  202MOL    H6124583   7.004   8.524   3.284  0.0472 -0.9716 -1.7783
  202MOL    C6224584   7.110   8.434   3.449 -0.4305  0.0167 -0.7624
  202MOL   Cl6324585   7.003   8.505   3.573  0.2513  0.2502  0.3852
  202MOL   Cl6424586   7.234   8.554   3.419 -0.5083  0.5148 -0.0257
  202MOL    C6524587   7.167   8.298   3.517  0.1673 -0.1249  0.5846
  202MOL    H6624588   7.085   8.239   3.558 -0.2998 -0.1920 -0.4456
  202MOL    H6724589   7.205   8.248   3.428 -0.8990 -0.9360  0.5788
  202MOL    C6824590   7.285   8.281   3.616  0.3844  0.8896  0.4109
  202MOL   Cl6924591   7.270   8.106   3.658 -0.1087  0.3650  0.1633
  202MOL   Cl7024592   7.239   8.370   3.764 -0.2632 -0.7717 -0.2826
  202MOL    C7124593   7.429   8.309   3.565  0.3742 -0.1286  0.2582
  202MOL    H7224594   7.436   8.254   3.471 -1.0286  1.7096 -0.9495
  202MOL    H7324595   7.423   8.410   3.527  1.6092 -0.1888 -0.1161
  202MOL    C7424596   7.560   8.269   3.641 -0.5070  0.0750  0.0607
  202MOL   Cl7524597   7.695   8.347   3.553  0.0202 -0.2652 -0.1360
  202MOL   Cl7624598   7.582   8.089   3.617  0.1666 -0.2990  0.0220
  202MOL    C7724599   7.556   8.322   3.786 -0.2728 -0.1975 -0.3924
  202MOL    H7824600   7.507   8.419   3.794  0.0098 -0.1497  0.7833
  202MOL    H7924601   7.483   8.263   3.841 -1.1216  0.4747 -0.7945
  202MOL    C8024602   7.688   8.336   3.865  0.3081  0.0836  0.5534
  202MOL   Cl8124603   7.801   8.202   3.836 -0.3005 -0.0230 -0.5045
  202MOL   Cl8224604   7.641   8.330   4.035 -0.3079  0.3187 -0.2069
  202MOL    C8324605   7.773   8.466   3.837 -0.1313 -0.2588  0.6421
  202MOL    H8424606   7.851   8.469   3.913  0.3903  0.3000  0.0915
  202MOL    H8524607   7.828   8.452   3.744 -0.9383  0.3652  0.0604
  202MOL    C8624608   7.715   8.613   3.829 -0.0092  0.4879  0.3021
  202MOL   Cl8724609   7.605   8.636   3.969 -0.1416  0.3718  0.1976
  202MOL   Cl8824610   7.605   8.626   3.696 -0.0461  0.1509 -0.0996
  202MOL    C8924611   7.802   8.736   3.840 -0.2510  0.2514  0.0865
  202MOL    H9024612   7.747   8.830   3.845 -1.3920 -0.3621 -0.8842
  202MOL    H9124613   7.852   8.721   3.936  0.7979  0.0523 -0.4753
  202MOL    C9224614   7.924   8.770   3.750 -0.0406 -0.3788 -0.0211
  202MOL   Cl9324615   7.865   8.802   3.583  0.0824  0.3319  0.0706
  202MOL   Cl9424616   8.036   8.627   3.750 -0.1340 -0.2856 -0.1228
  202MOL    C9524617   7.999   8.899   3.793  0.1038 -0.0176  0.5703
  202MOL    H9624618   8.081   8.922   3.725 -0.3761  0.6627  0.2251
  202MOL    H9724619   7.926   8.975   3.766 -1.4389 -1.9435 -0.8709
  202MOL    C9824620   8.053   8.923   3.932  0.4579  0.6492 -0.3339
  202MOL   Cl9924621   8.143   8.780   3.977 -0.2571  0.2594 -0.3374
  202MOL  Cl10024622   7.918   8.933   4.058 -0.3970 -0.0089 -0.6323
  202MOL   C10124623   8.143   9.054   3.946 -0.5307 -0.4951 -0.3260
  202MOL   H10224624   8.192   9.037   4.041 -1.9943  1.3678  0.8005
  202MOL   H10324625   8.218   9.037   3.868 -0.2698  2.4328 -0.7928
  202MOL   C10424626   8.078   0.017   3.963  0.3316  0.0732 -0.0545
  202MOL  Cl10524627   8.006   0.037   4.125 -0.2374  0.2893 -0.7312
  202MOL  Cl10624628   7.949   0.041   3.838  0.1243 -0.2528 -0.4639
  202MOL   C10724629   8.184   0.134   3.933 -0.1654 -0.0981 -0.4975
  202MOL   H10824630   8.235   0.113   3.839 -0.9265  2.5356 -1.5368
  202MOL   H10924631   8.131   0.228   3.916 -0.0929 -0.0807 -0.6293
  202MOL   C11024632   8.292   0.165   4.038  0.2613  0.1131  0.6137
  202MOL  Cl11124633   8.373   0.025   4.109  0.2281  0.5966 -0.0758
  202MOL  Cl11224634   8.209   0.262   4.165 -0.0004 -0.0252 -0.0144
  202MOL   C11324635   8.401   0.252   3.969  0.2161 -0.1740 -0.0558
  202MOL   H11424636   8.469   0.184   3.918  1.0761  0.4885  0.1927
  202MOL   H11524637   8.354   0.313   3.892  2.1909  0.0879 -1.0842
  202MOL   C11624638   8.500   0.338   4.059  0.4909 -0.0021  0.2306
  202MOL  Cl11724639   8.417   0.493   4.100  0.3078  0.2530 -0.6110
  202MOL  Cl11824640   8.644   0.381   3.959 -0.1166  0.1443  0.0925
  202MOL   C11924641   8.559   0.280   4.187 -0.1569 -0.0842 -0.2872
  202MOL   H12024642   8.617   0.355   4.239  0.7751 -0.4966 -0.7282
  202MOL   H12124643   8.485   0.255   4.263 -2.1958  1.4148 -1.7188
  202MOL   H12224644   8.613   0.190   4.159  1.0614  0.1202  1.3793
  203MOL     C124645   8.612   2.432   5.548  0.0758 -0.0628 -0.7332
  203MOL    Cl224646   8.585   2.360   5.385 -0.3386  0.4165 -0.4232
  203MOL    Cl324647   8.785   2.398   5.593 -0.1785  0.0997 -0.0478
  203MOL     C424648   8.562   2.579   5.561 -1.1456 -0.3891 -0.1122
  203MOL     H524649   8.621   2.631   5.637  0.4926 -0.4800 -1.2869
  203MOL     H624650   8.599   2.632   5.474 -1.7817 -0.2538 -0.2943
  203MOL     H724651   8.549   2.376   5.618  0.1192  0.7467 -0.0336
  203MOL     C824652   8.416   2.600   5.588 -0.3275  0.2662 -0.0175
  203MOL    Cl924653   8.392   2.770   5.557 -0.2148  0.1160  0.2312
  203MOL   Cl1024654   8.394   2.571   5.766  0.0031 -0.3177  0.1910
  203MOL    C1124655   8.331   2.516   5.490  0.6806 -0.2406  0.1592
  203MOL    H1224656   8.360   2.550   5.390  0.1561 -2.1130 -0.6567
  203MOL    H1324657   8.359   2.412   5.497  1.5486  0.1294  2.3208
  203MOL    C1424658   8.177   2.528   5.501  0.5337  0.5499 -0.0106
  203MOL   Cl1524659   8.113   2.688   5.527 -0.1348  0.1186  0.7100
  203MOL   Cl1624660   8.140   2.428   5.653  0.2038  0.1137 -0.0708
  203MOL    C1724661   8.086   2.476   5.391  0.3691 -0.4449  0.0604
  203MOL    H1824662   7.984   2.481   5.431  0.5705 -0.2241  0.5556
  203MOL    H1924663   8.106   2.550   5.314  2.4260  0.2666  1.2530
  203MOL    C2024664   8.106   2.344   5.309 -0.8971 -0.0166 -0.1486
  203MOL   Cl2124665   8.097   2.214   5.425 -0.3116 -0.0151  0.0982
  203MOL   Cl2224666   8.269   2.345   5.231 -0.1054  0.0377 -0.4322
  203MOL    C2324667   8.014   2.315   5.194 -0.1414  0.0175  0.6134
  203MOL    H2424668   8.070   2.354   5.109  2.4839 -0.9024  1.8699
  203MOL    H2524669   8.004   2.207   5.195 -2.5341  0.1490 -1.7771
  203MOL    C2624670   7.866   2.373   5.190  0.8798  0.8355 -0.3581
  203MOL   Cl2724671   7.872   2.548   5.194 -0.5703  0.2284 -0.2020
  203MOL   Cl2824672   7.777   2.311   5.340  0.1261  0.3362  0.2100
  203MOL    C2924673   7.787   2.335   5.057 -0.4513 -0.1649  0.4960
  203MOL    H3024674   7.682   2.359   5.076  0.1478  0.1998  3.7205
  203MOL    H3124675   7.821   2.411   4.987 -1.7470  0.6671  0.7374
  203MOL    C3224676   7.783   2.197   4.992 -0.3434 -0.4210  0.3111
  203MOL   Cl3324677   7.743   2.083   5.117 -0.2941  0.1084 -0.0090
  203MOL   Cl3424678   7.950   2.168   4.924  0.0762  0.1104 -0.2200
  203MOL    C3524679   7.685   2.179   4.872  0.1212  0.1092  0.0598
  203MOL    H3624680   7.712   2.083   4.828  1.3552  0.8664 -0.8489
  203MOL    H3724681   7.583   2.160   4.907  0.4403  0.3107  1.1148
  203MOL    C3824682   7.664   2.290   4.761 -0.4733 -0.0652  0.0263
  203MOL   Cl3924683   7.818   2.356   4.709  0.0694  0.4376 -0.1561
  203MOL   Cl4024684   7.573   2.429   4.831 -0.2916  0.0459 -0.1760
  203MOL    C4124685   7.587   2.229   4.639  0.0676 -0.0158  0.0641
  203MOL    H4224686   7.659   2.171   4.581  0.6414  0.3233  0.4355
  203MOL    H4324687   7.516   2.156   4.678  1.6455 -1.7087 -0.1287
  203MOL    C4424688   7.510   2.319   4.536 -0.1195 -0.1909  0.3471
  203MOL   Cl4524689   7.468   2.201   4.409 -0.6343  0.4712  0.3953
  203MOL   Cl4624690   7.621   2.429   4.470  0.1137 -0.1335 -0.0310
  203MOL    C4724691   7.380   2.387   4.598 -0.0673  0.4786 -0.3875
  203MOL    H4824692   7.347   2.324   4.681  1.6768 -0.3249 -0.2888
  203MOL    H4924693   7.417   2.478   4.646 -0.9499 -0.8028  2.8379
  203MOL    C5024694   7.266   2.427   4.505 -0.5368  0.3644 -0.1589
  203MOL   Cl5124695   7.164   2.518   4.609  0.3394  0.1750 -0.3200
  203MOL   Cl5224696   7.175   2.277   4.468 -0.0005 -0.2951 -0.2982
  203MOL    C5324697   7.306   2.513   4.385 -0.0745  0.3169 -0.6595
  203MOL    H5424698   7.334   2.608   4.431 -1.2281 -0.4622  1.7485
  203MOL    H5524699   7.393   2.473   4.335 -0.7224  0.0904 -1.6211
  203MOL    C5624700   7.210   2.543   4.276 -0.1300  0.4116  0.4821
  203MOL   Cl5724701   7.064   2.629   4.329 -0.0716  0.0807  0.0220
  203MOL   Cl5824702   7.144   2.398   4.195  0.2229  0.0881 -0.0146
  203MOL    C5924703   7.266   2.629   4.165 -0.5209  0.0346  0.3990
  203MOL    H6024704   7.188   2.637   4.089  0.0010 -0.9067 -0.2395
  203MOL    H6124705   7.265   2.733   4.198  4.5092 -0.5534  2.8271
  203MOL    C6224706   7.405   2.598   4.104  0.2231 -0.6851 -0.2469
  203MOL   Cl6324707   7.434   2.425   4.076 -0.0523 -0.0949  0.4651
  203MOL   Cl6424708   7.530   2.662   4.217  0.2181 -0.0263  0.1309
  203MOL    C6524709   7.437   2.675   3.970  0.3577 -0.1765  0.5481
  203MOL    H6624710   7.389   2.773   3.981 -0.5950 -0.8363  2.4862
  203MOL    H6724711   7.543   2.692   3.951  0.5505 -1.7987  0.0867
  203MOL    C6824712   7.385   2.630   3.835  0.1919 -0.0496  0.0114
  203MOL   Cl6924713   7.433   2.767   3.732  0.1209 -0.0800  0.2023
  203MOL   Cl7024714   7.210   2.627   3.831  0.4503 -0.0941  0.1116
  203MOL    C7124715   7.452   2.495   3.787 -0.0972  0.0296  0.2916
  203MOL    H7224716   7.546   2.480   3.840  0.7296  0.7366 -0.9590
  203MOL    H7324717   7.387   2.410   3.807  1.6179 -2.0260 -2.5498
  203MOL    C7424718   7.506   2.477   3.645  0.6154 -0.3296 -0.2308
  203MOL   Cl7524719   7.553   2.308   3.642 -0.0787 -0.3447 -0.2669
  203MOL   Cl7624720   7.651   2.578   3.622 -0.1375  0.6529 -0.7188
  203MOL    C7724721   7.394   2.498   3.537 -0.0726 -0.1833  0.6789
  203MOL    H7824722   7.319   2.419   3.543 -1.2622  0.4508 -3.9761
  203MOL    H7924723   7.340   2.590   3.563  0.7190 -0.8914  5.3184
  203MOL    C8024724   7.427   2.503   3.385  0.0118 -0.0361 -1.2514
  203MOL   Cl8124725   7.506   2.659   3.350 -0.1839 -0.0624  0.2782
  203MOL   Cl8224726   7.268   2.508   3.308  0.0338  0.3074  0.2630
  203MOL    C8324727   7.515   2.382   3.333 -0.4769 -0.1591  0.2510
  203MOL    H8424728   7.615   2.389   3.377  0.1337 -0.1144 -1.1352
  203MOL    H8524729   7.479   2.297   3.392 -0.8126 -0.0467  0.2071
  203MOL    C8624730   7.508   2.337   3.187 -0.5881  0.6710 -0.1220
  203MOL   Cl8724731   7.542   2.479   3.085  0.2691 -0.0724 -0.0605
  203MOL   Cl8824732   7.352   2.270   3.144 -0.2275  0.2253  0.1345
  203MOL    C8924733   7.616   2.230   3.142  0.5839 -0.5730 -0.3498
  203MOL    H9024734   7.600   2.214   3.035 -0.8477 -0.4943 -0.1532
  203MOL    H9124735   7.707   2.289   3.150  1.2442 -1.7695  1.2358
  203MOL    C9224736   7.643   2.094   3.212  0.2292  0.0081  0.2472
  203MOL   Cl9324737   7.486   2.007   3.236 -0.6201  0.1015 -0.1695
  203MOL   Cl9424738   7.713   2.129   3.372  0.1187 -0.0225 -0.1849
  203MOL    C9524739   7.737   1.998   3.135 -0.7638  0.1587 -0.6660
  203MOL    H9624740   7.745   1.906   3.194  0.3571 -1.3127 -3.0302
  203MOL    H9724741   7.684   1.968   3.044  0.9928 -2.6501 -0.8183
  203MOL    C9824742   7.878   2.031   3.085 -0.9659 -0.5213  0.5671
  203MOL   Cl9924743   7.961   2.123   3.208 -0.2158 -0.0318  0.6110
  203MOL  Cl10024744   7.886   2.149   2.951 -0.1234  0.1149 -0.1337
  203MOL   C10124745   7.971   1.904   3.042 -0.4810 -0.1851  0.5680
  203MOL   H10224746   8.061   1.953   3.004 -0.9162 -0.4775 -0.8628
  203MOL   H10324747   7.994   1.846   3.131 -2.4329 -0.3939  0.9449
  203MOL   C10424748   7.931   1.812   2.926  0.2787 -0.6747  0.6704
  203MOL  Cl10524749   7.774   1.730   2.968 -0.3569 -0.1526  0.3347
  203MOL  Cl10624750   8.040   1.675   2.953 -0.3271 -0.3933 -0.0029
  203MOL   C10724751   7.942   1.863   2.774  0.0825 -0.3739 -0.0013
  203MOL   H10824752   7.899   1.962   2.787 -0.9803 -0.6768 -1.1777
  203MOL   H10924753   8.044   1.887   2.745  0.5416 -2.9673 -0.6475
  203MOL   C11024754   7.873   1.790   2.660  0.1138  0.0659  0.4764
  203MOL  Cl11124755   7.933   1.617   2.654  0.3485  0.4196 -0.2051
  203MOL  Cl11224756   7.944   1.867   2.511  0.1621  0.0194 -0.0614
  203MOL   C11324757   7.721   1.789   2.637  0.3560  0.1691 -0.4958
  203MOL   H11424758   7.702   1.729   2.548  0.4129 -0.0804 -0.3400
  203MOL   H11524759   7.687   1.726   2.720 -1.3159 -1.1577 -2.1273
  203MOL   C11624760   7.631   1.907   2.626  0.3965  0.5170 -1.0828
  203MOL  Cl11724761   7.648   1.985   2.465  0.0969  0.3635 -0.2163
  203MOL  Cl11824762   7.653   2.022   2.758  0.0920  0.4856 -0.0529
  203MOL   C11924763   7.479   1.861   2.637 -0.8812 -0.4371 -0.3870
  203MOL   H12024764   7.454   1.807   2.729 -2.0823  0.3323 -0.2524
  203MOL   H12124765   7.427   1.956   2.648  0.8472  0.2092  2.8142
  203MOL   H12224766   7.451   1.795   2.554 -1.0649  1.5856 -1.9617
  204MOL     C124767   5.541   4.281   0.517 -0.2880  0.5202 -0.6508
  204MOL    Cl224768   5.623   4.279   0.677 -0.1330 -0.1318 -0.5427
  204MOL    Cl324769   5.379   4.208   0.532  0.0885  0.4072 -0.1777
  204MOL     C424770   5.527   4.419   0.453  0.2987  0.0682 -0.3277
  204MOL     H524771   5.446   4.415   0.380 -0.9607 -1.5870  1.1137
  204MOL     H624772   5.485   4.488   0.526 -0.8367 -1.5372  0.5711
  204MOL     H724773   5.592   4.217   0.445 -0.3307  0.7515 -0.8867
  204MOL     C824774   5.651   4.466   0.371 -0.2432 -0.1834 -0.0138
  204MOL    Cl924775   5.681   4.362   0.224 -0.0706 -0.1948 -0.3573
  204MOL   Cl1024776   5.793   4.459   0.473 -0.2406  0.0421  0.1058
  204MOL    C1124777   5.648   4.621   0.338 -0.3486  0.2300  0.5677
  204MOL    H1224778   5.673   4.682   0.425  1.0276 -1.0757  1.1159
  204MOL    H1324779   5.727   4.638   0.264  1.1129 -0.3973  1.9370
  204MOL    C1424780   5.539   4.688   0.254  0.3557 -0.0445  0.4625
  204MOL   Cl1524781   5.412   4.708   0.371 -0.2891 -0.2029  0.1497
  204MOL   Cl1624782   5.478   4.583   0.122 -0.5370 -0.2911  0.3636
  204MOL    C1724783   5.584   4.825   0.188  0.4942 -0.2352  0.4988
  204MOL    H1824784   5.641   4.803   0.097 -0.3904 -0.8086  0.0756
  204MOL    H1924785   5.496   4.878   0.150  0.7315 -0.6133 -0.6156
  204MOL    C2024786   5.655   4.938   0.270  0.1452  0.6542  0.6432
  204MOL   Cl2124787   5.826   4.900   0.307 -0.1635  0.0411  0.1823
  204MOL   Cl2224788   5.566   4.977   0.424  0.1638  0.0331  0.3187
  204MOL    C2324789   5.666   5.076   0.198 -0.2300 -0.3145 -0.2704
  204MOL    H2424790   5.567   5.122   0.198 -0.3050 -0.4668 -1.3877
  204MOL    H2524791   5.714   5.143   0.270 -2.9939  1.9172 -0.4289
  204MOL    C2624792   5.715   5.091   0.055 -0.2721 -0.0544 -0.8973
  204MOL   Cl2724793   5.589   5.043   9.123 -0.0067  0.3437 -0.1690
  204MOL   Cl2824794   5.846   4.981   0.017 -0.1388 -0.0065  0.0484
  204MOL    C2924795   5.774   5.233   0.040  0.1751  0.2919 -1.3548
  204MOL    H3024796   5.836   5.239   0.129  0.9194  0.4446 -1.8781
  204MOL    H3124797   5.850   5.236   9.142  0.8523 -0.6089 -0.7486
  204MOL    C3224798   5.706   5.368   0.039  0.6744 -1.1462  0.0262
  204MOL   Cl3324799   5.611   5.394   0.188  0.0756  0.2819  0.5339
  204MOL   Cl3424800   5.597   5.374   9.076 -0.0333  0.0118 -0.3412
  204MOL    C3524801   5.796   5.498   0.024 -0.6342  0.8534 -0.1356
  204MOL    H3624802   5.847   5.509   9.108 -1.8169  1.1604 -0.7336
  204MOL    H3724803   5.721   5.576   0.038 -1.5022 -0.0165  0.1061
  204MOL    C3824804   5.925   5.517   0.113  0.4279  0.3755 -0.9792
  204MOL   Cl3924805   5.994   5.677   0.081 -0.1697 -0.0104 -0.0584
  204MOL   Cl4024806   6.063   5.409   0.067 -0.1796 -0.3333  0.1747
  204MOL    C4124807   5.887   5.496   0.264 -0.2996 -0.2814 -0.5955
  204MOL    H4224808   5.792   5.547   0.280 -1.0871 -1.2320 -2.1991
  204MOL    H4324809   5.859   5.392   0.274 -2.4904  0.0990 -2.3598
  204MOL    C4424810   5.970   5.539   0.391  0.5172  0.5939  0.3535
  204MOL   Cl4524811   5.972   5.717   0.400  0.0169 -0.0013  0.1463
  204MOL   Cl4624812   6.141   5.499   0.370 -0.2305 -0.5377 -0.6189
  204MOL    C4724813   5.919   5.495   0.530  0.1440 -0.4420  0.5279
  204MOL    H4824814   5.981   5.540   0.607  1.6041  2.7054 -2.3378
  204MOL    H4924815   5.823   5.543   0.551  0.5102  0.6587 -0.2427
  204MOL    C5024816   5.885   5.342   0.568  0.5152  0.0274 -0.0932
  204MOL   Cl5124817   6.022   5.243   0.516 -0.3108 -0.2013 -0.4531
  204MOL   Cl5224818   5.740   5.284   0.486  0.0998  0.1462  0.0011
  204MOL    C5324819   5.877   5.322   0.728 -0.1515 -0.1502 -0.0567
  204MOL    H5424820   5.863   5.215   0.741 -1.2113  0.2344  2.0737
  204MOL    H5524821   5.973   5.344   0.772  0.3019  1.4586 -1.7784
  204MOL    C5624822   5.764   5.382   0.815 -0.1063  0.0697  0.5101
  204MOL   Cl5724823   5.782   5.562   0.840  0.2703 -0.4104 -0.3935
  204MOL   Cl5824824   5.810   5.324   0.976 -0.2206  0.1244 -0.3836
  204MOL    C5924825   5.620   5.353   0.763  0.3731 -0.4572  0.0717
  204MOL    H6024826   5.607   5.417   0.675  1.4247  0.7050  0.7601
  204MOL    H6124827   5.620   5.252   0.723 -0.0500  0.7974 -3.2742
  204MOL    C6224828   5.493   5.369   0.850  0.1054 -0.2187  0.0822
  204MOL   Cl6324829   5.479   5.220   0.937  0.1137  0.2419  0.4891
  204MOL   Cl6424830   5.359   5.360   0.736  0.2024  0.4140  0.3679
  204MOL    C6524831   5.482   5.496   0.940  0.4588  0.0643 -0.6554
  204MOL    H6624832   5.567   5.482   1.007  2.5273  1.9012 -2.8010
  204MOL    H6724833   5.518   5.584   0.886 -0.7783  2.5144  2.3286
  204MOL    C6824834   5.352   5.550   1.009  0.3278  0.0557 -0.4584
  204MOL   Cl6924835   5.265   5.646   0.885 -0.1027  0.0658 -0.2514
  204MOL   Cl7024836   5.406   5.670   1.127 -0.0048  0.0207  0.1064
  204MOL    C7124837   5.262   5.441   1.073  0.3829 -0.5240 -0.2100
  204MOL    H7224838   5.203   5.400   0.991  1.9490  0.1270 -1.6829
  204MOL    H7324839   5.329   5.364   1.112 -1.3485 -0.7246  2.5524
  204MOL    C7424840   5.157   5.459   1.186 -0.7133  0.2755  0.1789
  204MOL   Cl7524841   5.066   5.606   1.150 -0.1976  0.4329 -0.1876
  204MOL   Cl7624842   5.251   5.490   1.339 -0.2008  0.0581  0.0514
  204MOL    C7724843   5.056   5.342   1.219  0.3493  0.3167 -0.4228
  204MOL    H7824844   5.015   5.366   1.317  2.9299  0.1446  0.7482
  204MOL    H7924845   4.980   5.348   1.142  0.2359 -0.1434 -0.3433
  204MOL    C8024846   5.099   5.193   1.226  0.7568  0.7448  0.6385
  204MOL   Cl8124847   5.224   5.169   1.355  0.0436  0.1807  0.2077
  204MOL   Cl8224848   5.171   5.149   1.071 -0.3049 -0.0884  0.2677
  204MOL    C8324849   4.980   5.099   1.255 -0.0785 -0.8688  0.0769
  204MOL    H8424850   5.012   4.996   1.234 -0.9297 -0.8298 -1.4916
  204MOL    H8524851   4.965   5.090   1.363 -0.6535  1.9218  0.2607
  204MOL    C8624852   4.836   5.112   1.186 -0.5560  0.0530 -0.4663
  204MOL   Cl8724853   4.852   5.159   1.014 -0.4073 -0.5761  0.2996
  204MOL   Cl8824854   4.748   5.239   1.271 -0.2013  0.3961  0.3074
  204MOL    C8924855   4.753   4.984   1.206  0.7106 -0.0836  0.5963
  204MOL    H9024856   4.819   4.901   1.178 -0.3267  0.3644 -3.5057
  204MOL    H9124857   4.737   4.962   1.311  0.6220  1.5970  0.9447
  204MOL    C9224858   4.612   4.962   1.140 -0.9378 -0.7002  0.2377
  204MOL   Cl9324859   4.501   5.090   1.183  0.1925  0.2192 -0.5060
  204MOL   Cl9424860   4.561   4.793   1.203 -0.0198 -0.6279 -0.1991
  204MOL    C9524861   4.620   4.949   0.984 -0.4879 -0.7191  0.0965
  204MOL    H9624862   4.621   5.053   0.951 -2.3505 -0.3736  1.0689
  204MOL    H9724863   4.714   4.896   0.968 -0.4465 -0.9133  0.9465
  204MOL    C9824864   4.507   4.883   0.898  0.0828  0.0599  0.7706
  204MOL   Cl9924865   4.344   4.901   0.962 -0.1914 -0.2885  0.7267
  204MOL  Cl10024866   4.537   4.703   0.899 -0.5345 -0.6945  0.1560
  204MOL   C10124867   4.503   4.928   0.748  0.0198  0.1403 -0.2354
  204MOL   H10224868   4.579   4.875   0.691 -1.8090 -1.1844 -1.4940
  204MOL   H10324869   4.410   4.891   0.705  0.6337 -1.1639 -0.4635
  204MOL   C10424870   4.500   5.077   0.703 -0.2039 -0.0616  0.9910
  204MOL  Cl10524871   4.670   5.131   0.711  0.2648  0.3452 -0.4974
  204MOL  Cl10624872   4.402   5.177   0.826 -0.4769 -0.1176  0.2680
  204MOL   C10724873   4.427   5.109   0.571 -0.1707 -0.1592  0.3145
  204MOL   H10824874   4.333   5.056   0.583  0.1116 -0.4981  1.0921
  204MOL   H10924875   4.396   5.213   0.567  1.4972  0.3686  0.6599
  204MOL   C11024876   4.498   5.073   0.435  0.2497  0.1883  0.4111
  204MOL  Cl11124877   4.539   4.895   0.423 -0.0186  0.2278  0.1001
  204MOL  Cl11224878   4.643   5.170   0.406 -0.2727 -0.0706  0.3921
  204MOL   C11324879   4.407   5.082   0.308 -0.1397  0.0138 -0.1984
  204MOL   H11424880   4.466   5.055   0.221  0.4798  2.6592 -0.6610
  204MOL   H11524881   4.330   5.005   0.312 -1.0684  0.7850 -2.2711
  204MOL   C11624882   4.320   5.211   0.277  0.3896 -0.2165 -0.9086
  204MOL  Cl11724883   4.198   5.232   0.405 -0.0173  0.0706 -0.1916
  204MOL  Cl11824884   4.240   5.170   0.122  0.0348  0.0853 -0.5133
  204MOL   C11924885   4.391   5.342   0.262 -0.0781 -0.0380 -0.2745
  204MOL   H12024886   4.477   5.328   0.196  1.0807 -0.4879  1.3278
  204MOL   H12124887   4.322   5.413   0.216  0.3811 -1.6389 -3.5972
  204MOL   H12224888   4.414   5.384   0.359  0.0355 -1.3484  0.2830
  205MOL     C124889   9.082   6.476   7.329 -0.0822  0.0452  0.1990
  205MOL    Cl224890   9.095   6.571   7.475 -0.0117  0.1845  0.3787
  205MOL    Cl324891   9.130   6.585   7.195  0.1569 -0.1103 -0.1325
  205MOL     C424892   0.001   6.361   7.332  0.6820 -0.0372 -0.1240
  205MOL     H524893   0.019   6.325   7.231  2.1112 -1.2009  0.5057
  205MOL     H624894   0.103   6.393   7.354 -0.3618  1.3834  2.9429
  205MOL     H724895   8.977   6.449   7.325 -0.2957  0.8215  0.4930
  205MOL     C824896   9.140   6.240   7.417 -0.4333 -0.2613 -0.6023
  205MOL    Cl924897   0.099   6.133   7.393  0.0310  0.2634 -0.0956
  205MOL   Cl1024898   8.995   6.152   7.344  0.0011  0.0868 -0.0665
  205MOL    C1124899   9.141   6.266   7.575 -0.4373 -0.0419 -0.5494
  205MOL    H1224900   0.005   6.176   7.617  1.3986  0.4429 -1.4103
  205MOL    H1324901   0.031   6.349   7.584  1.2111 -1.2520 -1.8967
  205MOL    C1424902   9.011   6.285   7.659  0.3801  0.0596  0.2184
  205MOL   Cl1524903   8.965   6.114   7.690 -0.0871 -0.4287 -0.0354
  205MOL   Cl1624904   8.878   6.360   7.570 -0.0344 -0.4003 -0.3840
  205MOL    C1724905   9.051   6.367   7.793  0.0732  0.9750 -0.0099
  205MOL    H1824906   9.117   6.311   7.859  1.0045  1.4027 -0.5785
  205MOL    H1924907   9.129   6.442   7.777 -0.6665  1.9082  0.6261
  205MOL    C2024908   8.944   6.435   7.884 -0.0801  0.2620  0.1609
  205MOL   Cl2124909   8.845   6.552   7.799  0.2271  0.1547  0.2267
  205MOL   Cl2224910   9.036   6.519   8.015  0.3187  0.1320  0.1276
  205MOL    C2324911   8.856   6.322   7.947  0.1198  0.5171 -0.3430
  205MOL    H2424912   8.830   6.255   7.864 -0.6646 -0.2721  0.5245
  205MOL    H2524913   8.917   6.260   8.013 -0.4123 -0.1680 -0.4927
  205MOL    C2624914   8.727   6.353   8.026 -0.3018  0.7169 -1.0112
  205MOL   Cl2724915   8.707   6.206   8.124  0.0022  0.0758  0.3567
  205MOL   Cl2824916   8.595   6.366   7.909 -0.0554  0.0795 -0.2892
  205MOL    C2924917   8.732   6.473   8.127  0.6222 -0.3668  0.3245
  205MOL    H3024918   8.817   6.456   8.192  1.4341 -2.0516 -1.1381
  205MOL    H3124919   8.752   6.553   8.055  2.4364 -0.3687  0.8016
  205MOL    C3224920   8.611   6.511   8.214  0.0276  0.7161 -0.4635
  205MOL   Cl3324921   8.673   6.660   8.295 -0.1783 -0.0187  0.5527
  205MOL   Cl3424922   8.579   6.394   8.342  0.1261 -0.2129  0.0141
  205MOL    C3524923   8.483   6.551   8.132 -0.0110 -0.0118 -0.1498
  205MOL    H3624924   8.517   6.611   8.048 -0.2427  0.8467  0.3587
  205MOL    H3724925   8.426   6.464   8.102 -1.0449  1.1376 -1.6148
  205MOL    C3824926   8.374   6.637   8.200  0.5416 -0.6203 -0.1824
  205MOL   Cl3924927   8.238   6.639   8.093 -0.1542 -0.2877 -0.3333
  205MOL   Cl4024928   8.420   6.811   8.214 -0.1316  0.2075  0.3939
  205MOL    C4124929   8.329   6.582   8.340 -0.0633  0.2708 -0.6556
  205MOL    H4224930   8.314   6.475   8.327  0.2171  0.0423  0.8577
  205MOL    H4324931   8.416   6.590   8.406 -0.0703 -1.4678 -0.4150
  205MOL    C4424932   8.199   6.626   8.418  0.6691  0.1677  0.3725
  205MOL   Cl4524933   8.202   6.548   8.579  0.1518  0.2349  0.2950
  205MOL   Cl4624934   8.053   6.559   8.321 -0.0314 -0.1109 -0.0386
  205MOL    C4724935   8.187   6.776   8.438 -0.1204 -0.3268  0.3186
  205MOL    H4824936   8.280   6.811   8.484  2.1065  0.0304 -4.1840
  205MOL    H4924937   8.194   6.826   8.342  0.1397  1.5818  1.3091
  205MOL    C5024938   8.066   6.847   8.505 -0.3624 -0.9809  0.0939
  205MOL   Cl5124939   8.100   7.018   8.484 -0.0114  0.0573 -0.0819
  205MOL   Cl5224940   8.073   6.829   8.681 -0.1691 -0.2273 -0.0764
  205MOL    C5324941   7.921   6.800   8.449  0.4328 -0.4747 -0.6900
  205MOL    H5424942   7.932   6.800   8.341 -0.3818  0.4312 -0.7769
  205MOL    H5524943   7.905   6.697   8.481 -0.3382 -0.9559 -2.5439
  205MOL    C5624944   7.790   6.871   8.482 -0.8461  0.7617 -0.0577
  205MOL   Cl5724945   7.677   6.781   8.381 -0.0546 -0.3774 -0.3767
  205MOL   Cl5824946   7.796   7.036   8.420  0.2275  0.0544  0.0089
  205MOL    C5924947   7.752   6.868   8.637  0.4607  0.0902 -0.1443
  205MOL    H6024948   7.793   6.775   8.677  0.1777  0.1632  0.3149
  205MOL    H6124949   7.805   6.950   8.685 -0.9888  0.7291  0.4091
  205MOL    C6224950   7.607   6.867   8.686 -0.1631 -0.0471  0.9284
  205MOL   Cl6324951   7.531   6.713   8.656 -0.0664  0.2761 -0.2753
  205MOL   Cl6424952   7.506   6.992   8.608 -0.0204  0.2101 -0.2758
  205MOL    C6524953   7.592   6.888   8.836 -0.4699 -0.5616 -0.1767
  205MOL    H6624954   7.488   6.901   8.865  0.2211  1.4165  1.5849
  205MOL    H6724955   7.617   6.793   8.883  0.0619  0.7766  2.2969
  205MOL    C6824956   7.657   7.017   8.913 -0.4537  0.1192 -0.0773
  205MOL   Cl6924957   7.830   6.999   8.943 -0.1526 -0.5588  0.1137
  205MOL   Cl7024958   7.590   7.029   9.078 -0.2203 -0.1629  0.2544
  205MOL    C7124959   7.621   7.158   8.836 -0.9205 -0.4061 -0.2035
  205MOL    H7224960   7.667   7.142   8.738 -0.9174 -0.2264 -0.2317
  205MOL    H7324961   7.514   7.175   8.825 -0.8994  2.7499  3.4644
  205MOL    C7424962   7.668   7.302   8.876  0.1469  0.4627 -0.0734
  205MOL   Cl7524963   7.587   7.410   8.758  0.2327  0.2370 -0.0369
  205MOL   Cl7624964   7.843   7.319   8.841 -0.0460  0.1207 -0.2359
  205MOL    C7724965   7.633   7.349   9.016 -0.2054  0.3601  0.4746
  205MOL    H7824966   7.535   7.304   9.032 -1.0388  1.6625 -0.7908
  205MOL    H7924967   7.704   7.305   9.085  0.0051  1.6952  1.1181
  205MOL    C8024968   7.624   7.496   9.051  0.7567  0.4984  0.3200
  205MOL   Cl8124969   7.609   7.516   0.045  0.0319 -0.2042 -0.0624
  205MOL   Cl8224970   7.459   7.560   8.988 -0.2130 -0.2165 -0.1015
  205MOL    C8324971   7.744   7.590   9.006  0.2298  0.0683 -0.5966
  205MOL    H8424972   7.837   7.543   9.036 -0.2900  1.2067  3.0617
  205MOL    H8524973   7.752   7.578   8.898  0.2370  1.1727 -0.7292
  205MOL    C8624974   7.751   7.742   9.039 -0.0273 -0.5516  0.0243
  205MOL   Cl8724975   7.854   7.779   0.003 -0.2459  0.0779  0.5439
  205MOL   Cl8824976   7.597   7.825   9.078 -0.2543 -0.3416  0.2981
  205MOL    C8924977   7.819   7.822   8.925  0.4352  0.1304  0.6640
  205MOL    H9024978   7.769   7.793   8.833 -1.8163  4.9493  0.2213
  205MOL    H9124979   7.785   7.925   8.917  0.7256  0.1417 -0.4703
  205MOL    C9224980   7.971   7.818   8.898 -0.0309 -0.1060  0.6265
  205MOL   Cl9324981   7.988   7.847   8.724 -0.0552  0.3087  0.2093
  205MOL   Cl9424982   8.043   7.663   8.928 -0.0655 -0.3071 -0.2167
  205MOL    C9524983   8.046   7.939   8.967  0.4254 -0.0809  0.2423
  205MOL    H9624984   8.025   8.032   8.913  1.5443 -0.0655 -0.1947
  205MOL    H9724985   8.017   7.946   9.071  0.5028 -0.0362  0.2600
  205MOL    C9824986   8.200   7.939   8.993 -0.3433 -0.2549  0.4729
  205MOL   Cl9924987   8.236   8.118   9.005  0.3281 -0.2842 -0.1383
  205MOL  Cl10024988   8.299   7.871   8.860  0.1679 -0.0834  0.2127
  205MOL   C10124989   8.244   7.873   9.122  0.1274 -0.3581 -0.7032
  205MOL   H10224990   8.205   7.922   0.030  1.4804  1.8467 -1.2679
  205MOL   H10324991   8.196   7.776   9.122 -0.0842 -0.2578  0.3247
  205MOL   C10424992   8.397   7.836   9.156 -0.1492 -0.1483 -0.6844
  205MOL  Cl10524993   8.458   7.690   9.063  0.2735 -0.0628  0.0989
  205MOL  Cl10624994   8.383   7.791   0.145  0.0249  0.2644  0.0327
  205MOL   C10724995   8.487   7.962   9.131 -0.3919 -0.8483  0.2313
  205MOL   H10824996   8.486   8.004   9.031 -1.5123  3.0993  1.7911
  205MOL   H10924997   8.429   8.044   9.176  1.6785  0.1134  1.2456
  205MOL   C11024998   8.629   7.977   0.008 -0.4886  0.4840  0.5861
  205MOL  Cl11124999   8.724   7.833   9.171 -0.2473 -0.1139  0.1912
  205MOL  Cl11225000   8.611   8.005   0.182  0.0989 -0.0050 -0.1081
  205MOL   C11325001   8.699   8.085   9.097 -0.0424  0.1482  0.3249
  205MOL   H11425002   8.720   8.039   9.001  1.4683  0.5453  0.4575
  205MOL   H11525003   8.627   8.163   9.069  3.4989  3.1912 -0.6982
  205MOL   C11625004   8.827   8.166   9.157  0.3445 -0.2490  0.4860
  205MOL  Cl11725005   8.764   8.276   0.098  0.2781  0.4282 -0.7948
  205MOL  Cl11825006   8.903   8.256   9.029 -0.4113  0.1837 -0.4439
  205MOL   C11925007   8.952   8.103   0.048  0.1485  0.0823  0.0475
  205MOL   H12025008   9.021   8.180   0.083  0.4827 -0.0667 -0.2876
  205MOL   H12125009   8.922   8.041   0.133  1.5794 -0.9232 -0.1565
  205MOL   H12225010   9.011   8.040   9.162  1.1606  1.8322 -0.7299
  206MOL     C125011   9.061   4.898   8.211  0.1851 -0.3244  0.1878
  206MOL    Cl225012   8.983   4.749   8.142  0.1027 -0.2362 -0.1520
  206MOL    Cl325013   9.017   5.046   8.114 -0.1749 -0.1552  0.0573
  206MOL     C425014   9.016   4.920   8.357  0.1909  0.2268 -0.9037
  206MOL     H525015   9.045   5.021   8.388 -2.4111  0.8127 -0.2212
  206MOL     H625016   8.907   4.918   8.355  0.1997 -1.4704 -0.1594
  206MOL     H725017   9.167   4.880   8.193  0.1878  0.5254 -0.6771
  206MOL     C825018   9.054   4.820   8.463  0.2361  0.6993  0.3713
  206MOL    Cl925019   0.051   4.794   8.445 -0.2749 -0.2468 -0.5544
  206MOL   Cl1025020   8.986   4.662   8.433  0.2071 -0.1546 -0.0516
  206MOL    C1125021   9.036   4.851   8.613 -0.0461  0.2444 -0.4613
  206MOL    H1225022   9.045   4.760   8.672 -0.2245 -0.2236 -1.1514
  206MOL    H1325023   9.119   4.916   8.642 -0.2465 -0.3662  1.5415
  206MOL    C1425024   8.898   4.910   8.657  0.3513  0.2439 -0.7168
  206MOL   Cl1525025   8.767   4.824   8.581 -0.2190  0.0455 -0.1095
  206MOL   Cl1625026   8.877   5.082   8.617  0.1608  0.0070  0.3108
  206MOL    C1725027   8.872   4.888   8.813  0.3533  0.2787  0.2449
  206MOL    H1825028   8.782   4.944   8.834  0.6157  1.0029 -0.5246
  206MOL    H1925029   8.840   4.784   8.819 -0.1058  0.4450  0.6907
  206MOL    C2025030   8.979   4.909   8.921  0.1946  0.2262  0.8728
  206MOL   Cl2125031   9.096   5.042   8.878  0.3988  0.1493 -0.3877
  206MOL   Cl2225032   9.071   4.763   8.944 -0.1125  0.0491 -0.1769
  206MOL    C2325033   8.914   4.950   9.058  0.2956  0.1528 -0.5505
  206MOL    H2425034   8.836   5.020   9.031  0.7921  0.8955 -0.0717
  206MOL    H2525035   8.862   4.858   9.085  0.3432  0.3916  0.3664
  206MOL    C2625036   8.998   5.002   9.177  0.2224 -0.5728  0.1486
  206MOL   Cl2725037   8.890   4.967   0.140  0.4562  0.3687 -0.1745
  206MOL   Cl2825038   9.005   5.180   9.159 -0.2013 -0.2469  0.2647
  206MOL    C2925039   9.143   4.940   0.009 -0.3541 -0.3521  0.2137
  206MOL    H3025040   9.131   4.840   0.050  2.4805  0.1586  2.4339
  206MOL    H3125041   0.012   4.935   9.093 -0.2436  0.3883  0.2292
  206MOL    C3225042   0.074   5.020   0.089  0.8559 -0.1199 -0.2473
  206MOL   Cl3325043   0.136   5.163   0.003  0.0441  0.1611  0.5267
  206MOL   Cl3425044   0.219   4.917   0.096 -0.3652  0.0404  0.1629
  206MOL    C3525045   0.021   5.080   0.230 -0.2160 -0.0889  0.1448
  206MOL    H3625046   0.074   5.174   0.239 -0.0780 -0.1656  0.1315
  206MOL    H3725047   9.102   5.124   0.219  0.1429  0.4374 -1.0948
  206MOL    C3825048   0.019   4.989   0.350  0.0213  0.2131 -0.6150
  206MOL   Cl3925049   9.157   4.816   0.311 -0.5129 -0.5604 -0.1742
  206MOL   Cl4025050   9.060   5.035   0.454  0.1905  0.0574  0.2675
  206MOL    C4125051   0.157   4.989   0.434  0.2214  0.1390 -0.3791
  206MOL    H4225052   0.147   4.914   0.513 -1.4258  1.5020  0.7449
  206MOL    H4325053   0.236   4.956   0.366 -0.2957 -0.6560 -0.6093
  206MOL    C4425054   0.217   5.119   0.497 -0.5107  0.0302 -0.1872
  206MOL   Cl4525055   0.275   5.232   0.370  0.0719 -0.0214 -0.2883
  206MOL   Cl4625056   0.367   5.059   0.580  0.3018 -0.0893  0.0057
  206MOL    C4725057   0.133   5.185   0.604  0.1660 -0.1582  0.3794
  206MOL    H4825058   0.032   5.194   0.563  0.2768  0.5635  0.2595
  206MOL    H4925059   0.105   5.113   0.681 -0.6813  0.4451  0.6427
  206MOL    C5025060   0.161   5.324   0.667 -0.6113  0.2614 -0.3399
  206MOL   Cl5125061   0.300   5.298   0.776  0.0681  0.0673  0.2700
  206MOL   Cl5225062   0.024   5.352   0.764  0.1786 -0.1037 -0.3629
  206MOL    C5325063   0.193   5.456   0.586  0.4688  0.5721 -0.3950
  206MOL    H5425064   0.215   5.532   0.660 -0.7668 -0.0254  0.6014
  206MOL    H5525065   0.289   5.432   0.539  1.0649 -0.9139  1.5103
  206MOL    C5625066   0.091   5.526   0.483 -0.1719 -0.2970  0.5186
  206MOL   Cl5725067   9.151   5.622   0.581  0.2266  0.1180  0.1098
  206MOL   Cl5825068   0.002   5.406   0.389  0.2187 -0.3042  0.2757
  206MOL    C5925069   0.172   5.615   0.380  0.2158  0.8087  0.1189
  206MOL    H6025070   0.244   5.669   0.443  1.1608 -1.6769  1.2590
  206MOL    H6125071   0.223   5.548   0.312  0.8984  1.2465  0.1916
  206MOL    C6225072   0.105   5.720   0.297  0.3199 -1.2658 -0.4470
  206MOL   Cl6325073   0.223   5.760   0.168 -0.2810  0.2238 -0.3095
  206MOL   Cl6425074   0.090   5.868   0.400  0.3601 -0.2606  0.0786
  206MOL    C6525075   9.144   5.684   0.238  0.1409  0.3016  0.9598
  206MOL    H6625076   9.098   5.619   0.313  2.2334 -0.9651  1.1833
  206MOL    H6725077   9.086   5.775   0.255 -0.0432  0.3004  0.3346
  206MOL    C6825078   9.119   5.621   0.097  0.5273 -0.7439  0.5056
  206MOL   Cl6925079   8.954   5.544   0.102 -0.1025 -0.0400  0.3441
  206MOL   Cl7025080   0.062   5.492   0.068 -0.3434 -0.1559 -0.2027
  206MOL    C7125081   9.120   5.714   9.150 -0.2299  0.0536  0.2767
  206MOL    H7225082   0.042   5.731   9.118  0.0566 -2.7029 -0.4344
  206MOL    H7325083   9.092   5.647   9.069 -1.1349  0.5574  0.1618
  206MOL    C7425084   9.030   5.833   9.125  0.8119 -0.4901  0.1684
  206MOL   Cl7525085   9.035   5.957   0.085 -0.1379 -0.2174 -0.0489
  206MOL   Cl7625086   8.857   5.793   9.106 -0.0720  0.2271  0.0050
  206MOL    C7725087   9.068   5.914   8.996 -0.1783 -0.5679  0.4186
  206MOL    H7825088   8.987   5.986   8.986 -0.7412 -1.5442 -2.9874
  206MOL    H7925089   9.152   5.971   9.035 -1.7221  2.3043 -0.2946
  206MOL    C8025090   9.090   5.857   8.855  0.3800 -0.3665  0.4839
  206MOL   Cl8125091   8.968   5.739   8.813 -0.7555  0.3116 -0.0282
  206MOL   Cl8225092   0.066   5.786   8.851  0.0814  0.7201  0.0170
  206MOL    C8325093   9.095   5.968   8.737 -0.0418 -0.4159  0.7637
  206MOL    H8425094   0.004   6.028   8.719 -0.5546  0.0296 -0.3159
  206MOL    H8525095   9.099   5.903   8.650  2.1067  0.5449  0.1126
  206MOL    C8625096   8.976   6.064   8.706 -0.5151 -0.2163 -0.7864
  206MOL   Cl8725097   9.013   6.152   8.555  0.0528  0.0593 -0.1997
  206MOL   Cl8825098   8.979   6.187   8.832  0.5308 -0.1881 -0.2666
  206MOL    C8925099   8.835   6.000   8.701 -0.3170  0.6538  0.4809
  206MOL    H9025100   8.835   5.897   8.664 -0.0928  0.2802  1.5127
  206MOL    H9125101   8.816   5.980   8.806 -0.6612 -1.3391  0.0714
  206MOL    C9225102   8.707   6.064   8.634  0.8171  0.1906  0.0993
  206MOL   Cl9325103   8.734   6.063   8.459  0.5187 -0.3679  0.5422
  206MOL   Cl9425104   8.688   6.226   8.701  0.0557 -0.2180 -0.0443
  206MOL    C9525105   8.577   5.973   8.661  0.3630  0.3824  0.4066
  206MOL    H9625106   8.589   5.877   8.611 -1.8218  0.0289  0.5481
  206MOL    H9725107   8.579   5.950   8.767  0.6121 -0.1368  0.2910
  206MOL    C9825108   8.437   6.027   8.622 -0.0725 -0.0588  0.0940
  206MOL   Cl9925109   8.386   6.148   8.743  0.0985 -0.2156 -0.0178
  206MOL  Cl10025110   8.324   5.884   8.657 -0.1584 -0.0576 -0.0808
  206MOL   C10125111   8.430   6.068   8.469 -0.9988 -0.0216  0.7228
  206MOL   H10225112   8.495   6.155   8.460  3.0017 -2.9117  0.4826
  206MOL   H10325113   8.478   5.987   8.413 -1.8536 -0.8104  1.1202
  206MOL   C10425114   8.291   6.091   8.400 -0.6025 -0.3239  0.2593
  206MOL  Cl10525115   8.334   6.161   8.239 -0.2188  0.0369 -0.0251
  206MOL  Cl10625116   8.211   6.231   8.479 -0.0727 -0.1362  0.1029
  206MOL   C10725117   8.187   5.967   8.400 -0.4937  0.2051 -0.0544
  206MOL   H10825118   8.249   5.878   8.390  0.3886  0.7655  0.3732
  206MOL   H10925119   8.142   5.969   8.499  2.4930 -1.2597  1.3826
  206MOL   C11025120   8.093   5.946   8.293 -0.1804  0.7061  0.3563
  206MOL  Cl11125121   8.180   5.886   8.146  0.1404  0.2030 -0.4401
  206MOL  Cl11225122   8.010   6.086   8.236  0.0106 -0.2224 -0.0344
  206MOL   C11325123   7.986   5.844   8.339  0.3694 -0.0992  0.4498
  206MOL   H11425124   7.920   5.894   8.411 -1.0088  1.3685 -1.7602
  206MOL   H11525125   7.920   5.836   8.253  1.2972  1.1342 -0.3942
  206MOL   C11625126   8.018   5.696   8.378  0.3159  0.1536  0.6801
  206MOL  Cl11725127   7.870   5.603   8.363  0.3726  0.4102 -0.2311
  206MOL  Cl11825128   8.077   5.686   8.545 -0.2991 -0.2314  0.2262
  206MOL   C11925129   8.124   5.618   8.297 -0.1269 -0.5882 -0.3685
  206MOL   H12025130   8.104   5.603   8.190  3.1149 -0.7538 -1.0026
  206MOL   H12125131   8.224   5.650   8.325 -1.6034  2.5378  1.5620
  206MOL   H12225132   8.117   5.514   8.328  0.7107 -0.8972 -1.1738
  207MOL     C125133   9.142   6.498   2.789  0.8483 -0.3416 -0.2838
  207MOL    Cl225134   0.120   6.522   2.703  0.0225 -0.1526  0.2682
  207MOL    Cl325135   9.031   6.432   2.656 -0.0040 -0.3856 -0.0054
  207MOL     C425136   9.142   6.407   2.919  0.5216 -0.2037  0.4883
  207MOL     H525137   9.141   6.303   2.886  3.2079 -0.6448  1.6895
  207MOL     H625138   0.060   6.412   2.966  1.5169  0.2847 -1.5872
  207MOL     H725139   9.104   6.596   2.821 -0.1737 -0.8293  0.0160
  207MOL     C825140   9.026   6.424   3.025 -0.3150 -0.3202 -0.2373
  207MOL    Cl925141   8.859   6.411   2.960  0.0131 -0.1893 -0.5033
  207MOL   Cl1025142   9.055   6.585   3.098  0.1265 -0.2220  0.2679
  207MOL    C1125143   9.049   6.312   3.126 -0.2188  0.1935 -0.0175
  207MOL    H1225144   9.033   6.214   3.080  2.3378 -0.4704  0.3946
  207MOL    H1325145   9.153   6.298   3.157  0.1448 -1.6173 -1.8923
  207MOL    C1425146   8.980   6.323   3.274 -0.0696 -0.7514  0.2278
  207MOL   Cl1525147   8.957   6.155   3.326 -0.0045  0.2707  0.0328
  207MOL   Cl1625148   8.815   6.399   3.276  0.0839  0.0369 -0.1545
  207MOL    C1725149   9.059   6.400   3.386 -0.2211  0.2417  0.0899
  207MOL    H1825150   9.037   6.506   3.373 -2.5091 -0.1629  0.5854
  207MOL    H1925151   9.019   6.367   3.482  0.3366 -3.6416 -0.8969
  207MOL    C2025152   0.032   6.375   3.404  0.1343 -0.2564  0.3036
  207MOL   Cl2125153   0.137   6.463   3.281 -0.0110 -0.1668  0.3360
  207MOL   Cl2225154   0.067   6.204   3.391  0.1406 -0.3838  0.2615
  207MOL    C2325155   0.071   6.419   3.543  0.2198 -0.1381 -0.5899
  207MOL    H2425156   0.054   6.336   3.611  0.7171 -0.4209 -0.8068
  207MOL    H2525157   0.179   6.405   3.532  0.5922  0.1413  2.2649
  207MOL    C2625158   0.044   6.558   3.603 -0.3579  0.2790  0.4529
  207MOL   Cl2725159   9.059   6.559   3.654 -0.0160  0.1762  0.1392
  207MOL   Cl2825160   0.076   6.682   3.480  0.1159  0.2165  0.0216
  207MOL    C2925161   0.122   6.571   3.739  0.1008  0.5892 -0.0108
  207MOL    H3025162   0.088   6.489   3.803  0.1955 -1.3532 -2.3558
  207MOL    H3125163   0.221   6.533   3.715 -1.0196 -3.2154  0.9613
  207MOL    C3225164   0.131   6.698   3.832  0.4567  0.1212 -0.3805
  207MOL   Cl3325165   9.156   6.776   3.882 -0.3669  0.0808 -0.3018
  207MOL   Cl3425166   0.237   6.811   3.742 -0.0747  0.2141  0.0447
  207MOL    C3525167   0.211   6.655   3.962  0.7145  0.5099  0.1093
  207MOL    H3625168   0.163   6.566   4.002  1.2678  0.4421  0.6370
  207MOL    H3725169   0.305   6.609   3.930 -0.1113 -0.2275 -1.3058
  207MOL    C3825170   0.225   6.734   4.092 -0.5510 -0.4903 -0.0799
  207MOL   Cl3925171   0.073   6.716   4.187  0.0291  0.2698 -0.3327
  207MOL   Cl4025172   0.246   6.907   4.050 -0.2290  0.1299 -0.0049
  207MOL    C4125173   0.347   6.703   4.185  0.3707 -0.3808 -0.6377
  207MOL    H4225174   0.431   6.732   4.124  0.8604 -0.3382  0.0482
  207MOL    H4325175   0.347   6.773   4.268 -1.2563  0.6849 -1.5126
  207MOL    C4425176   0.386   6.560   4.240  0.2228  0.2131  0.2351
  207MOL   Cl4525177   0.395   6.436   4.111 -0.1102 -0.0291 -0.1981
  207MOL   Cl4625178   0.280   6.512   4.371 -0.3471  0.1841  0.2813
  207MOL    C4725179   0.526   6.549   4.321  0.3423  0.5457 -0.3865
  207MOL    H4825180   0.514   6.607   4.413  1.1561 -0.9128  0.6632
  207MOL    H4925181   0.538   6.446   4.355 -0.2435  0.0700 -1.6106
  207MOL    C5025182   0.667   6.584   4.265 -0.6128  0.0962  0.0507
  207MOL   Cl5125183   0.671   6.754   4.213 -0.0727 -0.0523 -0.4773
  207MOL   Cl5225184   0.713   6.486   4.120  0.3467  0.1022 -0.4295
  207MOL    C5325185   0.784   6.556   4.374  0.2416  0.1173  0.2804
  207MOL    H5425186   0.757   6.601   4.470 -0.5917  0.7569 -0.2398
  207MOL    H5525187   0.793   6.449   4.390  1.0349 -0.0247 -1.0342
  207MOL    C5625188   0.931   6.602   4.355 -0.2116  0.1310  0.0730
  207MOL   Cl5725189   1.025   6.534   4.486 -0.1103 -0.1646  0.1776
  207MOL   Cl5825190   0.941   6.780   4.362  0.4707 -0.5667 -0.1504
  207MOL    C5925191   0.991   6.549   4.219 -0.8860 -0.6148  1.1415
  207MOL    H6025192   0.954   6.449   4.198 -2.4908  0.4196 -1.1240
  207MOL    H6125193   0.959   6.615   4.139  1.5413 -1.2692 -0.4164
  207MOL    C6225194   1.147   6.548   4.206 -0.3840  0.2135 -0.8173
  207MOL   Cl6325195   1.221   6.694   4.278  0.4811  0.0824  0.1914
  207MOL   Cl6425196   1.181   6.556   4.034 -0.4347 -0.1669 -0.1671
  207MOL    C6525197   1.232   6.432   4.257 -0.5825 -0.2143 -0.0746
  207MOL    H6625198   1.334   6.459   4.231 -0.5057 -2.4280 -2.1053
  207MOL    H6725199   1.243   6.448   4.365  0.9923 -1.5546 -0.0262
  207MOL    C6825200   1.197   6.282   4.241 -0.5892 -0.0165  0.0694
  207MOL   Cl6925201   1.119   6.245   4.084 -0.2866 -0.1937  0.0411
  207MOL   Cl7025202   1.072   6.237   4.363 -0.4467 -0.2138 -0.1501
  207MOL    C7125203   1.310   6.192   4.274 -0.2723 -0.2736 -0.6735
  207MOL    H7225204   1.339   6.210   4.378 -1.2875 -2.7593  0.0639
  207MOL    H7325205   1.266   6.094   4.255 -1.0874  0.4331 -2.5290
  207MOL    C7425206   1.443   6.175   4.190  0.6413 -0.7842 -0.0363
  207MOL   Cl7525207   1.550   6.326   4.222 -0.5228  0.0662 -0.1753
  207MOL   Cl7625208   1.411   6.169   4.018 -0.1838 -0.0509 -0.3714
  207MOL    C7725209   1.528   6.064   4.237 -0.5619  0.1429  0.1595
  207MOL    H7825210   1.622   6.096   4.193  0.2920 -0.6043  1.4282
  207MOL    H7925211   1.547   6.069   4.344 -2.0565  2.2669  0.3688
  207MOL    C8025212   1.501   5.913   4.214  0.6210 -0.4164 -0.3129
  207MOL   Cl8125213   1.343   5.865   4.266  0.1125  0.4994 -0.1885
  207MOL   Cl8225214   1.610   5.830   4.326  0.2405 -0.2058 -0.1749
  207MOL    C8325215   1.525   5.882   4.064 -0.4112 -0.1575  0.7467
  207MOL    H8425216   1.423   5.889   4.027  0.2301 -0.8547 -1.2308
  207MOL    H8525217   1.583   5.955   4.008 -0.7158 -0.2898  0.2553
  207MOL    C8625218   1.583   5.745   4.017 -0.6223 -0.2467  1.0428
  207MOL   Cl8725219   1.570   5.733   3.839 -0.0100 -0.2200 -0.0999
  207MOL   Cl8825220   1.464   5.625   4.083  0.2892  0.2488  0.2089
  207MOL    C8925221   1.721   5.694   4.055 -0.2304  0.4714  0.2085
  207MOL    H9025222   1.713   5.661   4.158  1.0633 -0.9986 -0.1496
  207MOL    H9125223   1.728   5.603   3.996  0.9157  1.0175 -0.5256
  207MOL    C9225224   1.848   5.787   4.028  0.2032 -0.6549 -0.0463
  207MOL   Cl9325225   1.833   5.942   4.116 -0.0849 -0.1465  0.6466
  207MOL   Cl9425226   1.876   5.837   3.857 -0.3317 -0.3185  0.2265
  207MOL    C9525227   1.982   5.723   4.079  0.2030  0.6035  0.3013
  207MOL    H9625228   2.013   5.657   3.998 -0.4806 -1.8853  2.0145
  207MOL    H9725229   2.054   5.805   4.087  0.4864  0.4567 -0.7045
  207MOL    C9825230   2.002   5.633   4.204 -0.0508  0.4429 -0.1347
  207MOL   Cl9925231   1.931   5.468   4.193  0.1336 -0.2848 -0.3305
  207MOL  Cl10025232   1.916   5.717   4.343 -0.0589 -0.5151 -0.2735
  207MOL   C10125233   2.149   5.644   4.243  0.6527  0.4286 -0.6020
  207MOL   H10225234   2.170   5.746   4.277 -2.0413  0.1200  2.2374
  207MOL   H10325235   2.151   5.596   4.341 -0.0623  2.0154  0.2243
  207MOL   C10425236   2.262   5.569   4.166  0.6380 -0.7025  0.2989
  207MOL  Cl10525237   2.412   5.619   4.250  0.0292  0.0330 -0.3945
  207MOL  Cl10625238   2.277   5.630   3.999 -0.3026  0.2532 -0.0634
  207MOL   C10725239   2.251   5.414   4.161  0.0179 -0.8432 -0.1356
  207MOL   H10825240   2.212   5.384   4.259  0.2002 -0.3339  0.0975
  207MOL   H10925241   2.166   5.399   4.095 -1.2102  1.2852  0.9261
  207MOL   C11025242   2.359   5.314   4.111  0.4453 -0.1539 -0.7134
  207MOL  Cl11125243   2.264   5.164   4.124  0.2332 -0.0296 -0.1532
  207MOL  Cl11225244   2.478   5.301   4.248  0.1629  0.1144  0.0420
  207MOL   C11325245   2.416   5.339   3.968 -0.2290 -0.5121  0.2595
  207MOL   H11425246   2.342   5.371   3.894  1.6281 -0.5935 -1.6854
  207MOL   H11525247   2.473   5.432   3.970 -0.5143 -0.3607  2.2816
  207MOL   C11625248   2.502   5.230   3.900 -0.3562  0.2839  0.4714
  207MOL  Cl11725249   2.633   5.186   4.003  0.0211 -0.2517  0.1880
  207MOL  Cl11825250   2.575   5.304   3.753 -0.1482  0.1572 -0.3544
  207MOL   C11925251   2.433   5.100   3.859  0.2770 -0.2949  0.3358
  207MOL   H12025252   2.347   5.124   3.796  1.0147  1.4013 -0.0622
  207MOL   H12125253   2.507   5.046   3.800 -1.6527  1.1763 -3.6571
  207MOL   H12225254   2.406   5.044   3.948 -0.2593  3.2347  2.4785
  208MOL     C125255   8.633   0.408   6.700  0.8798  0.6419 -0.4158
  208MOL    Cl225256   8.766   0.466   6.800  0.2051  0.1030 -0.4540
  208MOL    Cl325257   8.494   0.366   6.810 -0.3790  0.1233 -0.2005
  208MOL     C425258   8.592   0.533   6.614 -0.3889  0.3840  0.1961
  208MOL     H525259   8.525   0.592   6.676 -1.3587 -0.5962  0.0815
  208MOL     H625260   8.687   0.583   6.592  0.4578 -0.3564  1.9873
  208MOL     H725261   8.664   0.319   6.644  0.2635 -0.3216  0.7536
  208MOL     C825262   8.538   0.492   6.470 -0.2329  0.3943 -0.3097
  208MOL    Cl925263   8.379   0.411   6.508 -0.1330 -0.1841 -0.2819
  208MOL   Cl1025264   8.637   0.368   6.381  0.1871 -0.2999 -0.1992
  208MOL    C1125265   8.524   0.626   6.392 -0.5323  0.1256 -0.3195
  208MOL    H1225266   8.501   0.696   6.473  0.7371  2.1263 -1.6398
  208MOL    H1325267   8.622   0.628   6.345  0.1512 -2.2850  0.9295
  208MOL    C1425268   8.425   0.650   6.279  0.3534 -0.1413 -0.4403
  208MOL   Cl1525269   8.249   0.674   6.332 -0.2918  0.1411  0.1106
  208MOL   Cl1625270   8.415   0.502   6.179  0.1178 -0.0076  0.3809
  208MOL    C1725271   8.440   0.779   6.199  0.0889 -0.1051 -0.3792
  208MOL    H1825272   8.353   0.798   6.137 -1.5668 -2.1601  1.2343
  208MOL    H1925273   8.439   0.859   6.272 -0.4798 -1.2602  0.9100
  208MOL    C2025274   8.572   0.794   6.104 -0.4194 -1.0513 -0.3066
  208MOL   Cl2125275   8.714   0.821   6.219  0.3366  0.0514  0.1301
  208MOL   Cl2225276   8.547   0.958   6.035  0.1555 -0.2967  0.5792
  208MOL    C2325277   8.608   0.691   5.996  0.2106 -0.5046  0.1826
  208MOL    H2425278   8.653   0.609   6.052  0.1494  0.5669  1.7972
  208MOL    H2525279   8.527   0.636   5.947 -0.9126  0.5829  0.8270
  208MOL    C2625280   8.712   0.728   5.883 -0.3564 -0.3158  0.1698
  208MOL   Cl2725281   8.629   0.830   5.765 -0.0731 -0.2750  0.1906
  208MOL   Cl2825282   8.741   0.576   5.799  0.0571  0.1188 -0.3520
  208MOL    C2925283   8.842   0.794   5.934  0.4357  0.1000 -0.9999
  208MOL    H3025284   8.827   0.892   5.980  0.4747 -0.2181 -0.3075
  208MOL    H3125285   8.881   0.734   6.016  0.6509  1.5904  0.0039
  208MOL    C3225286   8.972   0.808   5.849  0.2764 -0.3158  0.2797
  208MOL   Cl3325287   9.047   0.643   5.834 -0.1527 -0.0690  0.0037
  208MOL   Cl3425288   9.084   0.912   5.937 -0.0077  0.1895 -0.5077
  208MOL    C3525289   8.955   0.868   5.702  0.3402  0.3725 -0.4067
  208MOL    H3625290   8.871   0.813   5.660  0.4642  0.5159 -0.8388
  208MOL    H3725291   8.911   0.967   5.713 -0.5193  0.1103 -1.3801
  208MOL    C3825292   9.063   0.867   5.591 -0.7583  0.5068  0.4776
  208MOL   Cl3925293   0.024   0.946   5.647  0.0229 -0.6243  0.0550
  208MOL   Cl4025294   9.003   0.973   5.459  0.0299 -0.0297  0.1485
  208MOL    C4125295   9.108   0.729   5.540 -0.0626  0.7288 -0.2638
  208MOL    H4225296   0.005   0.697   5.609  1.5320  3.2800 -0.7962
  208MOL    H4325297   9.022   0.663   5.551  0.2146  0.5077  0.6126
  208MOL    C4425298   9.170   0.706   5.396  0.2553  0.0258  0.6846
  208MOL   Cl4525299   0.075   0.541   5.391 -0.1388 -0.1292 -0.1399
  208MOL   Cl4625300   0.113   0.829   5.373  0.0410  0.1383 -0.2748
  208MOL    C4725301   9.055   0.697   5.283  0.3544  0.0015  0.6685
  208MOL    H4825302   9.017   0.596   5.294  1.0318 -0.2857  0.4145
  208MOL    H4925303   8.968   0.758   5.308  0.5390  0.1910  0.8517
  208MOL    C5025304   9.087   0.711   5.133 -0.1344  0.1773 -0.1137
  208MOL   Cl5125305   9.104   0.886   5.103  0.1438  0.2103  0.2373
  208MOL   Cl5225306   8.945   0.636   5.057 -0.1860  0.0691  0.1639
  208MOL    C5325307   0.032   0.641   5.085 -1.4216  1.1142 -0.1441
  208MOL    H5425308   0.114   0.651   5.156 -1.6452 -1.0850  0.4654
  208MOL    H5525309   0.007   0.535   5.094  2.5246  0.1647  0.5196
  208MOL    C5625310   0.110   0.667   4.950 -0.1828  0.0432  0.3997
  208MOL   Cl5725311   0.184   0.832   4.938 -0.1442 -0.5142  0.0047
  208MOL   Cl5825312   9.175   0.654   4.817 -0.1575 -0.3271 -0.0894
  208MOL    C5925313   0.216   0.559   4.916 -1.1033 -0.0861 -0.3980
  208MOL    H6025314   0.154   0.475   4.885 -1.4342  0.2994 -0.7868
  208MOL    H6125315   0.266   0.599   4.828  0.3158 -0.2179  0.3212
  208MOL    C6225316   0.341   0.517   5.010  0.4002 -0.3494  0.0484
  208MOL   Cl6325317   0.264   0.426   5.141  0.3683  0.3097 -0.2225
  208MOL   Cl6425318   0.421   0.662   5.070 -0.1657  0.0659  0.0840
  208MOL    C6525319   0.444   0.421   4.932 -0.5332 -0.0980 -0.2770
  208MOL    H6625320   0.399   0.342   4.873 -1.0104 -0.1870  0.2006
  208MOL    H6725321   0.490   0.493   4.864  1.9021 -2.1352 -0.8690
  208MOL    C6825322   0.558   0.341   5.009  0.4277 -0.1829  0.2432
  208MOL   Cl6925323   0.662   0.293   4.876 -0.2798  0.4634  0.2780
  208MOL   Cl7025324   0.475   0.195   5.074 -0.0808  0.3322 -0.0922
  208MOL    C7125325   0.634   0.426   5.110 -0.1410  0.4556  0.1898
  208MOL    H7225326   0.668   0.519   5.064 -0.3659  0.0825 -0.7261
  208MOL    H7325327   0.558   0.448   5.185  1.1656  0.4754  1.5271
  208MOL    C7425328   0.766   0.369   5.176  0.1027 -0.6412 -0.2418
  208MOL   Cl7525329   0.805   0.495   5.300 -0.3014  0.2245  0.0364
  208MOL   Cl7625330   0.896   0.358   5.055  0.2990 -0.3753  0.4834
  208MOL    C7725331   0.738   0.225   5.243  0.2652 -0.4292  0.4718
  208MOL    H7825332   0.645   0.225   5.299  2.1069  0.8777  3.6362
  208MOL    H7925333   0.728   0.163   5.154  0.3375  0.5027 -0.2004
  208MOL    C8025334   0.850   0.161   5.336 -0.5100  0.0512  0.0465
  208MOL   Cl8125335   0.856   0.263   5.490 -0.2542  0.0858  0.1797
  208MOL   Cl8225336   1.012   0.157   5.251  0.0939 -0.2182 -0.2815
  208MOL    C8325337   0.824   0.020   5.394  0.1076  0.3124  0.2136
  208MOL    H8425338   0.904   9.175   5.464 -0.0961 -1.2902 -0.1007
  208MOL    H8525339   0.741   0.023   5.464  0.1162  1.4220  0.1849
  208MOL    C8625340   0.792   9.074   5.303  0.0571 -0.2681 -0.1813
  208MOL   Cl8725341   0.925   9.055   5.182  0.0838 -0.3949 -0.1618
  208MOL   Cl8825342   0.643   9.102   5.206 -0.4151  0.3497  0.0443
  208MOL    C8925343   0.771   8.934   5.375 -0.2829 -0.5686  0.3521
  208MOL    H9025344   0.790   8.863   5.294  0.4712  0.2735 -0.2197
  208MOL    H9125345   0.864   8.903   5.423  0.3502 -0.3456 -0.7122
  208MOL    C9225346   0.655   8.888   5.475  0.1038 -0.5425 -1.1570
  208MOL   Cl9325347   0.493   8.926   5.398  0.1925  0.2633  0.3600
  208MOL   Cl9425348   0.661   9.007   5.609  0.4251 -0.0425  0.0358
  208MOL    C9525349   0.670   8.740   5.530 -0.0954 -0.7263  0.3608
  208MOL    H9625350   0.776   8.732   5.553  0.2424  0.3147 -0.8035
  208MOL    H9725351   0.618   8.751   5.625  1.8712 -0.2823  1.4220
  208MOL    C9825352   0.631   8.610   5.459  0.4270 -0.3594  0.1252
  208MOL   Cl9925353   0.727   8.588   5.313  0.3583  0.1368  0.1573
  208MOL  Cl10025354   0.461   8.616   5.404 -0.7284  0.1071  0.4131
  208MOL   C10125355   0.665   8.494   5.547  0.1224 -0.3239 -0.2429
  208MOL   H10225356   0.624   8.408   5.493 -0.5477 -0.4089  0.3892
  208MOL   H10325357   0.773   8.488   5.548  0.1390 -0.4490 -1.4795
  208MOL   C10425358   0.615   8.469   5.693 -0.2677 -0.1745  0.3322
  208MOL  Cl10525359   0.449   8.527   5.714 -0.1292  0.1680 -0.2518
  208MOL  Cl10625360   0.716   8.562   5.807  0.1010  0.0843 -0.3044
  208MOL   C10725361   0.621   8.319   5.733  0.1805 -0.1402  0.5122
  208MOL   H10825362   0.546   8.304   5.811 -0.3431 -1.6085 -0.2431
  208MOL   H10925363   0.572   8.275   5.646  2.6861 -1.2785 -0.3648
  208MOL   C11025364   0.758   8.241   5.771  0.0118 -0.4655 -0.1636
  208MOL  Cl11125365   0.842   8.280   5.932 -0.1139  0.1059 -0.1383
  208MOL  Cl11225366   0.879   8.263   5.641 -0.4335  0.1053  0.1855
  208MOL   C11325367   0.739   8.088   5.780  0.0281 -0.4919  0.2186
  208MOL   H11425368   0.837   8.042   5.774 -0.8089 -2.0937 -1.9689
  208MOL   H11525369   0.703   8.066   5.880 -2.5678 -1.5113 -0.8672
  208MOL   C11625370   0.644   8.005   5.683  0.5852  0.0442 -0.5682
  208MOL  Cl11725371   0.681   8.040   5.516  0.4003  0.1020  0.2454
  208MOL  Cl11825372   0.484   8.043   5.738  0.3035  0.2973  0.0040
  208MOL   C11925373   0.665   7.852   5.693  0.2284  0.0354 -0.5486
  208MOL   H12025374   0.589   7.798   5.636 -1.4503  1.2797  0.5159
  208MOL   H12125375   0.763   7.824   5.653 -0.6127 -1.6901 -1.4771
  208MOL   H12225376   0.653   7.802   5.789 -1.4799 -0.2406 -0.8950
  209MOL     C125377   4.540   6.200   0.191  0.1040 -0.0381 -0.1757
  209MOL    Cl225378   4.548   6.050   0.108  0.1403  0.0754 -0.0646
  209MOL    Cl325379   4.664   6.194   0.319  0.0242 -0.6078 -0.5517
  209MOL     C425380   4.590   6.317   0.097  0.4991  0.5827  0.0021
  209MOL     H525381   4.612   6.402   0.161 -0.8811  1.9709 -1.3374
  209MOL     H625382   4.687   6.291   0.053  0.0277  0.3691 -0.9378
  209MOL     H725383   4.440   6.219   0.230 -0.3561 -1.7527 -0.5118
  209MOL     C825384   4.498   6.365   9.164 -0.3526  0.0576 -0.0083
  209MOL    Cl925385   4.332   6.389   0.053 -0.5216 -0.1335  0.2839
  209MOL   Cl1025386   4.471   6.244   9.033  0.2008 -0.2147 -0.2547
  209MOL    C1125387   4.547   6.489   9.094  0.4670  0.1860 -1.1287
  209MOL    H1225388   4.489   6.489   9.002  0.7288 -2.2046 -1.3196
  209MOL    H1325389   4.521   6.573   9.159  2.0858 -0.9026  1.0180
  209MOL    C1425390   4.695   6.508   9.042  0.5320  0.6616  0.8423
  209MOL   Cl1525391   4.760   6.353   8.986 -0.0226 -0.4814  0.3241
  209MOL   Cl1625392   4.786   6.554   0.008  0.0712 -0.0338  0.0159
  209MOL    C1725393   4.696   6.612   8.920 -0.7074 -0.2908  0.6141
  209MOL    H1825394   4.653   6.557   8.837 -1.2445  1.2662 -0.1730
  209MOL    H1925395   4.623   6.692   8.937  0.2189  0.7176 -0.1242
  209MOL    C2025396   4.832   6.684   8.885  0.5242 -0.1979 -0.5027
  209MOL   Cl2125397   4.809   6.732   8.712 -0.2713 -0.0652  0.1682
  209MOL   Cl2225398   4.979   6.566   8.898  0.5264  0.0966 -0.2191
  209MOL    C2325399   4.878   6.809   8.972 -0.4787 -0.5898 -0.1125
  209MOL    H2425400   4.907   6.767   9.068 -0.7879 -0.5978 -0.0221
  209MOL    H2525401   4.966   6.855   8.928 -0.3759 -0.7970 -0.1215
  209MOL    C2625402   4.772   6.921   9.008  0.2686  1.1272  0.4667
  209MOL   Cl2725403   4.684   6.862   9.149  0.1027 -0.5187 -0.1339
  209MOL   Cl2825404   4.641   6.943   8.883  0.0092  0.2058 -0.2593
  209MOL    C2925405   4.841   7.052   9.061 -0.1555 -0.2755  0.2015
  209MOL    H3025406   4.779   7.104   9.134 -1.8597  2.2729 -2.8957
  209MOL    H3125407   4.935   7.030   9.111 -0.7026 -0.1683  1.3003
  209MOL    C3225408   4.876   7.152   8.949 -0.3754  0.2292  0.3478
  209MOL   Cl3325409   4.727   7.257   8.928 -0.2023 -0.1749  0.0452
  209MOL   Cl3425410   4.915   7.077   8.791 -0.1819  0.4810  0.0549
  209MOL    C3525411   5.003   7.231   8.981  1.0959  0.4780 -0.0102
  209MOL    H3625412   5.088   7.162   8.987  0.4925 -0.3587 -0.8862
  209MOL    H3725413   5.031   7.279   8.887 -1.8991 -0.2823 -1.3410
  209MOL    C3825414   5.011   7.331   9.104 -0.5285  0.0562 -0.5203
  209MOL   Cl3925415   4.973   7.254   0.082 -0.1286 -0.1537 -0.1738
  209MOL   Cl4025416   4.898   7.470   9.088  0.0968  0.1368 -0.0450
  209MOL    C4125417   5.162   7.380   9.114  0.5716  0.1577 -0.5275
  209MOL    H4225418   5.160   7.453   0.015 -0.0294  0.8574 -1.1588
  209MOL    H4325419   5.220   7.291   9.138  0.9232 -0.5122 -3.7500
  209MOL    C4425420   5.226   7.461   9.001  0.5068  0.2567 -0.1214
  209MOL   Cl4525421   5.297   7.329   8.905 -0.1681 -0.0078 -0.5488
  209MOL   Cl4625422   5.363   7.542   9.067  0.1666  0.1910  0.0848
  209MOL    C4725423   5.142   7.568   8.916  0.2907  0.6239 -0.1651
  209MOL    H4825424   5.072   7.514   8.852 -0.4225  1.3021  0.0440
  209MOL    H4925425   5.069   7.617   8.981  1.3847 -0.0993  1.6591
  209MOL    C5025426   5.195   7.676   8.817  0.4117  0.3399 -0.3492
  209MOL   Cl5125427   5.283   7.805   8.900 -0.0059 -0.0565 -0.1339
  209MOL   Cl5225428   5.055   7.764   8.760 -0.1311 -0.1303 -0.3307
  209MOL    C5325429   5.273   7.591   8.713 -1.1795 -0.2925 -0.2534
  209MOL    H5425430   5.356   7.544   8.766 -1.2978  0.0168  0.1976
  209MOL    H5525431   5.229   7.497   8.678 -2.4847  1.3048 -3.1132
  209MOL    C5625432   5.331   7.637   8.585  0.6376 -0.5088 -0.1181
  209MOL   Cl5725433   5.195   7.671   8.471 -0.1208  0.0694  0.3056
  209MOL   Cl5825434   5.416   7.495   8.520 -0.0893 -0.1831  0.2517
  209MOL    C5925435   5.430   7.762   8.601  0.1760 -0.3078 -0.2341
  209MOL    H6025436   5.371   7.839   8.650 -0.2158  0.9389 -2.5957
  209MOL    H6125437   5.507   7.738   8.675  0.8139 -1.6427 -1.3026
  209MOL    C6225438   5.508   7.834   8.488 -0.3026 -0.0153  0.1591
  209MOL   Cl6325439   5.569   7.988   8.565  0.4048  0.1547 -0.1409
  209MOL   Cl6425440   5.390   7.874   8.350 -0.1368 -0.2977  0.1999
  209MOL    C6525441   5.613   7.733   8.427  0.6847 -0.2242 -0.0136
  209MOL    H6625442   5.645   7.668   8.509 -1.0215  0.8897  1.5790
  209MOL    H6725443   5.561   7.677   8.350 -1.5399  1.3585  0.2980
  209MOL    C6825444   5.728   7.796   8.349  0.0329  0.1500  0.3677
  209MOL   Cl6925445   5.828   7.654   8.296 -0.4058  0.0209  0.0479
  209MOL   Cl7025446   5.833   7.879   8.470 -0.1817  0.2789  0.0115
  209MOL    C7125447   5.686   7.897   8.250  0.2838 -0.3437 -0.0918
  209MOL    H7225448   5.629   7.834   8.182  3.0119 -0.2922 -2.5601
  209MOL    H7325449   5.619   7.978   8.279 -1.2546 -1.5471 -0.2603
  209MOL    C7425450   5.778   7.969   8.138 -0.2948  0.0079 -0.2893
  209MOL   Cl7525451   5.871   8.092   8.220  0.0169 -0.2240  0.0723
  209MOL   Cl7625452   5.666   8.048   8.022 -0.1511 -0.3628  0.3666
  209MOL    C7725453   5.865   7.859   8.066  0.7342 -0.5628  0.2733
  209MOL    H7825454   5.920   7.810   8.146  0.4054 -1.0137  0.2237
  209MOL    H7925455   5.794   7.783   8.035 -0.6027  1.0773 -0.7844
  209MOL    C8025456   5.968   7.890   7.952 -0.1338 -0.0677 -0.0839
  209MOL   Cl8125457   6.068   8.029   7.994  0.2717  0.1744 -0.1913
  209MOL   Cl8225458   5.892   7.941   7.804 -0.0401 -0.0434  0.2531
  209MOL    C8325459   6.049   7.766   7.914 -0.1443 -0.2472 -0.2923
  209MOL    H8425460   5.982   7.681   7.926 -1.6457  1.1221  1.2932
  209MOL    H8525461   6.075   7.769   7.808 -1.1606 -0.4290 -0.5523
  209MOL    C8625462   6.185   7.737   7.988  0.1035  0.3142 -0.1759
  209MOL   Cl8725463   6.179   7.764   8.162  0.2367 -0.3545  0.1736
  209MOL   Cl8825464   6.309   7.846   7.929  0.3368  0.2058 -0.0548
  209MOL    C8925465   6.253   7.597   7.956  0.4195  0.4464 -0.8555
  209MOL    H9025466   6.295   7.611   7.856  2.0289  0.7583 -0.1584
  209MOL    H9125467   6.346   7.588   8.013 -1.3652 -0.9906  1.9043
  209MOL    C9225468   6.176   7.467   7.966 -0.1195  0.1490 -0.1014
  209MOL   Cl9325469   6.295   7.344   7.928 -0.1303 -0.1395 -0.2045
  209MOL   Cl9425470   6.049   7.454   7.842 -0.1364  0.2507  0.1196
  209MOL    C9525471   6.118   7.445   8.108 -0.4723 -0.9412 -0.2505
  209MOL    H9625472   6.206   7.442   8.172  0.1741 -1.8171 -1.1832
  209MOL    H9725473   6.066   7.534   8.145  1.3314 -1.0373  2.6792
  209MOL    C9825474   6.020   7.328   8.148  0.4313  0.0154  0.5782
  209MOL   Cl9925475   5.852   7.368   8.101  0.3684 -0.6597 -0.1441
  209MOL  Cl10025476   6.016   7.320   8.325 -0.1421 -0.0916 -0.3898
  209MOL   C10125477   6.070   7.185   8.101 -0.1766 -0.2238 -0.0251
  209MOL   H10225478   6.037   7.195   7.997 -0.3909 -0.7513 -0.0081
  209MOL   H10325479   6.178   7.183   8.112 -0.0251  1.1893 -1.0798
  209MOL   C10425480   6.020   7.051   8.159  0.6725 -0.2323 -0.3689
  209MOL  Cl10525481   6.117   7.011   8.315 -0.1678 -0.3213 -0.1059
  209MOL  Cl10625482   6.068   6.924   8.044  0.4800 -0.0148  0.0662
  209MOL   C10725483   5.862   7.051   8.188 -0.9148  0.1544 -0.0587
  209MOL   H10825484   5.840   7.136   8.252  1.1425 -0.3025  1.3051
  209MOL   H10925485   5.802   7.067   8.099 -1.8672 -2.9131 -0.0319
  209MOL   C11025486   5.798   6.940   8.282 -0.3401  0.0589  0.7729
  209MOL  Cl11125487   5.850   6.934   8.446  0.3189  0.1519  0.3169
  209MOL  Cl11225488   5.832   6.786   8.199  0.0468 -0.4496 -0.3059
  209MOL   C11325489   5.647   6.943   8.282  0.1888  0.3363  0.6553
  209MOL   H11425490   5.621   6.916   8.180  0.8201 -1.8816  1.0683
  209MOL   H11525491   5.610   6.857   8.337  0.9451 -0.9338 -0.7703
  209MOL   C11625492   5.573   7.075   8.315 -0.0188  0.2907 -0.5079
  209MOL  Cl11725493   5.577   7.189   8.183  0.1598 -0.4814 -0.0703
  209MOL  Cl11825494   5.623   7.151   8.472  0.1488 -0.2061 -0.4519
  209MOL   C11925495   5.421   7.045   8.330  0.5549  0.5388  0.1361
  209MOL   H12025496   5.372   7.008   8.241 -1.7509 -0.3130  1.7104
  209MOL   H12125497   5.413   6.974   8.413  0.7674 -0.5105 -0.7420
  209MOL   H12225498   5.372   7.138   8.361  0.8061  0.8591 -0.4327
  210MOL     C125499   8.132   8.693   2.739 -0.5570  1.0095  0.1619
  210MOL    Cl225500   8.079   8.864   2.714  0.3348  0.1629  0.1858
  210MOL    Cl325501   8.227   8.662   2.883 -0.4149 -0.5758 -0.2246
  210MOL     C425502   8.020   8.592   2.747  1.2951 -0.1452  0.5637
  210MOL     H525503   8.064   8.498   2.781  0.0488 -0.0324  2.6080
  210MOL     H625504   7.953   8.622   2.828  0.6095 -1.1386  0.3807
  210MOL     H725505   8.192   8.656   2.657 -1.3074 -1.0464  0.5011
  210MOL     C825506   7.927   8.573   2.628 -0.1998  0.6236  0.4625
  210MOL    Cl925507   8.006   8.607   2.472 -0.0963  0.6187 -0.0017
  210MOL   Cl1025508   7.797   8.692   2.661  0.3196 -0.0944  0.1641
  210MOL    C1125509   7.861   8.429   2.624  0.0652 -0.3152 -0.1335
  210MOL    H1225510   7.927   8.349   2.657 -2.1211 -1.2253  2.1908
  210MOL    H1325511   7.781   8.441   2.697 -0.6236 -1.2630 -0.7125
  210MOL    C1425512   7.788   8.364   2.501 -0.0025 -0.6467  0.0491
  210MOL   Cl1525513   7.695   8.219   2.558 -0.2754  0.0272 -0.2387
  210MOL   Cl1625514   7.909   8.293   2.392 -0.1767 -0.5510  0.0814
  210MOL    C1725515   7.698   8.466   2.429 -0.1232 -0.2355 -0.3595
  210MOL    H1825516   7.652   8.525   2.508 -0.1645 -0.5376 -0.1580
  210MOL    H1925517   7.749   8.546   2.375 -0.1943  0.2178  0.2469
  210MOL    C2025518   7.591   8.400   2.331 -0.2563 -0.1412  0.0441
  210MOL   Cl2125519   7.519   8.541   2.240 -0.0388  0.3240 -0.0423
  210MOL   Cl2225520   7.450   8.349   2.422  0.1752 -0.4395  0.2777
  210MOL    C2325521   7.635   8.284   2.232  1.0019 -0.0034  0.3028
  210MOL    H2425522   7.678   8.203   2.291  0.7595 -0.0015  0.4824
  210MOL    H2525523   7.543   8.233   2.206  1.0717  0.5045 -0.9747
  210MOL    C2625524   7.712   8.319   2.099 -0.0288  0.4520  1.0387
  210MOL   Cl2725525   7.808   8.464   2.110 -0.0006  0.4297  0.0558
  210MOL   Cl2825526   7.595   8.362   1.973 -0.0108  0.2393 -0.4672
  210MOL    C2925527   7.808   8.200   2.044  0.6760  0.3029  0.9560
  210MOL    H3025528   7.874   8.226   1.961 -0.2322 -1.4122 -0.3381
  210MOL    H3125529   7.883   8.190   2.122  2.0318  1.1309 -0.2184
  210MOL    C3225530   7.747   8.057   2.004  0.1946 -0.4240  0.1919
  210MOL   Cl3325531   7.632   8.068   1.867  0.1705  0.3138 -0.2647
  210MOL   Cl3425532   7.645   7.977   2.130 -0.2213  0.1977 -0.2020
  210MOL    C3525533   7.846   7.951   1.953 -0.3275  0.2658  0.3569
  210MOL    H3625534   7.802   7.854   1.933  0.8717  0.0498 -1.3509
  210MOL    H3725535   7.878   7.972   1.851 -0.9785 -0.4207  0.0049
  210MOL    C3825536   7.977   7.927   2.034  0.5033 -0.1343 -0.4255
  210MOL   Cl3925537   7.945   7.934   2.207  0.1519 -0.4455 -0.7182
  210MOL   Cl4025538   8.103   8.054   2.001 -0.1405  0.1738  0.4956
  210MOL    C4125539   8.054   7.788   2.008  0.3914  0.6646  0.2018
  210MOL    H4225540   8.053   7.768   1.901  0.5223  0.2292  0.2815
  210MOL    H4325541   8.159   7.808   2.031  0.6958 -1.2716  0.5727
  210MOL    C4425542   8.024   7.660   2.084 -0.7565 -0.1248 -0.8529
  210MOL   Cl4525543   7.854   7.624   2.060 -0.2705  0.1432  0.3372
  210MOL   Cl4625544   8.069   7.675   2.263 -0.3335 -0.0422 -0.1982
  210MOL    C4725545   8.098   7.537   2.023  0.3908 -0.7705 -0.4021
  210MOL    H4825546   8.077   7.454   2.091 -0.0815  0.5094  1.0395
  210MOL    H4925547   8.057   7.498   1.930 -1.2971  1.1364 -0.4883
  210MOL    C5025548   8.250   7.538   1.990  0.6636 -0.1492  0.5809
  210MOL   Cl5125549   8.292   7.365   1.960  0.0202 -0.0295 -0.0946
  210MOL   Cl5225550   8.347   7.596   2.125 -0.0408  0.2858  0.3216
  210MOL    C5325551   8.295   7.624   1.863 -1.2954 -0.0730  0.0391
  210MOL    H5425552   8.209   7.614   1.797  0.8833 -0.7182 -2.8202
  210MOL    H5525553   8.306   7.727   1.894  0.6090  0.1673 -1.3543
  210MOL    C5625554   8.418   7.589   1.776  0.6554 -0.1350  0.8563
  210MOL   Cl5725555   8.392   7.440   1.672  0.3813 -0.1112 -0.0016
  210MOL   Cl5825556   8.557   7.567   1.881  0.0804 -0.0502 -0.1712
  210MOL    C5925557   8.460   7.701   1.680 -0.0369 -0.1267 -0.0180
  210MOL    H6025558   8.523   7.772   1.733  0.8105 -0.6975 -0.2439
  210MOL    H6125559   8.528   7.650   1.611  0.0285 -0.4543  0.2885
  210MOL    C6225560   8.359   7.776   1.590 -0.4447  0.0369  0.0168
  210MOL   Cl6325561   8.462   7.871   1.486  0.1575 -0.1158  0.5275
  210MOL   Cl6425562   8.275   7.892   1.695 -0.4514 -0.4331 -0.0305
  210MOL    C6525563   8.258   7.691   1.505  0.2594 -0.0027  0.3027
  210MOL    H6625564   8.311   7.632   1.430  0.5450  1.7337 -0.8809
  210MOL    H6725565   8.232   7.611   1.575 -0.7612 -0.1497 -0.2444
  210MOL    C6825566   8.117   7.740   1.446 -0.2875 -0.7027 -0.6628
  210MOL   Cl6925567   8.135   7.895   1.366 -0.3584 -0.3225  0.1642
  210MOL   Cl7025568   8.004   7.755   1.580 -0.1602 -0.1503  0.2137
  210MOL    C7125569   8.056   7.654   1.332 -0.1222 -0.3696  0.0960
  210MOL    H7225570   7.956   7.693   1.313  0.6528  1.2605 -0.7443
  210MOL    H7325571   8.108   7.677   1.239  1.1129  1.1639  1.1410
  210MOL    C7425572   8.049   7.495   1.350 -0.1070  0.5332  0.9423
  210MOL   Cl7525573   8.018   7.450   1.520  0.0748 -0.1339  0.1917
  210MOL   Cl7625574   8.211   7.432   1.314  0.0260  0.1814  0.2111
  210MOL    C7725575   7.950   7.417   1.272  0.3302 -0.0855  0.3347
  210MOL    H7825576   7.972   7.314   1.298 -0.4084 -0.3530 -0.0938
  210MOL    H7925577   7.851   7.433   1.313 -0.5360 -1.2287 -1.2485
  210MOL    C8025578   7.930   7.433   1.116 -0.4703  0.2115 -0.4989
  210MOL   Cl8125579   7.865   7.595   1.087 -0.1074 -0.0244 -0.3657
  210MOL   Cl8225580   7.799   7.324   1.084 -0.2035  0.0077  0.2718
  210MOL    C8325581   8.054   7.403   1.023 -0.8054 -0.2676 -0.5575
  210MOL    H8425582   8.141   7.449   1.070 -1.9901 -0.1009  1.5090
  210MOL    H8525583   8.062   7.296   1.038  1.9568  0.1400  1.1167
  210MOL    C8625584   8.052   7.443   0.870  0.5257  0.3407 -0.8240
  210MOL   Cl8725585   8.088   7.613   0.858 -0.1148 -0.4373  0.3946
  210MOL   Cl8825586   7.898   7.413   0.795 -0.5368 -0.3381  0.4377
  210MOL    C8925587   8.148   7.353   0.785 -0.4098 -0.1146  0.0731
  210MOL    H9025588   8.109   7.252   0.776 -0.0225 -0.4956  2.3055
  210MOL    H9125589   8.155   7.398   0.686  0.2052 -2.3811 -0.9315
  210MOL    C9225590   8.300   7.322   0.825 -0.0727  0.1390  0.2375
  210MOL   Cl9325591   8.301   7.222   0.972 -0.0051  0.1425  0.6354
  210MOL   Cl9425592   8.385   7.485   0.868  0.5082  0.1282 -0.3532
  210MOL    C9525593   8.385   7.259   0.705 -0.2977 -0.5272 -0.8198
  210MOL    H9625594   8.401   7.341   0.635  1.3153  0.1637  0.3391
  210MOL    H9725595   8.484   7.247   0.749 -1.4710  0.3634  2.1836
  210MOL    C9825596   8.347   7.128   0.632 -0.1703 -0.7645  0.0685
  210MOL   Cl9925597   8.195   7.140   0.546  0.1819  0.1504 -0.7390
  210MOL  Cl10025598   8.316   6.996   0.756 -0.2708  0.0865 -0.0852
  210MOL   C10125599   8.458   7.065   0.548  0.5069 -0.5145  0.7227
  210MOL   H10225600   8.539   7.020   0.606  1.4397 -0.4329 -0.4939
  210MOL   H10325601   8.415   6.978   0.499 -2.4237  1.2905 -0.0276
  210MOL   C10425602   8.528   7.148   0.433 -0.8587 -0.9189 -0.3585
  210MOL  Cl10525603   8.655   7.240   0.508 -0.0503  0.0398 -0.1945
  210MOL  Cl10625604   8.416   7.257   0.348 -0.1044  0.3942 -0.2233
  210MOL   C10725605   8.596   7.055   0.326 -0.4811  0.0997  0.8815
  210MOL   H10825606   8.518   6.995   0.279  1.2134 -1.2499 -0.2861
  210MOL   H10925607   8.643   7.120   0.253  1.3312 -1.1436  0.8991
  210MOL   C11025608   8.701   6.951   0.352 -0.6010 -1.2555 -0.7915
  210MOL  Cl11125609   8.731   6.861   0.200 -0.1471 -0.1870 -0.1008
  210MOL  Cl11225610   8.648   6.832   0.478 -0.6471 -0.1783 -0.0202
  210MOL   C11325611   8.843   6.997   0.409  0.7564  0.0403 -0.2641
  210MOL   H11425612   8.807   7.044   0.501 -0.5301 -1.8043  0.1967
  210MOL   H11525613   8.891   6.904   0.438  1.4520  1.0564  1.9777
  210MOL   C11625614   8.949   7.074   0.315 -0.0762 -0.4631 -0.0086
  210MOL  Cl11725615   8.872   7.210   0.228  0.3826 -0.0563 -0.3383
  210MOL  Cl11825616   9.035   6.963   0.213  0.2220  0.1435  0.3819
  210MOL   C11925617   9.058   7.127   0.406  0.1311  0.6211 -0.8593
  210MOL   H12025618   9.102   7.050   0.469 -1.5900 -0.0097 -0.4052
  210MOL   H12125619   9.138   7.175   0.350  1.2469 -1.1630 -0.8358
  210MOL   H12225620   9.025   7.211   0.468  1.0615  1.4845 -1.5253
  211MOL     C125621   9.116   5.398   8.583 -0.3915 -0.6491 -0.1552
  211MOL    Cl225622   9.164   5.246   8.510  0.2886  0.0711  0.1520
  211MOL    Cl325623   9.081   5.357   8.756  0.3559 -0.2814 -0.3878
  211MOL     C425624   0.042   5.506   8.573  0.3787  0.1675 -0.2357
  211MOL     H525625   0.050   5.555   8.670  2.8043 -0.8166  0.1034
  211MOL     H625626   0.142   5.462   8.562 -0.3556 -1.7517  0.4738
  211MOL     H725627   9.023   5.423   8.531  0.4919  2.0648 -0.4951
  211MOL     C825628   0.031   5.611   8.465  0.1733  0.2719 -0.4895
  211MOL    Cl925629   9.050   5.686   8.476  0.5024  0.0864 -0.1502
  211MOL   Cl1025630   0.033   5.530   8.303  0.0210 -0.1155 -0.1577
  211MOL    C1125631   0.147   5.717   8.473 -0.1792 -0.4819 -0.3504
  211MOL    H1225632   0.135   5.774   8.565 -0.8784 -0.8078 -0.2393
  211MOL    H1325633   0.236   5.662   8.504 -1.0642 -0.5885  2.1138
  211MOL    C1425634   0.198   5.819   8.362  0.5153 -0.5222  0.1277
  211MOL   Cl1525635   0.056   5.899   8.297  0.2862  0.0659  0.0108
  211MOL   Cl1625636   0.286   5.753   8.218 -0.3162 -0.1722 -0.0970
  211MOL    C1725637   0.280   5.933   8.435 -0.3406 -0.4410  0.8322
  211MOL    H1825638   0.320   6.001   8.360  0.7596 -1.9287  0.0377
  211MOL    H1925639   0.211   5.982   8.503 -0.3618  0.1708  0.3668
  211MOL    C2025640   0.403   5.908   8.517  0.3029  0.2452 -0.0207
  211MOL   Cl2125641   0.491   5.773   8.447  0.2592 -0.4081  0.0133
  211MOL   Cl2225642   0.360   5.880   8.691 -0.0757  0.4896  0.3690
  211MOL    C2325643   0.511   6.022   8.511  0.4980 -0.8168  0.1390
  211MOL    H2425644   0.603   5.991   8.560  0.9250  0.3614  0.0983
  211MOL    H2525645   0.543   6.027   8.406  0.6336  3.1882  0.2969
  211MOL    C2625646   0.483   6.170   8.559 -0.2303  0.1995 -0.0409
  211MOL   Cl2725647   0.512   6.169   8.730  0.3923  0.2537 -0.2258
  211MOL   Cl2825648   0.308   6.218   8.521  0.0060 -0.1225  0.3383
  211MOL    C2925649   0.582   6.268   8.486  0.2499  0.4224  0.2824
  211MOL    H3025650   0.556   6.270   8.380 -1.0955  1.0804  0.6233
  211MOL    H3125651   0.546   6.368   8.513 -2.6546 -0.6752  0.6420
  211MOL    C3225652   0.743   6.251   8.486  0.1864  0.2461 -0.1598
  211MOL   Cl3325653   0.804   6.396   8.402 -0.6754 -0.0292 -0.4118
  211MOL   Cl3425654   0.773   6.116   8.375 -0.0423  0.0516  0.0566
  211MOL    C3525655   0.799   6.233   8.627  0.0255  0.2003  1.1381
  211MOL    H3625656   0.791   6.328   8.679  3.8356  0.7874  0.8268
  211MOL    H3725657   0.738   6.159   8.678 -0.9229  0.7964  0.8757
  211MOL    C3825658   0.940   6.174   8.639  0.5043  0.0885  0.0981
  211MOL   Cl3925659   1.043   6.236   8.513  0.1651 -0.2736  0.0243
  211MOL   Cl4025660   0.921   6.001   8.625 -0.5346 -0.0962  0.4014
  211MOL    C4125661   0.998   6.202   8.781 -0.0953 -0.6629 -0.4362
  211MOL    H4225662   0.993   6.308   8.805  2.7188 -0.6686  0.4004
  211MOL    H4325663   0.937   6.161   8.861 -0.3926 -0.3763 -0.5190
  211MOL    C4425664   1.145   6.165   8.822  0.8063  0.3387 -0.1678
  211MOL   Cl4525665   1.185   5.989   8.828 -0.1897 -0.3731 -0.1926
  211MOL   Cl4625666   1.149   6.214   8.993 -0.1542  0.1255 -0.0399
  211MOL    C4725667   1.250   6.243   8.732  0.0543  0.2958 -0.4847
  211MOL    H4825668   1.264   6.181   8.644 -0.5375 -0.2424 -0.1972
  211MOL    H4925669   1.207   6.338   8.702  1.2671  0.8130 -0.6361
  211MOL    C5025670   1.381   6.283   8.784  0.4096 -0.3895  0.1997
  211MOL   Cl5125671   1.352   6.432   8.890 -0.0277 -0.1548  0.2979
  211MOL   Cl5225672   1.471   6.332   8.648 -0.1349  0.0609  0.1863
  211MOL    C5325673   1.461   6.171   8.863  0.1684  0.3616  0.2217
  211MOL    H5425674   1.398   6.142   8.947 -1.5209 -0.3458 -1.2483
  211MOL    H5525675   1.460   6.080   8.802 -2.7440  1.0031 -0.7870
  211MOL    C5625676   1.606   6.179   8.912 -0.0822  0.1118  0.3873
  211MOL   Cl5725677   1.625   6.321   9.008 -0.3647 -0.0457  0.1850
  211MOL   Cl5825678   1.729   6.183   8.787 -0.2766 -0.0830  0.1140
  211MOL    C5925679   1.642   6.069   9.016  0.3304 -0.0862  0.0662
  211MOL    H6025680   1.749   6.070   9.036 -0.1980 -2.8256  3.4752
  211MOL    H6125681   1.588   6.104   9.103  3.2475  0.8316  1.5842
  211MOL    C6225682   1.607   5.914   8.983  0.0440 -0.6955  0.4491
  211MOL   Cl6325683   1.424   5.888   8.995  0.3496  0.1568  0.2641
  211MOL   Cl6425684   1.668   5.826   9.120  0.2221  0.1504 -0.3676
  211MOL    C6525685   1.668   5.847   8.854 -0.2025  0.0188  0.0049
  211MOL    H6625686   1.596   5.875   8.777 -0.3751  0.7688  0.4392
  211MOL    H6725687   1.760   5.899   8.823 -0.6233  1.6997  1.5271
  211MOL    C6825688   1.689   5.693   8.838  0.4000 -0.5662 -0.2250
  211MOL   Cl6925689   1.541   5.613   8.881 -0.4512  0.3025 -0.2698
  211MOL   Cl7025690   1.830   5.629   8.936  0.0080 -0.2237  0.3701
  211MOL    C7125691   1.717   5.660   8.690 -0.8085 -0.2024  0.3308
  211MOL    H7225692   1.620   5.652   8.641 -0.3952 -1.5896 -0.2868
  211MOL    H7325693   1.756   5.750   8.643 -0.1999 -0.5799  0.1083
  211MOL    C7425694   1.788   5.525   8.647 -0.2672  0.6153  0.1099
  211MOL   Cl7525695   1.739   5.480   8.484 -0.0058 -0.1889  0.1102
  211MOL   Cl7625696   1.733   5.379   8.740  0.2515  0.1488 -0.4343
  211MOL    C7725697   1.946   5.522   8.658  0.1589 -0.0505 -0.1563
  211MOL    H7825698   1.988   5.491   8.753 -1.8208 -0.0093  0.7537
  211MOL    H7925699   1.978   5.437   8.598 -1.1393 -0.5383 -0.1559
  211MOL    C8025700   2.042   5.635   8.606  0.2065  0.5922 -0.0326
  211MOL   Cl8125701   1.982   5.719   8.459  0.0323 -0.0107  0.1838
  211MOL   Cl8225702   2.199   5.566   8.565 -0.2096 -0.2511 -0.1157
  211MOL    C8325703   2.073   5.744   8.714  0.1956  1.0435  0.4228
  211MOL    H8425704   1.975   5.757   8.761 -0.5365  3.4878 -1.6882
  211MOL    H8525705   2.131   5.697   8.793  1.0063 -1.1370 -1.3927
  211MOL    C8625706   2.128   5.887   8.684 -0.2673  0.3221  0.3457
  211MOL   Cl8725707   2.157   5.946   8.848 -0.3342 -0.1539 -0.0406
  211MOL   Cl8825708   1.998   6.001   8.633  0.1340  0.1256 -0.3673
  211MOL    C8925709   2.254   5.885   8.592 -0.6767 -0.2456 -0.3198
  211MOL    H9025710   2.323   5.818   8.645  1.5910  1.4843 -0.9826
  211MOL    H9125711   2.240   5.829   8.499 -1.7704 -0.0617 -0.2669
  211MOL    C9225712   2.344   6.002   8.555 -0.0612  0.5456 -0.0290
  211MOL   Cl9325713   2.286   6.079   8.401  0.0620  0.3030 -0.1287
  211MOL   Cl9425714   2.499   5.927   8.524 -0.0868  0.3291  0.1100
  211MOL    C9525715   2.367   6.107   8.667 -0.7534 -0.2317  0.0114
  211MOL    H9625716   2.272   6.131   8.713 -0.3008 -0.5059  1.1137
  211MOL    H9725717   2.414   6.048   8.746  0.2303  2.4347  1.4855
  211MOL    C9825718   2.446   6.240   8.649 -0.1201  0.0892  0.9016
  211MOL   Cl9925719   2.323   6.342   8.563  0.1088 -0.0008  0.2273
  211MOL  Cl10025720   2.591   6.229   8.544 -0.0402 -0.0195 -0.1388
  211MOL   C10125721   2.493   6.302   8.784 -0.2208  0.0888 -0.9107
  211MOL   H10225722   2.584   6.255   8.821 -0.1685  2.6477  2.3689
  211MOL   H10325723   2.533   6.398   8.753 -1.0980  0.0411 -2.2702
  211MOL   C10425724   2.406   6.326   8.912 -0.3318  0.3088  0.7206
  211MOL  Cl10525725   2.508   6.431   9.018 -0.1339  0.3610 -0.1316
  211MOL  Cl10625726   2.384   6.169   8.993 -0.2506 -0.2571 -0.0894
  211MOL   C10725727   2.280   6.420   8.882 -0.2667  0.7541 -0.1521
  211MOL   H10825728   2.311   6.521   8.857  0.5178  0.3589 -0.7963
  211MOL   H10925729   2.228   6.397   8.789 -2.3567  0.4521  1.0668
  211MOL   C11025730   2.160   6.417   8.978  0.1575  0.2990  0.1844
  211MOL  Cl11125731   2.203   6.408   9.152 -0.0648 -0.3280 -0.4293
  211MOL  Cl11225732   2.055   6.278   8.938  0.1588 -0.5206  0.1556
  211MOL   C11325733   2.064   6.540   8.957  0.2940  0.2718  0.4513
  211MOL   H11425734   1.969   6.523   9.007  1.2605  0.8930  2.5319
  211MOL   H11525735   2.115   6.609   9.025 -1.1472 -1.3390  3.2340
  211MOL   C11625736   2.020   6.591   8.818  0.4722 -0.1466  1.0707
  211MOL  Cl11725737   2.156   6.666   8.732  0.0823 -0.2546 -0.0786
  211MOL  Cl11825738   1.922   6.733   8.853  0.0918 -0.0968  0.1658
  211MOL   C11925739   1.936   6.498   8.722 -0.0821 -0.2666 -0.1097
  211MOL   H12025740   1.877   6.559   8.653  0.3800 -0.1996 -0.4493
  211MOL   H12125741   2.000   6.421   8.679 -0.8463 -1.0203  0.0837
  211MOL   H12225742   1.858   6.438   8.770 -0.5102 -0.5001 -1.0825
  212MOL     C125743   8.066   2.377   0.102 -0.6180 -0.6119  0.4354
  212MOL    Cl225744   8.084   2.325   0.275 -0.2287 -0.0738 -0.3854
  212MOL    Cl325745   8.119   2.549   0.090  0.3872 -0.1021 -0.3256
  212MOL     C425746   8.145   2.278   0.004 -0.3409  0.2684  0.1380
  212MOL     H525747   8.251   2.302   0.004  0.2437 -2.2125 -0.3445
  212MOL     H625748   8.140   2.179   0.048 -1.5617 -0.5895 -1.8318
  212MOL     H725749   7.960   2.363   0.079 -0.6143  0.6714 -0.3686
  212MOL     C825750   8.090   2.266   9.040  0.1275  0.1754  0.8926
  212MOL    Cl925751   8.082   2.422   8.962 -0.1098  0.2391  0.0813
  212MOL   Cl1025752   7.925   2.193   9.039 -0.0085 -0.0294  0.0991
  212MOL    C1125753   8.175   2.176   8.949  0.8560  0.2288 -0.0697
  212MOL    H1225754   8.123   2.155   8.855  1.4969  0.9873 -0.5985
  212MOL    H1325755   8.263   2.238   8.932  1.3872 -0.9542 -1.8125
  212MOL    C1425756   8.233   2.036   8.995  0.1044 -0.5621 -0.5050
  212MOL   Cl1525757   8.101   1.924   9.045  0.0166  0.4881 -0.2627
  212MOL   Cl1625758   8.350   2.052   9.128  0.1985 -0.4252 -0.1448
  212MOL    C1725759   8.303   1.952   8.881 -0.8136 -0.0533 -0.4895
  212MOL    H1825760   8.300   1.847   8.912  1.0541 -0.0355 -0.2205
  212MOL    H1925761   8.235   1.948   8.796  0.2956  1.6117 -1.4926
  212MOL    C2025762   8.443   1.982   8.827  0.0951  0.3212  0.3984
  212MOL   Cl2125763   8.566   1.916   8.935  0.1605  0.0220 -0.2984
  212MOL   Cl2225764   8.479   2.155   8.820  0.0642 -0.0161  0.3508
  212MOL    C2325765   8.470   1.920   8.683 -0.0181 -0.2183  0.3640
  212MOL    H2425766   8.456   1.991   8.602  0.0701 -0.9394 -0.2923
  212MOL    H2525767   8.579   1.914   8.684  0.1477  2.2469  2.9641
  212MOL    C2625768   8.418   1.777   8.649  0.2509 -0.2125  0.5153
  212MOL   Cl2725769   8.253   1.792   8.599  0.3245  0.0018  0.0638
  212MOL   Cl2825770   8.431   1.664   8.783 -0.0724  0.1307  0.1996
  212MOL    C2925771   8.486   1.721   8.521  0.3149  0.3977  0.7727
  212MOL    H3025772   8.437   1.770   8.437  2.1926  2.2468  0.7097
  212MOL    H3125773   8.585   1.766   8.522  0.0642  1.0572 -1.5953
  212MOL    C3225774   8.492   1.564   8.494  0.5378  0.5559  0.9996
  212MOL   Cl3325775   8.522   1.551   8.315 -0.2385 -0.0427  0.0268
  212MOL   Cl3425776   8.330   1.492   8.518  0.0870  0.0249 -0.0726
  212MOL    C3525777   8.588   1.462   8.569  0.3610  0.4197  0.0655
  212MOL    H3625778   8.533   1.434   8.659 -0.8927  0.1440 -0.7877
  212MOL    H3725779   8.571   1.376   8.505  0.9897  1.1437 -1.0967
  212MOL    C3825780   8.738   1.494   8.599 -0.0132  0.2013 -0.1588
  212MOL   Cl3925781   8.744   1.634   8.708 -0.1729  0.0127 -0.3296
  212MOL   Cl4025782   8.822   1.537   8.445  0.0322  0.2789 -0.2068
  212MOL    C4125783   8.814   1.370   8.658 -0.2363  0.5443 -0.2395
  212MOL    H4225784   8.844   1.312   8.570 -0.8665 -0.9866  0.5467
  212MOL    H4325785   8.907   1.419   8.687 -1.0515  0.7875  2.0292
  212MOL    C4425786   8.769   1.270   8.762  0.3423 -0.3515 -0.0685
  212MOL   Cl4525787   8.629   1.178   8.714 -0.4144  0.0216 -0.0974
  212MOL   Cl4625788   8.711   1.354   8.908 -0.3698 -0.2828 -0.3500
  212MOL    C4725789   8.881   1.160   8.798  0.3642 -0.2646  0.6466
  212MOL    H4825790   8.941   1.215   8.871 -0.6793  1.3588  0.3068
  212MOL    H4925791   8.836   1.080   8.856  2.9073 -1.8429  0.5116
  212MOL    C5025792   8.975   1.104   8.686  0.3987  0.7267  0.1191
  212MOL   Cl5125793   9.077   1.232   8.623  0.0593  0.0421  0.2019
  212MOL   Cl5225794   8.879   1.035   8.560  0.2660 -0.4262  0.0952
  212MOL    C5325795   9.074   0.993   8.736 -0.1816  0.3549  0.1256
  212MOL    H5425796   9.017   0.922   8.796  1.0394  0.3738  1.3157
  212MOL    H5525797   9.101   0.926   8.654 -2.1691 -1.9291  1.2564
  212MOL    C5625798   0.033   1.031   8.802 -0.2462  0.6005  0.1692
  212MOL   Cl5725799   0.082   0.884   8.893  0.4137 -0.3888  0.0086
  212MOL   Cl5825800   0.020   1.167   8.924 -0.0292  0.1634  0.3361
  212MOL    C5925801   0.151   1.063   8.698 -0.0009  0.5845 -0.3742
  212MOL    H6025802   0.121   0.995   8.618 -1.3377 -0.8414  1.2956
  212MOL    H6125803   0.138   1.165   8.664 -0.0009  0.1324 -1.7761
  212MOL    C6225804   0.306   1.046   8.734 -0.4320  0.0239  0.0051
  212MOL   Cl6325805   0.387   1.123   8.597 -0.1337  0.0051  0.2388
  212MOL   Cl6425806   0.342   0.866   8.731 -0.2608 -0.2812  0.4240
  212MOL    C6525807   0.329   1.119   8.872  0.7545 -0.9191  0.2887
  212MOL    H6625808   0.293   1.220   8.853 -0.4799 -1.3120  0.4748
  212MOL    H6725809   0.267   1.076   8.951  2.4473 -0.4111  1.9241
  212MOL    C6825810   0.470   1.132   8.937  0.1684  0.2811  0.1934
  212MOL   Cl6925811   0.438   1.214   9.089 -0.2759 -0.4470 -0.3890
  212MOL   Cl7025812   0.563   1.242   8.834 -0.4737  0.0335 -0.0814
  212MOL    C7125813   0.538   0.995   8.945  0.6897  0.3451  0.8984
  212MOL    H7225814   0.457   0.926   8.971  2.0603 -1.5499  0.2045
  212MOL    H7325815   0.564   0.979   8.841 -1.5992  1.9738  0.0416
  212MOL    C7425816   0.655   0.962   9.039 -0.3203 -0.1586 -0.1018
  212MOL   Cl7525817   0.689   0.793   9.005 -0.1602  0.0481  0.1614
  212MOL   Cl7625818   0.589   0.974   0.023  0.2724  0.4914  0.0269
  212MOL    C7725819   0.775   1.054   9.020  0.2731  0.6188  0.6587
  212MOL    H7825820   0.810   1.056   8.917  0.2454  1.0388  0.6551
  212MOL    H7925821   0.741   1.155   9.043 -0.0412  0.8362 -0.7288
  212MOL    C8025822   0.910   1.035   9.107  0.6387  0.2557 -0.1131
  212MOL   Cl8125823   1.011   1.166   9.044 -0.0609 -0.3485 -0.0112
  212MOL   Cl8225824   0.984   0.873   9.066  0.0242 -0.4236 -0.0208
  212MOL    C8325825   0.888   1.041   0.080  0.4590 -0.5364 -0.4655
  212MOL    H8425826   0.811   1.118   0.092 -0.1011 -0.8740 -1.7593
  212MOL    H8525827   0.827   0.960   0.120 -2.0166  1.7943  0.7233
  212MOL    C8625828   1.010   1.071   0.181  0.1719 -0.4871  0.0313
  212MOL   Cl8725829   0.937   1.063   0.337  0.3440 -0.3145 -0.1599
  212MOL   Cl8825830   1.053   1.239   0.153 -0.1948 -0.2106  0.4983
  212MOL    C8925831   1.123   0.963   0.164 -0.5830 -0.8547  0.2542
  212MOL    H9025832   1.092   0.859   0.171 -0.7607 -0.7178  1.6254
  212MOL    H9125833   1.167   0.988   0.068  1.7650  0.4275  1.6111
  212MOL    C9225834   1.239   0.965   0.262  0.3346 -0.7419 -0.3346
  212MOL   Cl9325835   1.347   0.838   0.194 -0.0719 -0.2336 -0.2843
  212MOL   Cl9425836   1.197   0.913   0.427 -0.0568  0.1193  0.2218
  212MOL    C9525837   1.310   1.108   0.265  0.2233 -0.1919 -0.4130
  212MOL    H9625838   1.310   1.150   0.164  1.0067  0.4822 -0.1406
  212MOL    H9725839   1.238   1.165   0.325  1.4109  1.4804 -0.5254
  212MOL    C9825840   1.454   1.124   0.332  0.6516 -0.4953  0.0446
  212MOL   Cl9925841   1.581   1.028   0.238  0.0679 -0.3084 -0.1543
  212MOL  Cl10025842   1.468   1.072   0.504  0.1531 -0.5099  0.0228
  212MOL   C10125843   1.510   1.273   0.318 -0.8202 -0.5463 -0.4846
  212MOL   H10225844   1.614   1.279   0.348 -1.0970 -1.2266  0.6485
  212MOL   H10325845   1.521   1.294   0.211  0.2127 -1.2841 -0.5243
  212MOL   C10425846   1.446   1.392   0.383  0.5107 -0.3765  0.0412
  212MOL  Cl10525847   1.288   1.426   0.314  0.2501  0.1587 -0.4667
  212MOL  Cl10625848   1.542   1.534   0.343 -0.0359  0.4208 -0.2819
  212MOL   C10725849   1.441   1.385   0.538  0.7458  0.1979  0.4482
  212MOL   H10825850   1.359   1.316   0.560 -0.6855  1.2878 -1.2469
  212MOL   H10925851   1.524   1.329   0.580  0.4698 -0.2662  0.3759
  212MOL   C11025852   1.430   1.505   0.636 -0.9148 -0.0825  0.2776
  212MOL  Cl11125853   1.302   1.616   0.587  0.1060 -0.1551 -0.2389
  212MOL  Cl11225854   1.582   1.599   0.639  0.2911  0.1461 -0.3068
  212MOL   C11325855   1.402   1.465   0.785  0.2995 -1.0010 -0.8421
  212MOL   H11425856   1.424   1.548   0.853 -2.3300  0.6344 -1.9266
  212MOL   H11525857   1.293   1.468   0.788  0.3487  1.6954 -0.4232
  212MOL   C11625858   1.464   1.337   0.850 -0.6857  0.6888  0.2162
  212MOL  Cl11725859   1.638   1.333   0.821  0.4403 -0.6891  0.1488
  212MOL  Cl11825860   1.384   1.191   0.784 -0.1186 -0.1580  0.3693
  212MOL   C11925861   1.450   1.330   0.999  0.3434 -0.1744  1.1121
  212MOL   H12025862   1.488   1.421   1.046 -0.3737  0.3267  0.7312
  212MOL   H12125863   1.348   1.310   1.033  0.0361  0.6512  0.6883
  212MOL   H12225864   1.513   1.247   1.031 -0.1715 -1.5593 -1.3611
  213MOL     C125865   5.162   2.225   3.277  0.1886  0.3719 -0.0771
  213MOL    Cl225866   5.166   2.067   3.362 -0.4705  0.1229  0.0452
  213MOL    Cl325867   5.250   2.352   3.357 -0.0800 -0.2857 -0.1032
  213MOL     C425868   5.193   2.220   3.120  0.1805  0.5876 -0.4253
  213MOL     H525869   5.203   2.325   3.091  0.3973  0.4006 -1.0347
  213MOL     H625870   5.288   2.173   3.094 -0.6006 -0.6092 -1.1625
  213MOL     H725871   5.059   2.260   3.269 -0.2319 -1.3851 -3.4441
  213MOL     C825872   5.086   2.161   3.022  0.3178  0.6977  0.7225
  213MOL    Cl925873   4.938   2.261   3.034  0.1469  0.0767  0.5297
  213MOL   Cl1025874   5.050   1.990   3.061 -0.5824  0.0321 -0.1406
  213MOL    C1125875   5.134   2.150   2.877  0.4985 -0.2304 -0.6223
  213MOL    H1225876   5.214   2.077   2.860  0.6140 -0.3101  0.2213
  213MOL    H1325877   5.044   2.109   2.831  1.7846 -3.1534 -0.6741
  213MOL    C1425878   5.180   2.270   2.800  0.2966 -0.1729  0.5813
  213MOL   Cl1525879   5.346   2.307   2.853 -0.0523 -0.0489 -0.1900
  213MOL   Cl1625880   5.071   2.408   2.814 -0.1301 -0.4027  0.3287
  213MOL    C1725881   5.187   2.262   2.645 -0.0179  0.9661  0.1186
  213MOL    H1825882   5.204   2.362   2.605  2.6635 -0.0524 -1.4500
  213MOL    H1925883   5.277   2.203   2.625 -0.8919 -0.9643  1.6331
  213MOL    C2025884   5.075   2.174   2.570  0.2920 -0.6784  0.4662
  213MOL   Cl2125885   4.909   2.213   2.633  0.1036  0.1574  0.5212
  213MOL   Cl2225886   5.101   1.998   2.590  0.1192 -0.0623 -0.1011
  213MOL    C2325887   5.060   2.202   2.418 -0.2393 -0.2391  0.2239
  213MOL    H2425888   4.965   2.168   2.377 -1.3668  1.3704  1.4389
  213MOL    H2525889   5.045   2.309   2.405 -0.9873 -0.3880 -0.1571
  213MOL    C2625890   5.172   2.168   2.319 -0.6916 -0.0313 -0.7056
  213MOL   Cl2725891   5.178   1.990   2.286 -0.2159  0.3284 -0.0013
  213MOL   Cl2825892   5.329   2.219   2.382  0.6225 -0.0338 -0.3589
  213MOL    C2925893   5.176   2.244   2.177 -0.2408 -0.2982  0.8040
  213MOL    H3025894   5.182   2.351   2.201 -1.5634  0.0617 -0.4110
  213MOL    H3125895   5.275   2.228   2.135 -0.7980 -0.8810 -0.3034
  213MOL    C3225896   5.070   2.229   2.063 -0.2077 -0.2211 -0.0626
  213MOL   Cl3325897   5.054   2.383   1.979  0.1843 -0.0064 -0.1701
  213MOL   Cl3425898   4.902   2.194   2.123 -0.0448 -0.0567 -0.1918
  213MOL    C3525899   5.089   2.124   1.950  0.0787  0.3603 -1.1385
  213MOL    H3625900   5.070   2.022   1.986  1.7834  0.7104  0.8315
  213MOL    H3725901   5.003   2.132   1.884 -0.9556 -2.9375 -0.3115
  213MOL    C3825902   5.230   2.116   1.875 -0.2346  0.4027 -0.1792
  213MOL   Cl3925903   5.334   2.010   1.970 -0.0445  0.1363 -0.1373
  213MOL   Cl4025904   5.321   2.273   1.853 -0.2969 -0.1199 -0.3750
  213MOL    C4125905   5.207   2.044   1.740  0.5076  0.5755  0.1038
  213MOL    H4225906   5.293   1.978   1.733  0.6194  0.7693 -0.3515
  213MOL    H4325907   5.128   1.978   1.776 -0.3281  0.7849 -1.3120
  213MOL    C4425908   5.161   2.111   1.605 -0.1704 -0.0289  0.2186
  213MOL   Cl4525909   5.295   2.206   1.529 -0.3558  0.1514  0.1751
  213MOL   Cl4625910   5.032   2.228   1.635 -0.4395 -0.4618 -0.1324
  213MOL    C4725911   5.125   2.007   1.491 -0.6759 -0.1150 -0.9299
  213MOL    H4825912   5.078   2.060   1.407 -2.1112 -1.1401 -0.7915
  213MOL    H4925913   5.212   1.966   1.440  1.4142 -1.0971  3.2992
  213MOL    C5025914   5.025   1.885   1.521  0.4162  1.3560  0.5595
  213MOL   Cl5125915   4.875   1.946   1.594 -0.1035 -0.0558  0.0883
  213MOL   Cl5225916   5.089   1.764   1.633 -0.0469  0.4677 -0.2423
  213MOL    C5325917   4.976   1.807   1.395 -0.4320 -0.0384  0.0019
  213MOL    H5425918   4.913   1.728   1.436 -1.1127  0.8881  0.7929
  213MOL    H5525919   4.907   1.863   1.333 -0.5612  0.5345  0.6533
  213MOL    C5625920   5.081   1.755   1.295 -0.5695  1.0223 -0.0646
  213MOL   Cl5725921   5.238   1.694   1.364  0.2140 -0.1727  0.0435
  213MOL   Cl5825922   5.132   1.891   1.198  0.4492  0.6930  0.1068
  213MOL    C5925923   5.027   1.651   1.188  0.3830 -0.1261  0.0711
  213MOL    H6025924   4.955   1.709   1.131  0.2482 -2.8954 -2.7337
  213MOL    H6125925   5.116   1.637   1.128  0.3116  0.1622 -0.1020
  213MOL    C6225926   4.971   1.514   1.206 -0.1796  0.4545 -0.3554
  213MOL   Cl6325927   4.812   1.531   1.282 -0.0865 -0.3543  0.0220
  213MOL   Cl6425928   5.068   1.409   1.302 -0.3348 -0.4424 -0.2579
  213MOL    C6525929   4.959   1.454   1.059  0.0444 -0.3995 -0.1736
  213MOL    H6625930   4.949   1.532   0.984  0.4163 -0.1877 -0.0039
  213MOL    H6725931   5.057   1.410   1.041  0.3576  0.4046 -0.4305
  213MOL    C6825932   4.867   1.329   1.028 -0.0156  0.1135  0.1362
  213MOL   Cl6925933   4.885   1.199   1.147 -0.0525  0.2424 -0.0551
  213MOL   Cl7025934   4.932   1.267   0.870  0.5131 -0.2361 -0.2717
  213MOL    C7125935   4.720   1.364   1.008 -0.8341  0.1656 -0.2350
  213MOL    H7225936   4.680   1.395   1.104 -2.3369 -1.0195 -0.4565
  213MOL    H7325937   4.729   1.446   0.937  2.9541  1.1904  1.2781
  213MOL    C7425938   4.613   1.257   0.971  0.7827 -0.1978  0.0870
  213MOL   Cl7525939   4.644   1.218   0.801  0.2269 -0.2416  0.0584
  213MOL   Cl7625940   4.464   1.356   0.966  0.4366 -0.1144  0.0943
  213MOL    C7725941   4.590   1.130   1.052 -0.0086 -0.0621  0.9451
  213MOL    H7825942   4.683   1.074   1.038  0.9729  1.3296  1.8165
  213MOL    H7925943   4.593   1.156   1.158  2.6832  1.3933  0.5730
  213MOL    C8025944   4.462   1.038   1.035 -0.5577  0.3226 -0.0442
  213MOL   Cl8125945   4.320   1.119   1.078  0.1087 -0.1098  0.0434
  213MOL   Cl8225946   4.489   0.890   1.142 -0.1205  0.0245 -0.3843
  213MOL    C8325947   4.422   0.981   0.898 -0.3152  0.1909 -0.6726
  213MOL    H8425948   4.325   0.933   0.910  0.9705 -1.9422  1.7960
  213MOL    H8525949   4.409   1.063   0.828 -1.7897  1.9428  1.5886
  213MOL    C8625950   4.499   0.868   0.830 -0.3276  0.5851 -0.2711
  213MOL   Cl8725951   4.677   0.873   0.854  0.1698 -0.3322  0.3592
  213MOL   Cl8825952   4.475   0.907   0.658  0.1588 -0.1600 -0.3249
  213MOL    C8925953   4.440   0.730   0.860  0.0760  0.0198  0.1069
  213MOL    H9025954   4.401   0.721   0.961  0.6482  0.9371  0.4188
  213MOL    H9125955   4.346   0.714   0.807  0.4888 -1.0158 -0.3351
  213MOL    C9225956   4.514   0.594   0.827 -0.2195 -0.5504 -0.1431
  213MOL   Cl9325957   4.386   0.466   0.848  0.2323  0.1129  0.2189
  213MOL   Cl9425958   4.638   0.568   0.951  0.2634  0.1607  0.2254
  213MOL    C9525959   4.569   0.586   0.683  0.1820  0.4249 -0.5424
  213MOL    H9625960   4.505   0.631   0.607 -0.8253  0.0093  0.0547
  213MOL    H9725961   4.653   0.656   0.690 -1.8599  2.7437  1.6289
  213MOL    C9825962   4.622   0.444   0.622 -0.2436  0.1222  0.3637
  213MOL   Cl9925963   4.475   0.348   0.565 -0.2779  0.0998  0.1164
  213MOL  Cl10025964   4.716   0.356   0.741  0.0926 -0.0062 -0.0867
  213MOL   C10125965   4.724   0.460   0.511 -0.3791  0.4655  0.2040
  213MOL   H10225966   4.823   0.490   0.546 -0.1272  0.0994 -0.1905
  213MOL   H10325967   4.725   0.358   0.475 -0.2323  0.4789  0.1683
  213MOL   C10425968   4.706   0.549   0.382 -0.5124 -0.1454  0.3598
  213MOL  Cl10525969   4.741   0.713   0.447  0.2235  0.3499 -0.1579
  213MOL  Cl10625970   4.538   0.539   0.306  0.1356  0.0741 -0.1116
  213MOL   C10725971   4.822   0.528   0.273  0.0707  0.4096  0.2522
  213MOL   H10825972   4.802   0.591   0.187  2.2978  0.0558 -0.5303
  213MOL   H10925973   4.906   0.580   0.319 -1.8078  2.4925  1.4490
  213MOL   C11025974   4.848   0.388   0.206  0.2593 -0.5225  0.0159
  213MOL  Cl11125975   4.696   0.320   0.138  0.4124  0.0815 -0.0161
  213MOL  Cl11225976   4.901   0.275   0.332  0.2440 -0.1023  0.0946
  213MOL   C11325977   4.940   0.376   0.088 -0.4389  0.1559 -0.2063
  213MOL   H11425978   4.960   0.271   0.069  1.6784  0.2250  1.3399
  213MOL   H11525979   4.890   0.429   0.007  0.1077  0.3782 -0.4063
  213MOL   C11625980   5.077   0.440   0.091 -0.3320  0.0587  0.0887
  213MOL  Cl11725981   5.172   0.384   0.232  0.0855  0.3415  0.6076
  213MOL  Cl11825982   5.067   0.615   0.094 -0.1819 -0.0429 -0.1416
  213MOL   C11925983   5.158   0.394   9.149  0.7161  0.1675 -0.3393
  213MOL   H12025984   5.254   0.445   9.147  0.6023  0.4314  0.8107
  213MOL   H12125985   5.169   0.286   9.139  2.8464  0.4429 -1.1557
  213MOL   H12225986   5.102   0.436   9.065 -2.0533 -0.8641  0.9036
  214MOL     C125987   2.885   5.108   9.146 -0.1679  0.2156  0.0711
  214MOL    Cl225988   2.929   4.972   0.072 -0.3369 -0.2396 -0.1503
  214MOL    Cl325989   3.011   5.243   9.161  0.4710  0.0591  0.2263
  214MOL     C425990   2.888   5.061   9.002 -0.6369  0.1015  0.8462
  214MOL     H525991   2.986   5.084   8.960 -0.5718 -1.7446 -0.0932
  214MOL     H625992   2.876   4.953   8.993 -0.9666  0.3490 -2.2924
  214MOL     H725993   2.790   5.143   0.005  0.7677 -0.1567  2.7593
  214MOL     C825994   2.785   5.122   8.908  0.5070  0.1151 -0.1107
  214MOL    Cl925995   2.789   5.304   8.924 -0.3306 -0.2884  0.2092
  214MOL   Cl1025996   2.625   5.067   8.962  0.2770 -0.0575 -0.0419
  214MOL    C1125997   2.797   5.083   8.760 -0.2513  0.7695  0.0607
  214MOL    H1225998   2.756   4.982   8.755 -0.2921  0.6018  2.9595
  214MOL    H1325999   2.729   5.149   8.707 -0.3331 -0.2515 -1.1338
  214MOL    C1426000   2.925   5.087   8.680 -0.0745  0.4990  0.2390
  214MOL   Cl1526001   3.021   4.936   8.707 -0.0361  0.3702 -0.0901
  214MOL   Cl1626002   3.035   5.220   8.715  0.1617 -0.2731  0.0208
  214MOL    C1726003   2.893   5.093   8.526  0.6177 -0.7699  0.7892
  214MOL    H1826004   2.987   5.114   8.476 -1.3318  0.5058 -2.4844
  214MOL    H1926005   2.869   4.991   8.493  0.0029  0.1092 -1.5781
  214MOL    C2026006   2.793   5.194   8.448  0.6063  0.2483 -0.1737
  214MOL   Cl2126007   2.633   5.132   8.460 -0.3460  0.1362  0.0057
  214MOL   Cl2226008   2.823   5.193   8.272 -0.1589 -0.2496  0.5603
  214MOL    C2326009   2.803   5.345   8.498  0.5426  0.8160 -0.3533
  214MOL    H2426010   2.791   5.348   8.606  0.6101  1.4300 -0.3621
  214MOL    H2526011   2.907   5.371   8.484  0.5215  1.9457  1.4523
  214MOL    C2626012   2.712   5.469   8.452 -0.9428  0.1471 -0.2035
  214MOL   Cl2726013   2.539   5.439   8.468 -0.4021  0.3298 -0.0492
  214MOL   Cl2826014   2.755   5.503   8.283  0.0714  0.2020 -0.1537
  214MOL    C2926015   2.727   5.598   8.541  0.2036  0.2309  0.5558
  214MOL    H3026016   2.673   5.684   8.501 -1.9974 -0.0268  2.8863
  214MOL    H3126017   2.677   5.579   8.636 -3.9058  2.1185 -1.0943
  214MOL    C3226018   2.862   5.661   8.587  0.3303  1.1889 -0.1647
  214MOL   Cl3326019   2.980   5.657   8.453 -0.4408 -0.0093  0.6674
  214MOL   Cl3426020   2.943   5.559   8.712 -0.0375  0.3307 -0.0734
  214MOL    C3526021   2.852   5.809   8.626  0.5056 -0.5544 -0.4821
  214MOL    H3626022   2.944   5.862   8.597 -0.7755  0.6935 -2.4008
  214MOL    H3726023   2.789   5.862   8.554  0.8037  0.1791 -0.2102
  214MOL    C3826024   2.817   5.858   8.774 -0.2783  0.3001  0.4816
  214MOL   Cl3926025   2.660   5.775   8.803  0.0548 -0.1185 -0.0456
  214MOL   Cl4026026   2.791   6.026   8.745 -0.2281 -0.1946  0.0781
  214MOL    C4126027   2.919   5.840   8.890 -0.5927 -0.1949 -0.7451
  214MOL    H4226028   2.917   5.736   8.921 -0.6553 -0.1445 -0.5771
  214MOL    H4326029   3.022   5.853   8.855 -0.8836  0.9282 -1.2196
  214MOL    C4426030   2.896   5.929   9.019  0.5081 -0.2283  0.0897
  214MOL   Cl4526031   2.722   5.957   9.052 -0.4533  0.0328 -0.1310
  214MOL   Cl4626032   2.966   6.094   8.990 -0.1279 -0.1843 -0.2470
  214MOL    C4726033   2.945   5.871   9.153 -0.3766 -0.4717  0.3216
  214MOL    H4826034   2.917   5.955   0.037  1.5073  0.3673  0.0775
  214MOL    H4926035   2.882   5.783   9.161  0.7276 -1.5871 -2.4953
  214MOL    C5026036   3.087   5.823   9.162 -0.5529 -0.7917 -0.4997
  214MOL   Cl5126037   3.207   5.929   9.064 -0.3131  0.0129  0.3511
  214MOL   Cl5226038   3.107   5.659   9.090  0.4375 -0.1286 -0.6470
  214MOL    C5326039   3.144   5.816   0.124  0.0836  0.6910 -0.6969
  214MOL    H5426040   3.247   5.783   0.107  0.1032  0.3140  0.1494
  214MOL    H5526041   3.153   5.920   0.156 -0.6500  0.5435 -0.0051
  214MOL    C5626042   3.090   5.731   0.250  0.5775 -0.5828 -0.6719
  214MOL   Cl5726043   3.120   5.562   0.228 -0.0156  0.3867  0.0755
  214MOL   Cl5826044   2.913   5.758   0.274 -0.1219 -0.0108 -0.3606
  214MOL    C5926045   3.174   5.779   0.376 -0.4962 -0.6659 -0.6050
  214MOL    H6026046   3.273   5.818   0.351 -0.3154  0.7565  2.0772
  214MOL    H6126047   3.137   5.878   0.400 -0.3846 -0.2055 -2.2647
  214MOL    C6226048   3.181   5.694   0.509 -0.6098 -0.4736 -0.4579
  214MOL   Cl6326049   3.298   5.561   0.483  0.0091 -0.1549  0.0717
  214MOL   Cl6426050   3.019   5.620   0.541  0.1365  0.1555  0.3342
  214MOL    C6526051   3.231   5.774   0.636 -0.2898 -0.4127 -0.0400
  214MOL    H6626052   3.226   5.710   0.724  1.1394  0.9247  1.0340
  214MOL    H6726053   3.340   5.781   0.634 -0.2351 -0.8601  0.8259
  214MOL    C6826054   3.165   5.914   0.670 -0.5002 -0.3303  0.5759
  214MOL   Cl6926055   2.990   5.917   0.634  0.0530 -0.1158 -0.7710
  214MOL   Cl7026056   3.245   6.047   0.585  0.1832  0.0085  0.4339
  214MOL    C7126057   3.199   5.933   0.820 -0.2595  0.1515 -0.2586
  214MOL    H7226058   3.138   5.858   0.871 -1.0359  0.2262 -1.0703
  214MOL    H7326059   3.304   5.905   0.833 -0.4107 -0.2265  0.1828
  214MOL    C7426060   3.194   6.073   0.899  0.0629  0.1672 -0.1020
  214MOL   Cl7526061   3.359   6.144   0.885  0.2925  0.0657  0.3904
  214MOL   Cl7626062   3.185   6.032   1.073 -0.0084 -0.1874  0.1666
  214MOL    C7726063   3.087   6.177   0.852 -0.3871 -0.2308 -0.4873
  214MOL    H7826064   3.068   6.176   0.745  1.6320  3.1705 -0.9340
  214MOL    H7926065   2.996   6.136   0.897 -1.1200  0.2607 -1.5153
  214MOL    C8026066   3.103   6.331   0.878 -0.0362 -0.0660 -0.4610
  214MOL   Cl8126067   3.207   6.388   0.745  0.2362  0.1683 -0.0030
  214MOL   Cl8226068   3.165   6.349   1.044  0.1137 -0.5889 -0.1590
  214MOL    C8326069   2.985   6.438   0.862  0.6001 -0.0617  0.7593
  214MOL    H8426070   3.034   6.522   0.912 -1.1050  0.1825  2.0562
  214MOL    H8526071   2.967   6.464   0.758 -0.0516  0.4626  0.9993
  214MOL    C8626072   2.851   6.412   0.926  0.7251  0.0587 -0.0174
  214MOL   Cl8726073   2.870   6.351   1.092 -0.3830 -0.1617 -0.0088
  214MOL   Cl8826074   2.766   6.275   0.849 -0.0266  0.0302 -0.0122
  214MOL    C8926075   2.747   6.524   0.932  0.0289 -0.6758 -0.5373
  214MOL    H9026076   2.658   6.479   0.976  0.2731 -2.4466 -1.7972
  214MOL    H9126077   2.784   6.589   1.010  0.0494 -0.9462 -0.3232
  214MOL    C9226078   2.725   6.620   0.810 -0.0484 -0.8188 -1.0603
  214MOL   Cl9326079   2.711   6.524   0.661 -0.7360  0.3374  0.4971
  214MOL   Cl9426080   2.874   6.724   0.780  0.1379  0.0510  0.0487
  214MOL    C9526081   2.596   6.710   0.814  0.0563  0.1151 -0.7579
  214MOL    H9626082   2.596   6.770   0.723 -2.0475 -0.9154 -1.4379
  214MOL    H9726083   2.510   6.644   0.805 -1.2086  1.8942 -2.0716
  214MOL    C9826084   2.573   6.818   0.929 -0.1630 -0.7867 -0.3020
  214MOL   Cl9926085   2.707   6.942   0.928 -0.0057 -0.1685 -0.0413
  214MOL  Cl10026086   2.567   6.746   1.083 -0.0943  0.1971  0.2808
  214MOL   C10126087   2.440   6.888   0.910 -0.5122  0.4860 -0.3112
  214MOL   H10226088   2.461   6.956   0.827 -0.5665  2.2613  1.1073
  214MOL   H10326089   2.371   6.811   0.876  0.1606 -0.6221  0.8080
  214MOL   C10426090   2.375   6.984   1.021 -0.1777  0.6696  1.1023
  214MOL  Cl10526091   2.494   7.092   1.102 -0.1131 -0.0796  0.0720
  214MOL  Cl10626092   2.301   6.887   1.145 -0.0133 -0.0793 -0.4364
  214MOL   C10726093   2.261   7.074   0.963  0.0716  0.7991 -0.3366
  214MOL   H10826094   2.198   7.010   0.901 -1.3377  0.3504  1.5074
  214MOL   H10926095   2.202   7.102   1.051  2.1288 -0.1180  1.3916
  214MOL   C11026096   2.269   7.201   0.877 -0.4921 -0.4007 -0.9439
  214MOL  Cl11126097   2.379   7.173   0.737  0.1124  0.1451  0.3095
  214MOL  Cl11226098   2.326   7.343   0.976  0.2362  0.1393 -0.1650
  214MOL   C11326099   2.143   7.252   0.811 -0.1431 -0.5191  0.6417
  214MOL   H11426100   2.166   7.347   0.763 -3.0498 -0.4791 -0.8168
  214MOL   H11526101   2.123   7.204   0.716  1.6818  1.7243 -0.9229
  214MOL   C11626102   2.007   7.270   0.887  0.8496  0.0918  0.4015
  214MOL  Cl11726103   1.952   7.103   0.921  0.2102 -0.2799  0.0706
  214MOL  Cl11826104   1.880   7.348   0.786  0.1180  0.1298 -0.1759
  214MOL   C11926105   2.017   7.346   1.022 -0.0844  0.4737  0.1731
  214MOL   H12026106   1.932   7.341   1.089  1.0432  0.0010  1.5986
  214MOL   H12126107   2.090   7.296   1.087 -0.3404 -1.0136 -0.6723
  214MOL   H12226108   2.063   7.443   1.002 -0.4105  0.7080  0.5757
  215MOL     C126109   0.246   2.555   2.755 -0.2871 -0.9273  0.0025
  215MOL    Cl226110   0.096   2.553   2.654 -0.1588 -0.1567  0.2013
  215MOL    Cl326111   0.193   2.631   2.908 -0.1695 -0.1532 -0.1302
  215MOL     C426112   0.302   2.413   2.774  0.0753 -0.7490 -0.1328
  215MOL     H526113   0.334   2.403   2.878  0.7727  0.3496 -0.2305
  215MOL     H626114   0.229   2.338   2.743  0.1441 -1.2398  0.8720
  215MOL     H726115   0.312   2.624   2.703 -1.1532 -0.0392  0.0491
  215MOL     C826116   0.435   2.389   2.707  0.3757 -0.2577 -1.0743
  215MOL    Cl926117   0.548   2.519   2.752 -0.0028  0.3294 -0.1088
  215MOL   Cl1026118   0.409   2.392   2.535  0.3221 -0.0976  0.3048
  215MOL    C1126119   0.521   2.262   2.744  0.7029  1.1591 -0.4696
  215MOL    H1226120   0.609   2.267   2.679  1.5160  1.8498  0.6547
  215MOL    H1326121   0.563   2.277   2.844 -0.1096  2.1445 -0.2683
  215MOL    C1426122   0.447   2.119   2.748 -0.0646  0.0654  0.6798
  215MOL   Cl1526123   0.380   2.084   2.585  0.2821 -0.4984 -0.1105
  215MOL   Cl1626124   0.313   2.130   2.864 -0.5448 -0.3711  0.0836
  215MOL    C1726125   0.525   1.985   2.794 -0.3945  0.2595  0.2807
  215MOL    H1826126   0.553   1.998   2.899  2.4419 -1.4648 -0.2373
  215MOL    H1926127   0.457   1.900   2.792  1.1430 -0.9920  0.2934
  215MOL    C2026128   0.643   1.929   2.710 -0.4168 -0.1250 -0.0050
  215MOL   Cl2126129   0.694   1.786   2.792 -0.0414 -0.1728 -0.3684
  215MOL   Cl2226130   0.765   2.050   2.742  0.1928 -0.2354  0.4136
  215MOL    C2326131   0.620   1.900   2.560 -0.0800 -0.4267  0.0561
  215MOL    H2426132   0.526   1.847   2.553 -1.0933  1.5903 -2.4156
  215MOL    H2526133   0.609   1.993   2.504 -1.3217 -0.3888  0.3673
  215MOL    C2626134   0.732   1.824   2.479 -0.3171  0.4296  1.1661
  215MOL   Cl2726135   0.685   1.812   2.308 -0.1075 -0.5286 -0.1624
  215MOL   Cl2826136   0.722   1.646   2.533 -0.1533  0.2018 -0.3494
  215MOL    C2926137   0.876   1.877   2.487  0.3479 -0.4958 -0.2135
  215MOL    H3026138   0.879   1.985   2.478  0.8092 -0.3275  1.7307
  215MOL    H3126139   0.913   1.863   2.589 -0.4143 -0.0862  0.1238
  215MOL    C3226140   0.994   1.824   2.400 -0.3135 -0.2592  0.6497
  215MOL   Cl3326141   0.974   1.877   2.225  0.3723 -0.1614 -0.3266
  215MOL   Cl3426142   0.991   1.644   2.392 -0.0299  0.1483 -0.0095
  215MOL    C3526143   1.131   1.857   2.460  0.1431  0.0841 -0.0666
  215MOL    H3626144   1.147   1.796   2.549  3.4740 -1.6925 -1.7980
  215MOL    H3726145   1.192   1.812   2.382  0.4453  0.7422 -0.2086
  215MOL    C3826146   1.191   1.999   2.468 -0.0971  0.6526  0.7429
  215MOL   Cl3926147   1.356   1.962   2.523  0.3564 -0.0526  0.2484
  215MOL   Cl4026148   1.104   2.092   2.595  0.1488 -0.0754  0.0606
  215MOL    C4126149   1.189   2.078   2.334 -0.7125 -1.3181 -0.0733
  215MOL    H4226150   1.214   2.013   2.250  0.4590 -2.3802  1.0778
  215MOL    H4326151   1.084   2.103   2.318 -0.7164 -2.2103 -1.5340
  215MOL    C4426152   1.256   2.218   2.305 -0.3775  0.1549 -0.2430
  215MOL   Cl4526153   1.234   2.335   2.437 -0.3829 -0.5698 -0.0710
  215MOL   Cl4626154   1.169   2.285   2.164 -0.3016 -0.0430 -0.1121
  215MOL    C4726155   1.406   2.193   2.279 -0.0915 -0.2401 -0.5323
  215MOL    H4826156   1.460   2.141   2.358  1.2081  2.6143  0.5613
  215MOL    H4926157   1.411   2.113   2.206  0.4404  0.9438 -1.8222
  215MOL    C5026158   1.503   2.296   2.215  0.6747 -0.3978 -0.1055
  215MOL   Cl5126159   1.465   2.306   2.034 -0.0141  0.0234  0.2125
  215MOL   Cl5226160   1.676   2.238   2.220 -0.0672 -0.3446 -0.3150
  215MOL    C5326161   1.489   2.436   2.275  0.2073 -0.0198 -0.5762
  215MOL    H5426162   1.382   2.456   2.290  0.0937 -2.7121  2.8896
  215MOL    H5526163   1.533   2.431   2.375 -1.2476  0.3865  0.1045
  215MOL    C5626164   1.551   2.562   2.205  0.9998  0.5235  0.1688
  215MOL   Cl5726165   1.554   2.697   2.334 -0.5428 -0.2090  0.0542
  215MOL   Cl5826166   1.435   2.625   2.086 -0.0328 -0.1070 -0.4827
  215MOL    C5926167   1.692   2.536   2.133  0.3170  0.0979 -1.3921
  215MOL    H6026168   1.752   2.487   2.210  0.6908  0.4163 -1.4810
  215MOL    H6126169   1.675   2.466   2.052 -1.1653  0.1535 -1.1388
  215MOL    C6226170   1.773   2.657   2.086  0.4860 -0.1727 -0.6665
  215MOL   Cl6326171   1.877   2.597   1.956  0.1723  0.0504 -0.1956
  215MOL   Cl6426172   1.869   2.717   2.226  0.2274  0.0324  0.2782
  215MOL    C6526173   1.694   2.783   2.017 -0.3212  1.0948  0.5781
  215MOL    H6626174   1.641   2.731   1.937 -2.0128 -1.7077  3.3870
  215MOL    H6726175   1.626   2.817   2.095 -0.6943  2.1056 -0.1789
  215MOL    C6826176   1.765   2.921   1.974  0.0677 -0.7648 -0.4205
  215MOL   Cl6926177   1.624   3.018   1.921 -0.0401 -0.0043 -0.2586
  215MOL   Cl7026178   1.884   2.902   1.838 -0.0440 -0.0558  0.0717
  215MOL    C7126179   1.828   2.997   2.090 -0.1401  0.1051  0.5470
  215MOL    H7226180   1.759   2.977   2.172 -1.3556 -2.4005 -1.0164
  215MOL    H7326181   1.917   2.940   2.116 -2.0763 -2.6562  1.3837
  215MOL    C7426182   1.852   3.149   2.103 -0.5108 -0.3162  0.2191
  215MOL   Cl7526183   1.953   3.167   2.254  0.1984 -0.3404 -0.3592
  215MOL   Cl7626184   1.708   3.240   2.129 -0.2438  0.2462  0.1470
  215MOL    C7726185   1.937   3.201   1.981 -0.1458  0.2072  0.2046
  215MOL    H7826186   2.010   3.129   1.942  0.2415  1.8724 -2.2333
  215MOL    H7926187   1.874   3.214   1.893  1.3861 -0.4506 -1.0194
  215MOL    C8026188   2.025   3.337   1.994  0.0347  0.6664 -0.5630
  215MOL   Cl8126189   2.094   3.365   1.829  0.1128 -0.0618  0.3735
  215MOL   Cl8226190   2.172   3.291   2.077 -0.0558 -0.0036 -0.1489
  215MOL    C8326191   1.946   3.472   2.042 -0.3569  0.0887  0.1536
  215MOL    H8426192   1.874   3.499   1.965 -1.4177 -2.1832  0.3224
  215MOL    H8526193   1.897   3.441   2.134  1.8868  0.2496  1.4460
  215MOL    C8626194   2.032   3.598   2.070 -0.2013  0.1830 -0.1859
  215MOL   Cl8726195   1.898   3.721   2.078 -0.2847 -0.4070  0.3247
  215MOL   Cl8826196   2.135   3.651   1.932  0.1641  0.1631 -0.4738
  215MOL    C8926197   2.112   3.591   2.203 -0.4340 -0.0589 -0.5087
  215MOL    H9026198   2.074   3.500   2.250  0.6165 -0.5491 -0.5921
  215MOL    H9126199   2.213   3.566   2.170 -0.5465 -1.2640  0.0315
  215MOL    C9226200   2.128   3.708   2.296  0.2864 -0.2375 -0.3271
  215MOL   Cl9326201   1.974   3.772   2.363  0.1883 -0.1884 -0.3713
  215MOL   Cl9426202   2.208   3.842   2.214 -0.1480 -0.0707  0.2164
  215MOL    C9526203   2.213   3.673   2.422 -0.2956  0.3205 -0.0596
  215MOL    H9626204   2.318   3.665   2.396 -0.2588  3.3812 -0.9584
  215MOL    H9726205   2.219   3.754   2.494  2.5699 -0.5886  0.7970
  215MOL    C9826206   2.188   3.537   2.504 -0.1897 -0.3977  0.3711
  215MOL   Cl9926207   2.291   3.411   2.438  0.1325 -0.0407  0.1994
  215MOL  Cl10026208   2.015   3.478   2.505  0.3932  0.0511 -0.1072
  215MOL   C10126209   2.220   3.545   2.655  0.1906 -0.2188  0.4355
  215MOL   H10226210   2.138   3.593   2.710  0.1433  1.1029 -0.7522
  215MOL   H10326211   2.226   3.445   2.698  0.7347  0.3035  1.6254
  215MOL   C10426212   2.352   3.599   2.718 -1.2866 -0.3511  0.2547
  215MOL  Cl10526213   2.354   3.778   2.703  0.0556  0.1541  0.2985
  215MOL  Cl10626214   2.497   3.522   2.636  0.1610  0.3162 -0.5687
  215MOL   C10726215   2.369   3.570   2.875  0.6817 -0.3463  0.2588
  215MOL   H10826216   2.473   3.595   2.897  0.2884 -0.4184  2.3690
  215MOL   H10926217   2.313   3.650   2.922  0.2952 -0.5464  0.1426
  215MOL   C11026218   2.322   3.443   2.949 -0.8063  0.7342 -0.5887
  215MOL  Cl11126219   2.382   3.288   2.880  0.3246  0.1397 -0.0224
  215MOL  Cl11226220   2.145   3.418   2.954  0.0402  0.2603 -0.4374
  215MOL   C11326221   2.376   3.434   3.093 -0.3472 -0.6709  0.7662
  215MOL   H11426222   2.318   3.348   3.129  1.0098 -1.3825  1.2710
  215MOL   H11526223   2.483   3.423   3.078 -0.1656  1.0872  0.7716
  215MOL   C11626224   2.357   3.540   3.202 -0.1603  0.1753  0.3457
  215MOL  Cl11726225   2.437   3.686   3.156  0.4098 -0.0968 -0.3102
  215MOL  Cl11826226   2.425   3.475   3.357 -0.0139  0.2799 -0.2298
  215MOL   C11926227   2.210   3.574   3.233  0.2429  0.5688  0.6714
  215MOL   H12026228   2.147   3.491   3.267 -0.9147  1.1532 -0.0286
  215MOL   H12126229   2.198   3.648   3.312  0.2472  0.0298  1.1862
  215MOL   H12226230   2.158   3.621   3.150 -0.5198 -0.6325  0.4557
  216MOL     C126231   5.791   4.847   4.927  0.1778 -0.0575 -0.1343
  216MOL    Cl226232   5.696   4.770   4.795  0.6740 -0.2232  0.0614
  216MOL    Cl326233   5.896   4.967   4.837  0.2415 -0.1761 -0.0312
  216MOL     C426234   5.699   4.917   5.031  0.5234  0.2182 -0.3895
  216MOL     H526235   5.657   5.001   4.978  0.4445  1.0853  1.0167
  216MOL     H626236   5.617   4.847   5.048  0.6427  0.0742 -0.3977
  216MOL     H726237   5.860   4.774   4.969  1.3908  0.3031 -1.4902
  216MOL     C826238   5.762   4.966   5.162  0.2640  0.1474  0.4820
  216MOL    Cl926239   5.891   5.077   5.137  0.1209  0.1553 -0.4355
  216MOL   Cl1026240   5.842   4.827   5.239 -0.1676  0.3072  0.4340
  216MOL    C1126241   5.659   5.024   5.263 -0.8013 -0.1876 -0.2294
  216MOL    H1226242   5.604   4.937   5.298 -1.0350  0.5816  1.3503
  216MOL    H1326243   5.716   5.054   5.351  2.3990 -2.3267 -1.4718
  216MOL    C1426244   5.560   5.131   5.221 -0.0681  0.3098  0.3626
  216MOL   Cl1526245   5.427   5.047   5.139 -0.6839 -0.0569 -0.2993
  216MOL   Cl1626246   5.630   5.262   5.120  0.3008  0.1898 -0.3478
  216MOL    C1726247   5.483   5.192   5.337 -0.1937 -0.6409  0.0139
  216MOL    H1826248   5.422   5.266   5.286  1.5730  1.0556  0.3232
  216MOL    H1926249   5.403   5.126   5.370  0.5775 -1.8159 -0.4386
  216MOL    C2026250   5.564   5.266   5.447  0.1932  0.0578  0.4490
  216MOL   Cl2126251   5.464   5.409   5.496  0.3029 -0.1491  0.1871
  216MOL   Cl2226252   5.714   5.345   5.400 -0.2511 -0.2938 -0.1607
  216MOL    C2326253   5.598   5.193   5.578 -0.6679  0.0728  0.8833
  216MOL    H2426254   5.692   5.141   5.558 -1.0012 -0.2089  0.0202
  216MOL    H2526255   5.622   5.263   5.658 -1.0912  0.1206  0.9661
  216MOL    C2626256   5.498   5.092   5.642 -0.6553 -0.6063 -0.2951
  216MOL   Cl2726257   5.509   4.944   5.541  0.0848 -0.3345  0.4688
  216MOL   Cl2826258   5.333   5.153   5.635 -0.0921  0.1756 -0.2239
  216MOL    C2926259   5.533   5.032   5.787 -0.0856  0.2023  1.0175
  216MOL    H3026260   5.512   4.926   5.795  1.9743 -0.2966  0.1140
  216MOL    H3126261   5.641   5.025   5.799  0.0040 -1.0500 -0.4127
  216MOL    C3226262   5.483   5.102   5.917  0.6599 -0.4663 -0.1439
  216MOL   Cl3326263   5.307   5.099   5.939  0.1005  0.1430 -0.0650
  216MOL   Cl3426264   5.544   5.269   5.942  0.3405 -0.6692  0.1302
  216MOL    C3526265   5.527   5.029   6.046 -0.7722 -0.1128 -0.4633
  216MOL    H3626266   5.491   5.097   6.123  0.4549  0.7689 -0.6471
  216MOL    H3726267   5.472   4.935   6.048 -0.1931 -0.4304  0.8745
  216MOL    C3826268   5.674   4.990   6.075 -0.3776  0.1373 -0.1580
  216MOL   Cl3926269   5.802   5.108   6.027 -0.3581 -0.3246 -0.0423
  216MOL   Cl4026270   5.703   4.830   5.997 -0.3209  0.2712 -0.4426
  216MOL    C4126271   5.682   4.960   6.235 -0.4598 -0.1310 -0.3347
  216MOL    H4226272   5.631   5.046   6.277  1.0240  0.3450  0.5262
  216MOL    H4326273   5.609   4.884   6.263 -0.5645  0.3422  0.7163
  216MOL    C4426274   5.808   4.954   6.325  0.3970 -0.2352  0.5688
  216MOL   Cl4526275   5.754   4.900   6.493 -0.1729  0.4191  0.1217
  216MOL   Cl4626276   5.881   5.117   6.343  0.1648 -0.1706  0.2833
  216MOL    C4726277   5.905   4.845   6.262 -0.0840  0.3959 -0.2697
  216MOL    H4826278   5.848   4.752   6.262 -2.9506  2.0952 -0.5795
  216MOL    H4926279   5.928   4.865   6.157  1.8192  1.2373  0.2787
  216MOL    C5026280   6.048   4.823   6.318  0.1268  0.5183  0.6177
  216MOL   Cl5126281   6.157   4.955   6.277  0.3502  0.1723 -0.0493
  216MOL   Cl5226282   6.117   4.678   6.233  0.4243 -0.0922 -0.2655
  216MOL    C5326283   6.050   4.798   6.471  0.1051 -0.1159 -0.3106
  216MOL    H5426284   6.029   4.891   6.524  0.2321 -0.3823  0.2108
  216MOL    H5526285   5.965   4.734   6.495  1.2167 -1.6285 -0.3014
  216MOL    C5626286   6.159   4.727   6.556 -0.5360  0.7475 -0.2515
  216MOL   Cl5726287   6.166   4.552   6.520  0.0810 -0.0011 -0.2136
  216MOL   Cl5826288   6.105   4.752   6.727  0.3648  0.0740  0.0306
  216MOL    C5926289   6.299   4.792   6.542 -0.0968  0.0056 -0.2802
  216MOL    H6026290   6.381   4.724   6.566  1.7989  2.2122 -0.3289
  216MOL    H6126291   6.324   4.791   6.436  1.4837  0.1574  0.0743
  216MOL    C6226292   6.328   4.943   6.601 -0.5160 -0.2735  0.2159
  216MOL   Cl6326293   6.362   4.929   6.779 -0.0792 -0.2253 -0.2342
  216MOL   Cl6426294   6.199   5.063   6.570 -0.5555 -0.0183  0.0722
  216MOL    C6526295   6.468   4.986   6.537  0.0958 -0.8101  0.6822
  216MOL    H6626296   6.544   4.917   6.570  1.7054 -0.5615 -2.3501
  216MOL    H6726297   6.456   4.961   6.432  0.7842 -1.7250  0.8263
  216MOL    C6826298   6.523   5.134   6.541 -0.0629  0.5894 -0.3671
  216MOL   Cl6926299   6.698   5.135   6.504 -0.0040 -0.2859  0.0891
  216MOL   Cl7026300   6.523   5.178   6.716 -0.4754  0.2351  0.3154
  216MOL    C7126301   6.446   5.237   6.462  0.4545 -0.1566 -0.5193
  216MOL    H7226302   6.375   5.190   6.393 -2.2729  0.4775  1.7637
  216MOL    H7326303   6.376   5.275   6.536  0.3274 -0.4981 -0.4653
  216MOL    C7426304   6.526   5.357   6.404 -0.6447  0.2275  0.7991
  216MOL   Cl7526305   6.605   5.300   6.252 -0.2418  0.7285 -0.3932
  216MOL   Cl7626306   6.642   5.426   6.518 -0.0494 -0.0098  0.1279
  216MOL    C7726307   6.441   5.483   6.358 -0.8211  0.1296  0.7387
  216MOL    H7826308   6.425   5.555   6.438 -2.6589  0.5477  0.0273
  216MOL    H7926309   6.503   5.539   6.289  1.0180  0.9296  2.9716
  216MOL    C8026310   6.299   5.446   6.287 -0.4269  0.1205 -0.2414
  216MOL   Cl8126311   6.187   5.399   6.421  0.4858  0.3732 -0.1166
  216MOL   Cl8226312   6.310   5.324   6.165 -0.0461 -0.2091 -0.4167
  216MOL    C8326313   6.234   5.566   6.220  0.6074 -0.1866  0.4061
  216MOL    H8426314   6.132   5.540   6.192  0.7485 -0.7426  0.4078
  216MOL    H8526315   6.214   5.632   6.304 -2.4135 -1.2157  0.5386
  216MOL    C8626316   6.313   5.662   6.118  0.9761 -0.5745  0.3886
  216MOL   Cl8726317   6.404   5.787   6.212 -0.5687  0.2495  0.2388
  216MOL   Cl8826318   6.175   5.756   6.039  0.3110 -0.0421 -0.0561
  216MOL    C8926319   6.396   5.583   6.018 -0.9202 -0.7073 -0.9477
  216MOL    H9026320   6.465   5.520   6.075 -2.9014 -0.4445  1.8259
  216MOL    H9126321   6.327   5.519   5.964 -1.5523 -0.5022 -0.3853
  216MOL    C9226322   6.469   5.659   5.894  0.0653  0.7960  0.2146
  216MOL   Cl9326323   6.588   5.772   5.967  0.0956 -0.0520 -0.0702
  216MOL   Cl9426324   6.363   5.756   5.789  0.4247  0.2366 -0.1424
  216MOL    C9526325   6.533   5.565   5.791  0.9188 -0.5332  0.2640
  216MOL    H9626326   6.468   5.518   5.717  0.4692 -0.0194  0.3293
  216MOL    H9726327   6.596   5.626   5.727 -0.9030 -0.3362 -1.3888
  216MOL    C9826328   6.611   5.440   5.832  0.2940  0.1659 -0.0986
  216MOL   Cl9926329   6.499   5.308   5.867  0.5166  0.2820 -0.1137
  216MOL  Cl10026330   6.702   5.457   5.985 -0.1682 -0.2489  0.2822
  216MOL   C10126331   6.729   5.394   5.730 -0.1991  0.0061  0.1159
  216MOL   H10226332   6.799   5.476   5.711  0.0623 -0.0133  0.9513
  216MOL   H10326333   6.788   5.315   5.777  2.1955  0.4768 -1.9592
  216MOL   C10426334   6.691   5.357   5.580  0.1829 -0.4265  0.7286
  216MOL  Cl10526335   6.849   5.329   5.494 -0.1079  0.1329 -0.1539
  216MOL  Cl10626336   6.617   5.500   5.497  0.1376 -0.4968 -0.1317
  216MOL   C10726337   6.599   5.231   5.569 -0.3858 -0.2169 -0.6715
  216MOL   H10826338   6.631   5.162   5.646  0.0026  1.6477  0.8838
  216MOL   H10926339   6.496   5.262   5.588 -0.5915 -1.3596  0.1179
  216MOL   C11026340   6.590   5.141   5.441  0.3439 -0.3396 -0.0081
  216MOL  Cl11126341   6.462   5.027   5.480 -0.2333 -0.0177 -0.1364
  216MOL  Cl11226342   6.746   5.055   5.407  0.2604  0.3756  0.2891
  216MOL   C11326343   6.545   5.223   5.314  0.2205  0.9724 -0.3866
  216MOL   H11426344   6.466   5.297   5.331  0.7149  1.2799  0.6353
  216MOL   H11526345   6.633   5.277   5.281  0.3263  0.6215 -0.6826
  216MOL   C11626346   6.503   5.153   5.181 -0.7431 -0.1259 -0.7942
  216MOL  Cl11726347   6.327   5.129   5.184 -0.4348  0.0920 -0.6224
  216MOL  Cl11826348   6.584   4.994   5.148 -0.1199  0.3083  0.1658
  216MOL   C11926349   6.531   5.245   5.056 -0.0820  0.0012 -0.0094
  216MOL   H12026350   6.491   5.346   5.068 -0.3661  0.0835 -1.4607
  216MOL   H12126351   6.638   5.259   5.042 -0.1288  1.6366  1.0796
  216MOL   H12226352   6.475   5.204   4.971  0.0952  1.1600 -0.7069
  217MOL     C126353   0.392   8.064   4.036 -0.3785 -0.4892 -0.2871
  217MOL    Cl226354   0.373   8.231   4.000 -0.1461  0.0459  0.0810
  217MOL    Cl326355   0.552   8.031   4.103 -0.1315  0.2969 -0.1555
  217MOL     C426356   0.281   8.016   4.128  0.1805 -0.3023  0.4971
  217MOL     H526357   0.270   8.086   4.210  0.1186  0.1761  0.0841
  217MOL     H626358   0.192   8.041   4.070  0.8304 -2.4307 -1.5052
  217MOL     H726359   0.381   8.015   3.940  0.4107  1.9398 -1.6742
  217MOL     C826360   0.268   7.870   4.179 -0.4752  0.7918  0.1917
  217MOL    Cl926361   0.310   7.768   4.044 -0.0472 -0.1498 -0.0090
  217MOL   Cl1026362   0.092   7.835   4.214 -0.4466 -0.0670  0.4379
  217MOL    C1126363   0.349   7.820   4.301  0.0371 -0.3771  0.0144
  217MOL    H1226364   0.317   7.719   4.328 -0.0766  0.0282  1.4453
  217MOL    H1326365   0.452   7.807   4.270  0.7322 -1.4271  2.6443
  217MOL    C1426366   0.348   7.909   4.434 -0.7772 -0.0192  0.3182
  217MOL   Cl1526367   0.435   8.063   4.412 -0.3313  0.2632 -0.0480
  217MOL   Cl1626368   0.452   7.820   4.550  0.1368  0.6946 -0.1325
  217MOL    C1726369   0.202   7.929   4.500  0.3069 -0.3405  0.0656
  217MOL    H1826370   0.158   8.012   4.444  0.7143 -1.0638 -1.3459
  217MOL    H1926371   0.136   7.842   4.487 -0.4943  0.1967  0.4712
  217MOL    C2026372   0.187   7.968   4.656  0.6676  0.0727 -0.5440
  217MOL   Cl2126373   0.304   8.093   4.710  0.0987 -0.0217 -0.2346
  217MOL   Cl2226374   0.225   7.830   4.762 -0.0958 -0.0707 -0.0625
  217MOL    C2326375   0.048   8.034   4.690  0.0086 -0.0672 -0.1701
  217MOL    H2426376   0.062   8.075   4.790 -1.3617  0.7369 -0.2897
  217MOL    H2526377   0.050   8.121   4.625  0.3468 -0.4835 -0.7282
  217MOL    C2626378   9.086   7.970   4.672  0.1473 -0.0640 -0.3252
  217MOL   Cl2726379   9.090   7.815   4.761  0.2186 -0.2606 -0.3642
  217MOL   Cl2826380   9.045   7.926   4.504 -0.1118  0.1156  0.3794
  217MOL    C2926381   8.968   8.046   4.742 -0.7177  0.7767 -0.3045
  217MOL    H3026382   8.877   7.987   4.753  0.0998 -0.2709  0.8871
  217MOL    H3126383   8.987   8.062   4.848  0.5315  2.1123 -0.7157
  217MOL    C3226384   8.928   8.200   4.703  0.6289  0.0141 -0.2242
  217MOL   Cl3326385   8.868   8.194   4.529  0.1132 -0.2535  0.5755
  217MOL   Cl3426386   9.063   8.307   4.718  0.2342  0.2760 -0.0410
  217MOL    C3526387   8.810   8.254   4.799 -0.4173 -0.0765 -0.8599
  217MOL    H3626388   8.859   8.283   4.892  1.1216 -2.1813 -0.9801
  217MOL    H3726389   8.773   8.347   4.756  2.0438  0.6239 -1.5604
  217MOL    C3826390   8.679   8.176   4.842 -0.5944 -0.4862  0.9570
  217MOL   Cl3926391   8.570   8.291   4.909  0.2711  0.0465  0.2702
  217MOL   Cl4026392   8.724   8.052   4.966  0.0018 -0.0683 -0.0129
  217MOL    C4126393   8.617   8.099   4.719 -0.9160  0.1776 -0.1789
  217MOL    H4226394   8.632   8.173   4.640 -2.4853  1.1787  0.4339
  217MOL    H4326395   8.682   8.014   4.699  2.2559  1.9967  1.8810
  217MOL    C4426396   8.469   8.057   4.719  0.8942  0.7213  0.4940
  217MOL   Cl4526397   8.356   8.195   4.692 -0.3815  0.0998 -0.2652
  217MOL   Cl4626398   8.425   7.984   4.881  0.7090 -0.7384  0.0803
  217MOL    C4726399   8.431   7.951   4.612 -0.9227  0.5867  0.1976
  217MOL    H4826400   8.467   7.855   4.649  0.4824  0.9018 -0.3219
  217MOL    H4926401   8.322   7.946   4.605 -0.8712  0.6611 -0.5869
  217MOL    C5026402   8.489   7.957   4.470  0.2006  0.0788  0.1653
  217MOL   Cl5126403   8.668   7.925   4.460  0.0084 -0.2102 -0.4185
  217MOL   Cl5226404   8.461   8.122   4.392  0.1031  0.0280  0.4005
  217MOL    C5326405   8.419   7.858   4.368  0.0141 -1.1550 -0.1742
  217MOL    H5426406   8.328   7.914   4.345  1.0282  0.7997  0.4276
  217MOL    H5526407   8.488   7.847   4.285  1.0757  2.5261  0.1001
  217MOL    C5626408   8.381   7.712   4.398  0.3553  0.0657  0.0731
  217MOL   Cl5726409   8.244   7.706   4.514  0.0771  0.3534  0.2933
  217MOL   Cl5826410   8.514   7.619   4.474 -0.4346  0.0986  0.1794
  217MOL    C5926411   8.346   7.624   4.277  0.2611  0.2296  0.1844
  217MOL    H6026412   8.436   7.614   4.217 -0.0059  0.3222 -0.2360
  217MOL    H6126413   8.328   7.529   4.328 -0.4413  1.9307  3.1920
  217MOL    C6226414   8.238   7.669   4.177  0.1920 -1.1152  0.2113
  217MOL   Cl6326415   8.251   7.545   4.059  0.4295 -0.1070  0.0582
  217MOL   Cl6426416   8.281   7.821   4.102  0.1766 -0.1974  0.0248
  217MOL    C6526417   8.095   7.690   4.231  0.0085  0.3695  0.0497
  217MOL    H6626418   8.081   7.597   4.287  0.7009 -0.9565 -1.9095
  217MOL    H6726419   8.094   7.767   4.307  0.1008  0.8224 -0.4090
  217MOL    C6826420   7.971   7.730   4.147  0.0606 -0.4518 -1.0534
  217MOL   Cl6926421   7.955   7.637   4.003  0.2857 -0.3379 -0.1891
  217MOL   Cl7026422   7.989   7.903   4.102 -0.0517 -0.0772  0.2496
  217MOL    C7126423   7.850   7.694   4.239  0.5901 -0.0496 -0.7939
  217MOL    H7226424   7.837   7.586   4.246  0.7055  0.0274  0.7730
  217MOL    H7326425   7.886   7.714   4.340 -0.1614  1.8624 -0.8818
  217MOL    C7426426   7.711   7.762   4.224  0.5798 -0.6865 -0.4505
  217MOL   Cl7526427   7.712   7.935   4.263  0.1365  0.0391 -0.0160
  217MOL   Cl7626428   7.615   7.692   4.355  0.2769 -0.0236 -0.1738
  217MOL    C7726429   7.641   7.736   4.084  0.0057  0.3536  0.1988
  217MOL    H7826430   7.715   7.731   4.004  0.2689 -2.8321  0.5802
  217MOL    H7926431   7.613   7.631   4.077 -0.4240  0.5683 -1.5806
  217MOL    C8026432   7.527   7.820   4.029 -0.0991 -0.3408  0.3647
  217MOL   Cl8126433   7.480   7.741   3.873 -0.4368  0.1517 -0.2214
  217MOL   Cl8226434   7.589   7.985   3.990 -0.3563  0.1799  0.1005
  217MOL    C8326435   7.400   7.817   4.125 -0.0515  0.3363 -0.2876
  217MOL    H8426436   7.369   7.713   4.117 -2.2989  0.8198  1.4861
  217MOL    H8526437   7.441   7.827   4.226 -1.0786 -2.6001  0.4835
  217MOL    C8626438   7.278   7.912   4.114 -0.0674 -0.4267 -0.0129
  217MOL   Cl8726439   7.161   7.838   4.228 -0.5673 -0.4659  0.3548
  217MOL   Cl8826440   7.191   7.918   3.959 -0.0564 -0.2609  0.1654
  217MOL    C8926441   7.317   8.049   4.163 -0.0073  0.2366 -0.5917
  217MOL    H9026442   7.385   8.033   4.247 -0.8627  0.5640  0.1710
  217MOL    H9126443   7.380   8.099   4.089 -2.2021  1.0986 -1.9485
  217MOL    C9226444   7.222   8.163   4.206  0.4310 -0.4376 -0.4430
  217MOL   Cl9326445   7.326   8.307   4.200 -0.3467 -0.3580 -0.1751
  217MOL   Cl9426446   7.171   8.134   4.373  0.1836  0.0961 -0.2462
  217MOL    C9526447   7.104   8.178   4.111 -0.0235 -0.0060 -0.1871
  217MOL    H9626448   7.139   8.172   4.008 -0.6663  2.0287 -0.5573
  217MOL    H9726449   7.037   8.092   4.116  2.2254 -1.9688 -2.3649
  217MOL    C9826450   7.010   8.301   4.102  0.0978 -1.0100  0.0924
  217MOL   Cl9926451   7.099   8.443   4.050  0.2282 -0.2685  0.3664
  217MOL  Cl10026452   6.948   8.328   4.265 -0.1980 -0.2388  0.4187
  217MOL   C10126453   6.891   8.285   4.005  0.1582 -0.3255 -0.7132
  217MOL   H10226454   6.838   8.379   4.023  0.9896  0.0781 -0.3740
  217MOL   H10326455   6.935   8.304   3.908  0.8996  0.0938 -0.2969
  217MOL   C10426456   6.798   8.162   4.005 -0.0832 -0.2112 -0.0120
  217MOL  Cl10526457   6.750   8.098   4.168 -0.1471  0.4437 -0.0693
  217MOL  Cl10626458   6.883   8.035   3.920  0.3326 -0.1402 -0.0424
  217MOL   C10726459   6.668   8.203   3.928  0.5314 -0.4993  0.1107
  217MOL   H10826460   6.622   8.292   3.972  0.2907 -1.3236  1.5690
  217MOL   H10926461   6.703   8.246   3.835 -0.0251 -2.6043 -1.1022
  217MOL   C11026462   6.547   8.095   3.885  0.2268 -0.2119 -0.3090
  217MOL  Cl11126463   6.433   8.182   3.773 -0.2605  0.2371 -0.2779
  217MOL  Cl11226464   6.460   8.067   4.031 -0.1187 -0.1016  0.3908
  217MOL   C11326465   6.582   7.957   3.827 -0.0608 -0.3833  0.3970
  217MOL   H11426466   6.657   7.914   3.892 -0.2845  1.2186  1.7323
  217MOL   H11526467   6.494   7.892   3.821  1.8599 -3.1572  1.2486
  217MOL   C11626468   6.646   7.940   3.683  0.0999 -0.1252  0.0014
  217MOL  Cl11726469   6.760   8.071   3.632 -0.0402 -0.4623 -0.1156
  217MOL  Cl11826470   6.511   7.942   3.566  0.0086 -0.3133  0.1126
  217MOL   C11926471   6.733   7.812   3.671  0.1262 -0.1060  0.1776
  217MOL   H12026472   6.684   7.724   3.712  0.6477 -0.5549 -0.1649
  217MOL   H12126473   6.770   7.798   3.569 -0.4147  3.4874 -0.5845
  217MOL   H12226474   6.823   7.826   3.731 -0.5986 -1.1589  1.5413
  218MOL     C126475   8.294   0.170   2.912  0.2792 -0.6049 -0.1055
  218MOL    Cl226476   8.363   0.221   2.749  0.5660 -0.0166  0.0664
  218MOL    Cl326477   8.281   0.309   3.030  0.0058  0.1130 -0.4099
  218MOL     C426478   8.166   0.095   2.885  0.2201  0.2117  0.2677
  218MOL     H526479   8.084   0.167   2.880  1.8034  2.1785  1.6660
  218MOL     H626480   8.172   0.036   2.794  1.9418 -1.5580  1.4873
  218MOL     H726481   8.375   0.110   2.955 -0.1825  0.4247  2.3224
  218MOL     C826482   8.140   9.164   2.993  0.1816 -0.4549  0.3210
  218MOL    Cl926483   8.276   9.049   2.958  0.0827  0.1002  0.0596
  218MOL   Cl1026484   7.996   9.073   2.945 -0.1410 -0.2551 -0.4148
  218MOL    C1126485   8.145   0.031   3.144 -0.2333 -0.3407  0.4167
  218MOL    H1226486   8.250   0.025   3.173  0.5420  0.0468 -2.1648
  218MOL    H1326487   8.107   0.133   3.150 -1.7047 -0.9845  2.5693
  218MOL    C1426488   8.068   9.124   3.259  0.4354  0.1148  0.5939
  218MOL   Cl1526489   8.138   0.008   3.409  0.0808 -0.2924  0.0889
  218MOL   Cl1626490   8.124   8.958   3.253  0.1843 -0.1620 -0.1239
  218MOL    C1726491   7.912   9.125   3.273  0.3186  0.4468  0.7932
  218MOL    H1826492   7.868   9.068   3.191  3.9020 -1.8510  0.3884
  218MOL    H1926493   7.877   9.075   3.363  1.5607 -0.9035  0.5404
  218MOL    C2026494   7.851   0.088   3.268 -0.4408  0.0505 -0.8442
  218MOL   Cl2126495   7.845   0.154   3.098 -0.5010  0.1949  0.0098
  218MOL   Cl2226496   7.924   0.218   3.374  0.2749  0.0381  0.3322
  218MOL    C2326497   7.701   0.074   3.307 -0.6196 -0.2858 -0.5248
  218MOL    H2426498   7.671   0.179   3.298 -0.6474 -0.3114 -0.7521
  218MOL    H2526499   7.657   0.014   3.227 -0.2993 -1.1437 -0.0547
  218MOL    C2626500   7.647   0.010   3.442  0.4953 -0.8733 -0.4398
  218MOL   Cl2726501   7.748   0.051   3.575 -0.3301  0.1517 -0.2475
  218MOL   Cl2826502   7.643   9.012   3.425  0.0143  0.5125 -0.1693
  218MOL    C2926503   7.519   0.071   3.479 -0.4692 -0.2401 -0.4126
  218MOL    H3026504   7.492   0.034   3.578 -0.2194 -0.1954 -0.3292
  218MOL    H3126505   7.544   0.173   3.507 -1.0025 -0.0163 -0.7480
  218MOL    C3226506   7.389   0.069   3.382  0.3078  0.6725  0.4295
  218MOL   Cl3326507   7.411   0.187   3.254  0.0043  0.0219  0.2034
  218MOL   Cl3426508   7.262   0.140   3.490 -0.2819 -0.2723  0.2635
  218MOL    C3526509   7.341   9.105   3.332 -0.8741  0.0734 -0.5244
  218MOL    H3626510   7.420   9.042   3.292 -1.0519 -0.2548 -0.3657
  218MOL    H3726511   7.317   9.048   3.422 -0.3032  1.1720  0.3230
  218MOL    C3826512   7.227   9.092   3.219  0.4273  0.3211 -0.6055
  218MOL   Cl3926513   7.150   8.934   3.229  0.0408  0.0421  0.2580
  218MOL   Cl4026514   7.318   9.102   3.058 -0.2038 -0.0065  0.6323
  218MOL    C4126515   7.118   0.021   3.217  0.2384 -0.4464  0.2186
  218MOL    H4226516   7.098   0.028   3.324 -0.6823 -1.3603  0.1106
  218MOL    H4326517   7.154   0.118   3.182 -0.4597  0.1754  1.2095
  218MOL    C4426518   6.977   9.179   3.142  0.1397 -0.0988 -0.3027
  218MOL   Cl4526519   6.874   9.058   3.216  0.1250  0.4242 -0.1047
  218MOL   Cl4626520   7.004   9.128   2.969 -0.2923  0.0238 -0.0543
  218MOL    C4726521   6.894   0.129   3.129 -0.9613 -0.5340 -0.2726
  218MOL    H4826522   6.937   0.187   3.047  0.1841 -0.0057  0.6840
  218MOL    H4926523   6.796   0.097   3.094 -0.4141 -0.5895 -1.7714
  218MOL    C5026524   6.859   0.223   3.250 -0.6283  0.0856 -0.0501
  218MOL   Cl5126525   6.738   0.327   3.184  0.1338 -0.0584  0.2126
  218MOL   Cl5226526   6.994   0.330   3.288  0.2178  0.0092 -0.6690
  218MOL    C5326527   6.808   0.148   3.383 -0.5578 -1.3542 -0.4943
  218MOL    H5426528   6.728   0.078   3.357 -1.4211 -0.0140 -1.5240
  218MOL    H5526529   6.887   0.078   3.410 -0.8974 -0.9162  1.6968
  218MOL    C5626530   6.755   0.226   3.510  0.1632  0.2705 -0.0522
  218MOL   Cl5726531   6.739   0.097   3.629 -0.0406 -0.0085  0.3287
  218MOL   Cl5826532   6.586   0.283   3.482  0.5786  0.1232 -0.0934
  218MOL    C5926533   6.861   0.331   3.569 -0.6309 -0.4500 -0.0373
  218MOL    H6026534   6.953   0.279   3.594  0.2826  1.4717  0.6658
  218MOL    H6126535   6.888   0.405   3.494 -0.7974  1.2086  1.5063
  218MOL    C6226536   6.831   0.420   3.694  0.4304  0.0696  0.3723
  218MOL   Cl6326537   6.784   0.329   3.839  0.0443  0.1111 -0.4389
  218MOL   Cl6426538   6.684   0.519   3.674 -0.0568 -0.0330  0.2552
  218MOL    C6526539   6.954   0.517   3.737 -0.1370  0.1074 -0.3441
  218MOL    H6626540   6.945   0.608   3.679  2.5988  1.0798  0.6996
  218MOL    H6726541   6.937   0.551   3.839  2.0681 -1.7607  0.6921
  218MOL    C6826542   7.106   0.471   3.721  0.1651  0.2976  0.5789
  218MOL   Cl6926543   7.138   0.480   3.542 -0.0027  0.1115 -0.0999
  218MOL   Cl7026544   7.121   0.296   3.772 -0.1971  0.1792 -0.1420
  218MOL    C7126545   7.207   0.555   3.802  0.1771 -0.0231  0.0567
  218MOL    H7226546   7.175   0.549   3.907 -0.0338  2.3709  0.1497
  218MOL    H7326547   7.299   0.499   3.789 -0.0447 -0.5972  0.8834
  218MOL    C7426548   7.249   0.703   3.784 -1.1743 -0.2587  0.9277
  218MOL   Cl7526549   7.339   0.712   3.630 -0.2011 -0.1784 -0.1892
  218MOL   Cl7626550   7.368   0.733   3.916 -0.3578 -0.0337 -0.3213
  218MOL    C7726551   7.130   0.804   3.789  0.0943 -0.4016  0.2147
  218MOL    H7826552   7.107   0.809   3.683  0.6206 -0.6089  0.0878
  218MOL    H7926553   7.044   0.759   3.838 -0.1005 -1.8113 -1.3655
  218MOL    C8026554   7.136   0.948   3.848 -0.4049  0.0826 -0.1976
  218MOL   Cl8126555   7.284   1.020   3.793  0.1900 -0.5122  0.1266
  218MOL   Cl8226556   7.147   0.935   4.030 -0.1881 -0.0589 -0.5876
  218MOL    C8326557   7.015   1.037   3.807  0.2867 -0.2862 -0.2674
  218MOL    H8426558   7.019   1.126   3.869 -0.4268  0.3784 -1.1520
  218MOL    H8526559   7.028   1.076   3.706 -1.2079  3.0312  0.7837
  218MOL    C8626560   6.868   0.984   3.816  0.2522  0.5533 -0.4474
  218MOL   Cl8726561   6.839   0.891   3.962 -0.1048  0.3657  0.0251
  218MOL   Cl8826562   6.839   0.873   3.673  0.2707  0.1940  0.0162
  218MOL    C8926563   6.758   1.096   3.815  0.5023  0.0463  0.2084
  218MOL    H9026564   6.660   1.052   3.797  0.0290  1.1720  0.0138
  218MOL    H9126565   6.760   1.139   3.915  1.8940  1.1594 -0.2775
  218MOL    C9226566   6.752   1.217   3.716 -0.0956  1.0842  0.3539
  218MOL   Cl9326567   6.777   1.158   3.548  0.3003 -0.5104 -0.2289
  218MOL   Cl9426568   6.880   1.336   3.763  0.0146 -0.1301 -0.1914
  218MOL    C9526569   6.611   1.287   3.717 -0.0040 -0.0538  0.2348
  218MOL    H9626570   6.621   1.370   3.646 -1.3139  1.0198  1.2820
  218MOL    H9726571   6.538   1.225   3.664  0.4592 -1.0970  0.7925
  218MOL    C9826572   6.547   1.350   3.843  0.0756  0.5632 -1.0507
  218MOL   Cl9926573   6.484   1.210   3.939  0.1875 -0.0029  0.0264
  218MOL  Cl10026574   6.403   1.430   3.762  0.0508 -0.1652 -0.1575
  218MOL   C10126575   6.630   1.450   3.929  0.1833 -0.0804  0.1673
  218MOL   H10226576   6.730   1.411   3.949  0.0943 -0.2235  0.3352
  218MOL   H10326577   6.649   1.530   3.857  2.1335  0.6506  1.4614
  218MOL   C10426578   6.578   1.537   4.044 -0.1881 -0.1200  0.1761
  218MOL  Cl10526579   6.421   1.619   4.006  0.2769  0.1867  0.1765
  218MOL  Cl10626580   6.698   1.663   4.061  0.0072  0.0623  0.0575
  218MOL   C10726581   6.577   1.453   4.178  0.4885 -0.3276  0.0816
  218MOL   H10826582   6.518   1.363   4.161 -0.5791  0.7233 -1.9864
  218MOL   H10926583   6.678   1.420   4.201  1.3711  0.6560 -2.1814
  218MOL   C11026584   6.526   1.506   4.319  0.3230 -0.8696 -0.0783
  218MOL  Cl11126585   6.544   1.366   4.436  0.2680 -0.5923 -0.0152
  218MOL  Cl11226586   6.344   1.537   4.310 -0.0276 -0.2082  0.0455
  218MOL   C11326587   6.594   1.636   4.376 -0.5498  0.1674  0.2889
  218MOL   H11426588   6.592   1.715   4.301 -1.7803 -0.9870 -0.9404
  218MOL   H11526589   6.532   1.666   4.460 -0.6069  0.1392  0.2574
  218MOL   C11626590   6.747   1.629   4.433 -0.6386 -0.3689  0.3467
  218MOL  Cl11726591   6.867   1.564   4.323  0.3221  0.0198 -0.1026
  218MOL  Cl11826592   6.753   1.545   4.586  0.1411 -0.0620 -0.0884
  218MOL   C11926593   6.788   1.775   4.468 -0.1553  0.0640  0.0072
  218MOL   H12026594   6.893   1.795   4.489 -0.6231  0.0869  2.4788
  218MOL   H12126595   6.765   1.845   4.387  0.1375  0.6131  0.3907
  218MOL   H12226596   6.732   1.808   4.556  0.2044 -1.2095  0.7178
  219MOL     C126597   1.105   5.868   6.688  0.5772 -0.1882  0.3147
  219MOL    Cl226598   0.985   5.841   6.822  0.4100 -0.3002  0.0262
  219MOL    Cl326599   1.026   5.966   6.550  0.4361 -0.4494  0.0927
  219MOL     C426600   1.220   5.954   6.749 -0.0078 -0.0691 -0.5022
  219MOL     H526601   1.196   6.058   6.725 -2.2449 -0.3935  0.2189
  219MOL     H626602   1.209   5.943   6.857 -0.9078 -1.8032 -0.7467
  219MOL     H726603   1.126   5.765   6.659  1.8056 -0.3942  1.8889
  219MOL     C826604   1.359   5.909   6.693 -0.0909  0.0862 -0.3198
  219MOL    Cl926605   1.367   5.951   6.519 -0.2412  0.3092  0.3887
  219MOL   Cl1026606   1.368   5.733   6.702 -0.2378  0.3394 -0.4832
  219MOL    C1126607   1.482   5.967   6.764  0.5748 -0.3760 -0.6759
  219MOL    H1226608   1.564   5.902   6.734  0.6633  0.0283 -1.3208
  219MOL    H1326609   1.503   6.064   6.718 -0.3662  0.9538  1.5988
  219MOL    C1426610   1.499   5.972   6.914 -0.3635 -0.2125 -0.4758
  219MOL   Cl1526611   1.460   5.823   6.998 -0.1131 -0.1416 -0.1519
  219MOL   Cl1626612   1.398   6.103   6.973  0.1546  0.3384  0.0886
  219MOL    C1726613   1.644   6.004   6.970  0.6570 -0.0888 -0.1468
  219MOL    H1826614   1.624   6.034   7.073 -1.6235 -0.8222 -0.3456
  219MOL    H1926615   1.698   5.910   6.972  1.1369  0.1904  0.0255
  219MOL    C2026616   1.736   6.119   6.902  0.6728  0.1782  0.1655
  219MOL   Cl2126617   1.631   6.253   6.841 -0.2012  0.0040  0.3362
  219MOL   Cl2226618   1.828   6.051   6.770  0.5829 -0.0952 -0.2873
  219MOL    C2326619   1.846   6.179   6.994 -0.0386  0.0064 -1.0847
  219MOL    H2426620   1.916   6.095   6.996 -1.0220 -0.8065  0.7779
  219MOL    H2526621   1.896   6.266   6.951  0.8525  0.4691  0.8179
  219MOL    C2626622   1.820   6.214   7.147 -0.4578 -0.0677 -0.6468
  219MOL   Cl2726623   1.819   6.062   7.244  0.2029 -0.4032  0.2048
  219MOL   Cl2826624   1.660   6.295   7.166  0.0055  0.3657 -0.0989
  219MOL    C2926625   1.926   6.317   7.210 -0.3330 -0.2641  0.2390
  219MOL    H3026626   1.927   6.408   7.150  2.4427  0.3579  1.1319
  219MOL    H3126627   1.887   6.348   7.307  0.8311 -1.9429  1.2643
  219MOL    C3226628   2.076   6.276   7.219 -0.2156  0.1045  0.4520
  219MOL   Cl3326629   2.157   6.428   7.258 -0.3316 -0.2549 -0.5260
  219MOL   Cl3426630   2.145   6.242   7.051 -0.0371  0.0801 -0.0668
  219MOL    C3526631   2.109   6.160   7.323  0.3660  0.6310 -1.0576
  219MOL    H3626632   2.041   6.178   7.406  1.5574  0.1909  0.0188
  219MOL    H3726633   2.079   6.065   7.278 -1.3174 -0.3923  2.0677
  219MOL    C3826634   2.249   6.149   7.396  0.1814  0.1295  0.3227
  219MOL   Cl3926635   2.300   6.285   7.500  0.1068  0.5121 -0.2456
  219MOL   Cl4026636   2.381   6.112   7.286  0.1813  0.4200  0.1120
  219MOL    C4126637   2.246   6.026   7.495  0.2717  0.2599  0.1602
  219MOL    H4226638   2.241   5.935   7.434 -0.1432  1.9335 -2.3467
  219MOL    H4326639   2.346   6.022   7.539  0.2296  2.2138  0.4513
  219MOL    C4426640   2.137   6.013   7.615 -0.1518  0.5236  0.7058
  219MOL   Cl4526641   1.989   5.949   7.543  0.4316  0.2573 -0.2046
  219MOL   Cl4626642   2.095   6.168   7.695  0.1020 -0.0104 -0.0117
  219MOL    C4726643   2.177   5.905   7.728 -0.4667 -0.7651  0.3156
  219MOL    H4826644   2.189   5.814   7.670  1.8422  0.2634 -0.8995
  219MOL    H4926645   2.275   5.923   7.771 -1.1372  1.3399  1.0396
  219MOL    C5026646   2.083   5.875   7.851  0.5350  0.4278  0.4905
  219MOL   Cl5126647   1.915   5.825   7.809 -0.4350  0.2315 -0.2977
  219MOL   Cl5226648   2.077   6.015   7.968 -0.5338 -0.0727 -0.0031
  219MOL    C5326649   2.148   5.753   7.917 -0.2034 -0.5891  0.0046
  219MOL    H5426650   2.136   5.668   7.850  1.3615 -0.1604 -0.8153
  219MOL    H5526651   2.252   5.780   7.932  0.3866 -1.6269 -2.0867
  219MOL    C5626652   2.116   5.687   8.057 -0.2735 -0.5002 -0.6141
  219MOL   Cl5726653   1.942   5.644   8.054 -0.0378 -0.2746 -0.0690
  219MOL   Cl5826654   2.131   5.807   8.190  0.0735  0.1174 -0.3604
  219MOL    C5926655   2.200   5.552   8.081  0.3494 -0.2060 -0.6630
  219MOL    H6026656   2.164   5.504   8.172 -0.2536  0.5271 -0.5126
  219MOL    H6126657   2.170   5.477   8.007 -1.4812 -1.6122  1.4257
  219MOL    C6226658   2.357   5.548   8.089  0.0806  0.2875  0.7419
  219MOL   Cl6326659   2.421   5.674   8.201  0.0944 -0.5269  0.2731
  219MOL   Cl6426660   2.434   5.593   7.933  0.5745 -0.3563 -0.0500
  219MOL    C6526661   2.427   5.412   8.138 -0.0004 -0.3415 -0.0201
  219MOL    H6626662   2.532   5.439   8.129 -0.2304  0.0351 -1.8442
  219MOL    H6726663   2.403   5.400   8.243 -1.1426  0.3152 -0.1965
  219MOL    C6826664   2.389   5.277   8.074  0.1989  0.3613 -0.2296
  219MOL   Cl6926665   2.392   5.287   7.894 -0.2004 -0.0423 -0.2041
  219MOL   Cl7026666   2.224   5.246   8.129  0.2041 -0.2066  0.2690
  219MOL    C7126667   2.491   5.171   8.119  0.0713 -0.9003 -0.9723
  219MOL    H7226668   2.576   5.170   8.052  1.3276  1.4190  0.5307
  219MOL    H7326669   2.546   5.200   8.208  1.2160 -1.7303 -1.4037
  219MOL    C7426670   2.448   5.022   8.125 -0.5197 -0.1559  0.5165
  219MOL   Cl7526671   2.351   5.009   8.272 -0.0858 -0.1429  0.2760
  219MOL   Cl7626672   2.605   4.937   8.155 -0.1239 -0.1283 -0.0522
  219MOL    C7726673   2.372   4.981   7.993  0.5552 -0.3747 -0.5072
  219MOL    H7826674   2.284   5.045   7.987  0.9706  0.0541 -2.6058
  219MOL    H7926675   2.428   5.005   7.902 -0.4852  1.1173 -0.7847
  219MOL    C8026676   2.343   4.829   7.979 -0.1988  0.7664 -0.1750
  219MOL   Cl8126677   2.488   4.757   7.911  0.3418 -0.2585 -0.1365
  219MOL   Cl8226678   2.203   4.812   7.864 -0.0635  0.0743 -0.3508
  219MOL    C8326679   2.307   4.747   8.111  0.1705  0.1945 -0.7766
  219MOL    H8426680   2.388   4.741   8.183 -3.2843  0.4747  3.3212
  219MOL    H8526681   2.232   4.803   8.167  0.4883 -0.3482  0.2027
  219MOL    C8626682   2.257   4.598   8.104 -0.9109 -0.7752  0.1889
  219MOL   Cl8726683   2.318   4.499   8.240  0.1011 -0.2651  0.0497
  219MOL   Cl8826684   2.311   4.512   7.958  0.3209 -0.2821  0.1582
  219MOL    C8926685   2.100   4.579   8.096  0.7119  0.2463 -0.3214
  219MOL    H9026686   2.065   4.597   7.994 -0.4963  1.9724  0.3764
  219MOL    H9126687   2.085   4.472   8.108 -0.5482  0.5152  0.4912
  219MOL    C9226688   2.006   4.659   8.195  0.1535 -0.4855 -0.0387
  219MOL   Cl9326689   1.970   4.825   8.132  0.3833 -0.2002 -0.1322
  219MOL   Cl9426690   2.092   4.682   8.348  0.1363 -0.2927  0.1079
  219MOL    C9526691   1.868   4.588   8.210  0.1119  0.1011 -0.1635
  219MOL    H9626692   1.777   4.649   8.210  1.2629  1.8484 -1.0902
  219MOL    H9726693   1.852   4.527   8.121 -0.4639 -0.8040  0.5395
  219MOL    C9826694   1.835   4.495   8.331 -0.4563  0.0704  0.0511
  219MOL   Cl9926695   1.961   4.365   8.344  0.0272  0.3475 -0.2398
  219MOL  Cl10026696   1.687   4.418   8.275 -0.0435  0.1705 -0.0289
  219MOL   C10126697   1.799   4.569   8.473  0.3438 -0.5269 -0.8632
  219MOL   H10226698   1.884   4.636   8.489 -1.5033  1.6421  0.1003
  219MOL   H10326699   1.718   4.640   8.456  0.9376  0.1831 -0.7552
  219MOL   C10426700   1.762   4.502   8.607  0.5089  0.6630 -0.3557
  219MOL  Cl10526701   1.913   4.434   8.664 -0.0471  0.0191 -0.0897
  219MOL  Cl10626702   1.645   4.376   8.583 -0.2424 -0.3085 -0.5863
  219MOL   C10726703   1.697   4.589   8.717 -0.2089 -0.2501  0.0150
  219MOL   H10826704   1.600   4.614   8.674 -0.6233 -0.7808  0.6278
  219MOL   H10926705   1.674   4.519   8.798 -3.1004  1.1214  0.4476
  219MOL   C11026706   1.770   4.716   8.777 -0.7325 -0.4272 -0.4075
  219MOL  Cl11126707   1.817   4.817   8.643  0.4844 -0.0926  0.5518
  219MOL  Cl11226708   1.926   4.676   8.854  0.1806 -0.2117  0.2493
  219MOL   C11326709   1.683   4.788   8.882 -0.1539  0.1729  0.0914
  219MOL   H11426710   1.576   4.786   8.865  0.0603  1.0684 -1.5457
  219MOL   H11526711   1.703   4.730   8.971  2.1406 -1.5576 -1.4715
  219MOL   C11626712   1.705   4.945   8.919  0.4232  0.5028 -0.5807
  219MOL  Cl11726713   1.874   4.984   8.967  0.2467  0.2342  0.1751
  219MOL  Cl11826714   1.613   4.965   9.073 -0.1604 -0.0466  0.1213
  219MOL   C11926715   1.642   5.041   8.818  0.0194 -0.2102  0.0194
  219MOL   H12026716   1.553   5.001   8.771  0.5758  0.2371 -1.4403
  219MOL   H12126717   1.609   5.136   8.860 -0.2926 -0.9377  1.4793
  219MOL   H12226718   1.714   5.057   8.738 -0.9209  1.3658 -0.5276
  220MOL     C126719   0.973   0.031   8.278  0.0804 -0.4346 -0.4044
  220MOL    Cl226720   1.016   9.037   8.265  0.0756 -0.0922  0.4596
  220MOL    Cl326721   1.074   0.093   8.414  0.5295 -0.4956 -0.1353
  220MOL     C426722   1.000   0.112   8.146  0.2451  0.1907 -0.8531
  220MOL     H526723   1.104   0.142   8.130  0.5656 -0.7768 -0.6668
  220MOL     H626724   0.979   0.050   8.059 -1.1681  1.4675 -1.4404
  220MOL     H726725   0.873   0.023   8.320  0.8495  0.2579  1.6069
  220MOL     C826726   0.908   0.233   8.127 -0.0079 -0.1071 -0.3070
  220MOL    Cl926727   0.936   0.353   8.253 -0.0723  0.1765  0.1724
  220MOL   Cl1026728   0.739   0.177   8.137 -0.2645  0.3927 -0.5577
  220MOL    C1126729   0.918   0.314   7.996 -0.1106 -0.0130 -0.0661
  220MOL    H1226730   0.837   0.387   8.001  0.5614  0.7202  0.2902
  220MOL    H1326731   1.014   0.360   8.021 -0.0786  0.2287 -0.6335
  220MOL    C1426732   0.934   0.252   7.849  0.3670  0.4447  0.5570
  220MOL   Cl1526733   0.810   0.122   7.830  0.2107  0.0913  0.0038
  220MOL   Cl1626734   1.096   0.171   7.828 -0.1164  0.2017  0.0288
  220MOL    C1726735   0.906   0.359   7.749 -0.5776  0.3358 -0.2794
  220MOL    H1826736   0.881   0.307   7.656 -0.3629 -1.0065  0.4057
  220MOL    H1926737   0.807   0.402   7.761  0.2989  1.6745  2.4737
  220MOL    C2026738   1.009   0.470   7.716  0.8939 -0.0082 -0.3911
  220MOL   Cl2126739   1.055   0.556   7.866 -0.3637  0.1229  0.0317
  220MOL   Cl2226740   0.900   0.586   7.633 -0.5251 -0.0339  0.2465
  220MOL    C2326741   1.131   0.417   7.628 -0.0337 -0.0958  1.0280
  220MOL    H2426742   1.201   0.366   7.693  3.2399  1.8139 -0.8391
  220MOL    H2526743   1.100   0.343   7.555  0.1513  0.0409  0.8107
  220MOL    C2626744   1.232   0.521   7.560  0.2269  0.4203 -0.3491
  220MOL   Cl2726745   1.153   0.586   7.413  0.0246 -0.1830 -0.2594
  220MOL   Cl2826746   1.370   0.414   7.502 -0.0320 -0.3011 -0.5393
  220MOL    C2926747   1.273   0.632   7.658  0.2050 -0.4089 -0.2472
  220MOL    H3026748   1.185   0.694   7.676  0.9709  1.1721 -1.7843
  220MOL    H3126749   1.297   0.584   7.753 -0.9979 -1.3897 -0.4182
  220MOL    C3226750   1.385   0.729   7.620  0.3642 -0.6616 -0.5311
  220MOL   Cl3326751   1.537   0.644   7.641  0.3286 -0.2541 -0.2003
  220MOL   Cl3426752   1.379   0.850   7.757  0.1568  0.1494  0.4360
  220MOL    C3526753   1.373   0.803   7.480 -0.3515  0.2982 -0.0230
  220MOL    H3626754   1.404   0.726   7.409 -0.4201  0.7316 -0.5218
  220MOL    H3726755   1.272   0.835   7.456  0.7800  1.6506 -3.3886
  220MOL    C3826756   1.463   0.923   7.455  0.1479  0.3183  0.7670
  220MOL   Cl3926757   1.629   0.903   7.513  0.2869 -0.2048  0.2518
  220MOL   Cl4026758   1.395   1.069   7.541 -0.1964 -0.5128 -0.5335
  220MOL    C4126759   1.466   0.959   7.315  0.1430  0.0845 -0.5492
  220MOL    H4226760   1.364   0.973   7.278 -0.5997 -1.1644  0.9668
  220MOL    H4326761   1.510   1.059   7.314  0.9838 -0.2080  2.3602
  220MOL    C4426762   1.524   0.864   7.203 -0.6513  0.4378 -0.0328
  220MOL   Cl4526763   1.549   0.965   7.069 -0.0930 -0.0291  0.0960
  220MOL   Cl4626764   1.399   0.748   7.163 -0.2732 -0.1764  0.1508
  220MOL    C4726765   1.669   0.785   7.228 -0.2785  0.0745  0.1487
  220MOL    H4826766   1.732   0.854   7.284  0.8477 -1.2444  0.5037
  220MOL    H4926767   1.642   0.702   7.292 -0.9987 -0.5874 -0.9930
  220MOL    C5026768   1.765   0.725   7.118  0.3272  0.0931 -0.4225
  220MOL   Cl5126769   1.843   0.857   7.024 -0.0737  0.1087 -0.1693
  220MOL   Cl5226770   1.663   0.627   7.005 -0.0244  0.0183  0.1811
  220MOL    C5326771   1.865   0.628   7.193  0.5145  0.0107  0.7868
  220MOL    H5426772   1.917   0.699   7.257  1.9651 -0.2059 -0.1087
  220MOL    H5526773   1.808   0.569   7.264 -0.2963  2.0669  1.8811
  220MOL    C5626774   1.971   0.544   7.131 -0.1779  0.4980  0.0458
  220MOL   Cl5726775   1.892   0.397   7.061 -0.2054 -0.1682  0.0264
  220MOL   Cl5826776   2.067   0.489   7.267 -0.0265 -0.1158  0.3733
  220MOL    C5926777   2.059   0.610   7.017  0.5703 -0.0147  0.6953
  220MOL    H6026778   2.010   0.616   6.920  0.5767 -0.2757  0.6753
  220MOL    H6126779   2.071   0.714   7.044  1.4848  0.7794 -2.5682
  220MOL    C6226780   2.200   0.547   6.987  0.2543 -0.9416  0.2975
  220MOL   Cl6326781   2.189   0.370   7.003 -0.4115 -0.0057  0.5788
  220MOL   Cl6426782   2.305   0.612   7.118 -0.5084 -0.4197 -0.0127
  220MOL    C6526783   2.260   0.573   6.837  0.7869 -0.8482 -0.7930
  220MOL    H6626784   2.182   0.552   6.764 -0.8861 -0.2650  0.7742
  220MOL    H6726785   2.280   0.680   6.832  1.8488 -0.9579  0.6814
  220MOL    C6826786   2.397   0.515   6.787 -0.3539  0.0191  0.4598
  220MOL   Cl6926787   2.521   0.519   6.916  0.1353 -0.3444  0.0641
  220MOL   Cl7026788   2.452   0.627   6.663 -0.1768 -0.2137  0.1111
  220MOL    C7126789   2.371   0.375   6.723 -0.3051  0.4352 -0.0332
  220MOL    H7226790   2.307   0.328   6.797 -0.3958 -0.5308 -0.7066
  220MOL    H7326791   2.301   0.398   6.643 -0.8842 -1.0577  0.0330
  220MOL    C7426792   2.485   0.275   6.680 -0.4881 -0.7119 -0.0190
  220MOL   Cl7526793   2.587   0.233   6.819  0.0545  0.1477  0.1692
  220MOL   Cl7626794   2.592   0.362   6.568 -0.2921 -0.2729  0.1043
  220MOL    C7726795   2.437   0.137   6.624 -0.0743 -0.4419 -0.1460
  220MOL    H7826796   2.495   0.059   6.673 -1.0104 -1.6489 -0.9225
  220MOL    H7926797   2.337   0.118   6.663  0.6500 -2.9655  0.5225
  220MOL    C8026798   2.416   0.114   6.472  0.1923 -0.5955 -0.3016
  220MOL   Cl8126799   2.299   0.239   6.408 -0.2007 -0.0461  0.0147
  220MOL   Cl8226800   2.324   9.138   6.468 -0.1117 -0.4279  0.0626
  220MOL    C8326801   2.546   0.106   6.389  0.2923 -1.0195  0.2085
  220MOL    H8426802   2.504   0.067   6.296  0.1545  0.2036 -0.2588
  220MOL    H8526803   2.581   0.208   6.371 -0.1179 -0.8026  0.6242
  220MOL    C8626804   2.668   0.011   6.416  0.0237 -0.0904  0.4254
  220MOL   Cl8726805   2.610   9.019   6.426  0.3792  0.1783 -0.0664
  220MOL   Cl8826806   2.751   0.059   6.571  0.1159  0.4467  0.0309
  220MOL    C8926807   2.772   0.024   6.296 -0.3218 -0.3093  0.8774
  220MOL    H9026808   2.716   0.052   6.207  0.3356 -0.7236  0.3269
  220MOL    H9126809   2.838   0.110   6.312 -1.0636 -0.0156  2.4201
  220MOL    C9226810   2.874   9.089   6.251  0.3986  0.4451  0.3825
  220MOL   Cl9326811   2.993   9.153   6.124  0.0711 -0.5008 -0.3668
  220MOL   Cl9426812   2.777   8.973   6.164 -0.5138  0.0185 -0.0372
  220MOL    C9526813   2.953   9.021   6.367  0.4359  0.2408 -0.0828
  220MOL    H9626814   2.997   9.106   6.418  3.7796 -1.2148 -0.4463
  220MOL    H9726815   2.875   8.976   6.428 -1.6360  0.5630 -2.3818
  220MOL    C9826816   3.078   8.923   6.350 -0.5804 -0.1062 -0.1348
  220MOL   Cl9926817   3.137   8.867   6.509 -0.3057  0.1874 -0.4585
  220MOL  Cl10026818   3.217   9.015   6.282  0.5157  0.0343 -0.3085
  220MOL   C10126819   3.079   8.801   6.248  0.6707 -0.1927  0.2062
  220MOL   H10226820   3.054   8.850   6.154 -0.5449  2.0054  1.6111
  220MOL   H10326821   3.184   8.773   6.243  0.6851 -0.0629 -0.1924
  220MOL   C10426822   3.003   8.669   6.277 -0.2722 -0.5550 -0.0304
  220MOL  Cl10526823   2.849   8.690   6.366 -0.3545  0.0245  0.0838
  220MOL  Cl10626824   3.110   8.571   6.385 -0.1503  0.0030  0.2620
  220MOL   C10726825   2.956   8.594   6.149 -0.5413  0.2325 -0.6634
  220MOL   H10826826   2.885   8.516   6.179 -0.9409  1.4991  1.8433
  220MOL   H10926827   2.894   8.658   6.087  1.3412  1.5690 -1.1842
  220MOL   C11026828   3.062   8.520   6.068 -0.1850 -1.0081 -0.1726
  220MOL  Cl11126829   3.124   8.375   6.157  0.0252 -0.0797 -0.1721
  220MOL  Cl11226830   3.194   8.626   6.024 -0.0389 -0.3213  0.0232
  220MOL   C11326831   2.995   8.469   5.933  0.1310  0.0212 -0.6608
  220MOL   H11426832   2.929   8.390   5.969  2.0842 -1.6223 -0.5861
  220MOL   H11526833   2.945   8.554   5.887 -0.9808  0.0581  0.5949
  220MOL   C11626834   3.080   8.403   5.817  0.7988  0.8100  0.5976
  220MOL  Cl11726835   3.174   8.530   5.723  0.2142  0.1181 -0.0419
  220MOL  Cl11826836   2.952   8.324   5.715  0.3342  0.0131 -0.0521
  220MOL   C11926837   3.175   8.292   5.862  0.5934  0.1849 -0.3624
  220MOL   H12026838   3.251   8.340   5.923  0.6728 -0.4463  0.0330
  220MOL   H12126839   3.123   8.209   5.910  0.6774  0.2969 -0.0750
  220MOL   H12226840   3.220   8.247   5.773  1.2473  0.6285 -0.2569
  221MOL     C126841   0.385   6.331   5.220  0.0853 -0.4401 -0.2214
  221MOL    Cl226842   0.496   6.214   5.280  0.1337 -0.0600  0.3368
  221MOL    Cl326843   0.425   6.343   5.048  0.0885  0.0655 -0.2758
  221MOL     C426844   0.236   6.270   5.232 -0.8340 -0.2980  0.2000
  221MOL     H526845   0.232   6.182   5.168 -2.1524  1.0751 -1.6760
  221MOL     H626846   0.230   6.236   5.336  1.7607 -0.3526  0.3547
  221MOL     H726847   0.399   6.423   5.276 -0.5161 -1.9879  2.5717
  221MOL     C826848   0.113   6.369   5.210  0.3717 -0.0205  0.0411
  221MOL    Cl926849   0.114   6.460   5.059  0.1211  0.1836  0.0026
  221MOL   Cl1026850   0.119   6.471   5.352 -0.0580 -0.0196 -0.3117
  221MOL    C1126851   9.175   6.277   5.212 -0.1067 -0.4005  0.2658
  221MOL    H1226852   0.009   6.206   5.131  0.0821  0.4582 -0.4566
  221MOL    H1326853   9.176   6.222   5.306 -0.1798 -0.6599  0.1157
  221MOL    C1426854   9.027   6.330   5.210 -0.6595 -0.4639 -0.4199
  221MOL   Cl1526855   8.999   6.420   5.362  0.0637  0.1618  0.1359
  221MOL   Cl1626856   8.925   6.189   5.211 -0.1853  0.1883  0.6471
  221MOL    C1726857   8.969   6.418   5.097  0.0031  0.0188  0.7492
  221MOL    H1826858   8.874   6.446   5.142  0.7404 -0.8584  2.9161
  221MOL    H1926859   9.042   6.500   5.088 -0.9435  0.7110 -0.8004
  221MOL    C2026860   8.934   6.350   4.956 -0.0464  0.7936  0.0675
  221MOL   Cl2126861   8.768   6.270   4.949  0.2289 -0.1261  0.4054
  221MOL   Cl2226862   9.044   6.224   4.911 -0.0100 -0.0639  0.0765
  221MOL    C2326863   8.942   6.450   4.840 -0.8047  0.4559  1.1912
  221MOL    H2426864   9.044   6.487   4.839 -0.0454 -1.4891 -2.1802
  221MOL    H2526865   8.928   6.388   4.751 -1.0394  1.7139  0.3228
  221MOL    C2626866   8.845   6.582   4.839  0.2753  1.0944 -0.2097
  221MOL   Cl2726867   8.869   6.685   4.985  0.0825  0.2070  0.2757
  221MOL   Cl2826868   8.667   6.551   4.827  0.1173  0.0901  0.0360
  221MOL    C2926869   8.883   6.672   4.716  0.0061 -0.3115 -0.3566
  221MOL    H3026870   8.810   6.752   4.712 -0.1603 -0.4076  0.7748
  221MOL    H3126871   8.978   6.718   4.743 -0.0167  0.6274 -1.8172
  221MOL    C3226872   8.898   6.617   4.576  0.1482  0.7087  0.8482
  221MOL   Cl3326873   9.058   6.545   4.564  0.0779  0.1557  0.0061
  221MOL   Cl3426874   8.927   6.768   4.480  0.5717 -0.1578 -0.2792
  221MOL    C3526875   8.784   6.526   4.515  0.8909  0.2879 -0.6866
  221MOL    H3626876   8.754   6.465   4.600  4.0035 -1.4308 -0.7627
  221MOL    H3726877   8.702   6.591   4.485  0.1801 -0.6342 -0.7493
  221MOL    C3826878   8.825   6.424   4.400  0.3361  0.5687 -0.7297
  221MOL   Cl3926879   8.672   6.349   4.347 -0.0773  0.0266  0.2762
  221MOL   Cl4026880   8.921   6.288   4.464 -0.0314 -0.3093  0.4249
  221MOL    C4126881   8.895   6.493   4.280  0.1796 -0.4691  0.7096
  221MOL    H4226882   8.818   6.552   4.230  1.3481 -0.5418 -1.2096
  221MOL    H4326883   8.968   6.565   4.318 -0.1974 -0.9468  2.3973
  221MOL    C4426884   8.967   6.417   4.168  0.6628 -0.4396  0.7559
  221MOL   Cl4526885   9.130   6.365   4.220  0.2162 -0.0591  0.2651
  221MOL   Cl4626886   9.001   6.539   4.048 -0.5508  0.2322  0.0324
  221MOL    C4726887   8.880   6.304   4.100 -0.7067 -0.7515  0.3584
  221MOL    H4826888   8.876   6.220   4.168 -1.1588 -0.1462  1.0881
  221MOL    H4926889   8.775   6.332   4.096 -0.2769  0.7702 -1.0264
  221MOL    C5026890   8.919   6.245   3.957 -0.5004  0.2560  0.1384
  221MOL   Cl5126891   8.867   6.353   3.827 -0.3570 -0.0707 -0.0579
  221MOL   Cl5226892   8.823   6.092   3.948 -0.1094 -0.0219  0.0456
  221MOL    C5326893   9.077   6.205   3.939  0.2062 -0.9382 -0.0079
  221MOL    H5426894   9.114   6.299   3.897 -0.7872 -1.5872 -2.4673
  221MOL    H5526895   9.120   6.184   4.036 -2.2173 -3.1365  0.6473
  221MOL    C5626896   9.118   6.090   3.847 -0.2013  0.4484 -0.0636
  221MOL   Cl5726897   0.113   6.125   3.828 -0.1886 -0.4098  0.2361
  221MOL   Cl5826898   9.042   6.107   3.686 -0.3211 -0.0927 -0.0178
  221MOL    C5926899   9.108   5.947   3.899 -0.1058 -0.3480 -0.1683
  221MOL    H6026900   9.005   5.913   3.887  0.1121 -1.1383  0.1950
  221MOL    H6126901   9.171   5.883   3.838  0.5239 -0.0108  0.1221
  221MOL    C6226902   9.152   5.899   4.045 -0.4121  0.2354  0.2395
  221MOL   Cl6326903   9.109   5.734   4.048 -0.1398  0.0923 -0.3900
  221MOL   Cl6426904   9.039   5.968   4.164 -0.3213 -0.2692 -0.1240
  221MOL    C6526905   0.121   5.925   4.092 -0.2175 -0.0373  0.4693
  221MOL    H6626906   0.184   5.868   4.025  0.8169  1.0195  0.5210
  221MOL    H6726907   0.146   6.026   4.058  0.6658 -0.4223 -0.0294
  221MOL    C6826908   0.159   5.914   4.239 -0.1488  0.6805 -0.0908
  221MOL   Cl6926909   0.074   5.786   4.334  0.0156 -0.0008  0.1473
  221MOL   Cl7026910   0.108   6.071   4.315  0.3785  0.2426 -0.2347
  221MOL    C7126911   0.314   5.893   4.238 -0.1996 -0.2291  0.5301
  221MOL    H7226912   0.329   5.824   4.155  1.0417 -1.3626  1.6809
  221MOL    H7326913   0.355   5.988   4.203  1.1975 -0.8245  0.5546
  221MOL    C7426914   0.396   5.848   4.362 -0.2275 -0.1662 -0.6677
  221MOL   Cl7526915   0.564   5.844   4.302 -0.1410  0.0223  0.2333
  221MOL   Cl7626916   0.355   5.682   4.394 -0.2521  0.4593  0.2413
  221MOL    C7726917   0.368   5.931   4.499  0.7360 -0.0963 -0.2606
  221MOL    H7826918   0.261   5.920   4.511  0.7205  0.2052 -0.1294
  221MOL    H7926919   0.411   5.867   4.576  0.9852 -1.1106 -1.2327
  221MOL    C8026920   0.424   6.075   4.526 -0.7493  0.6081  0.1880
  221MOL   Cl8126921   0.328   6.168   4.642  0.1006  0.0974  0.3048
  221MOL   Cl8226922   0.444   6.163   4.377 -0.2476 -0.2024  0.2551
  221MOL    C8326923   0.572   6.068   4.579  0.1541  0.2708  0.3767
  221MOL    H8426924   0.633   6.036   4.494 -1.3520  1.8825 -1.3629
  221MOL    H8526925   0.591   6.174   4.596  1.5042 -0.2181  2.0324
  221MOL    C8626926   0.618   5.986   4.708 -0.6057 -0.4207 -0.3606
  221MOL   Cl8726927   0.787   6.042   4.743 -0.0227  0.3114  0.5974
  221MOL   Cl8826928   0.634   5.809   4.669 -0.2816 -0.3418 -0.4324
  221MOL    C8926929   0.525   6.009   4.832 -0.6370  0.0550  0.1697
  221MOL    H9026930   0.511   6.116   4.845 -0.1352  0.2175 -0.6404
  221MOL    H9126931   0.431   5.956   4.819 -0.0624 -0.9829  0.1459
  221MOL    C9226932   0.578   5.969   4.975  0.1918  0.0612 -0.5601
  221MOL   Cl9326933   0.431   5.974   5.082  0.0530  0.1105 -0.0738
  221MOL   Cl9426934   0.678   6.095   5.034 -0.1514 -0.0530  0.1530
  221MOL    C9526935   0.653   5.835   4.983  0.5411 -0.0749  0.6025
  221MOL    H9626936   0.612   5.761   4.914 -1.8257 -1.1838  3.0813
  221MOL    H9726937   0.749   5.857   4.937 -0.3643  3.7177  0.4331
  221MOL    C9826938   0.690   5.772   5.119  0.3693 -0.1648  0.7666
  221MOL   Cl9926939   0.811   5.647   5.082  0.4281  0.1658  0.2857
  221MOL  Cl10026940   0.541   5.700   5.166 -0.0054 -0.1137 -0.0075
  221MOL   C10126941   0.746   5.875   5.223  0.1168 -0.2092 -0.6751
  221MOL   H10226942   0.822   5.938   5.177 -0.3298  0.5335 -0.4044
  221MOL   H10326943   0.668   5.948   5.242 -0.3563 -0.5496 -1.3004
  221MOL   C10426944   0.804   5.826   5.361 -0.6075  0.0313 -0.3190
  221MOL  Cl10526945   0.817   5.983   5.461  0.5215 -0.2597 -0.0461
  221MOL  Cl10626946   0.974   5.766   5.336  0.0174 -0.3336 -0.4261
  221MOL   C10726947   0.727   5.717   5.437 -0.5159 -0.5561 -0.1366
  221MOL   H10826948   0.694   5.641   5.367  1.8302 -1.3296 -0.4632
  221MOL   H10926949   0.800   5.658   5.492  0.5026 -0.5498 -1.4277
  221MOL   C11026950   0.616   5.751   5.531 -0.2230  0.0833 -0.4398
  221MOL  Cl11126951   0.682   5.825   5.687 -0.2076  0.3777  0.0977
  221MOL  Cl11226952   0.546   5.597   5.593 -0.1492 -0.4593  0.0074
  221MOL   C11326953   0.489   5.818   5.461  0.4584 -0.4392 -0.3830
  221MOL   H11426954   0.515   5.889   5.383 -0.1024 -1.1946 -1.2760
  221MOL   H11526955   0.430   5.737   5.418  0.5689 -0.5714 -0.2847
  221MOL   C11626956   0.396   5.902   5.555  0.0150 -0.1300 -0.5774
  221MOL  Cl11726957   0.261   5.947   5.445  0.3310  0.2069 -0.1412
  221MOL  Cl11826958   0.478   6.053   5.602 -0.5286 -0.4274 -0.2502
  221MOL   C11926959   0.348   5.835   5.672  0.7914 -0.3607  0.0902
  221MOL   H12026960   0.427   5.817   5.745  2.5386  2.1489 -1.1201
  221MOL   H12126961   0.270   5.889   5.725  1.1251  0.0483  0.1615
  221MOL   H12226962   0.305   5.738   5.646  1.5028 -0.5829 -0.2439
  222MOL     C126963   5.495   2.905   4.538 -0.2025  0.1449  0.3284
  222MOL    Cl226964   5.647   2.865   4.625  0.0626 -0.0272 -0.4295
  222MOL    Cl326965   5.502   2.878   4.364  0.1360 -0.2986  0.1698
  222MOL     C426966   5.377   2.836   4.605 -0.1919 -0.1120  0.6530
  222MOL     H526967   5.338   2.751   4.548 -0.9788 -0.6818  2.0082
  222MOL     H626968   5.403   2.780   4.695  0.7045  0.2256  0.6077
  222MOL     H726969   5.486   3.013   4.537  0.1583  0.1806 -0.7204
  222MOL     C826970   5.265   2.930   4.648 -0.7413  0.5662 -0.6309
  222MOL    Cl926971   5.195   3.013   4.506  0.5614  0.4591 -0.1461
  222MOL   Cl1026972   5.334   3.064   4.746  0.5870  0.1900  0.3417
  222MOL    C1126973   5.154   2.856   4.733  0.5370 -0.3134  0.3448
  222MOL    H1226974   5.141   2.750   4.709 -0.0606  0.0594 -1.0064
  222MOL    H1326975   5.191   2.859   4.835  0.7611  2.4659  0.2001
  222MOL    C1426976   5.004   2.900   4.726  0.2040  0.2890  0.4117
  222MOL   Cl1526977   4.981   3.073   4.736 -0.3337  0.0633  0.0602
  222MOL   Cl1626978   4.922   2.838   4.868 -0.1780  0.1406  0.0078
  222MOL    C1726979   4.925   2.847   4.601 -0.0584  0.1483 -0.2008
  222MOL    H1826980   4.822   2.866   4.632 -0.0270 -0.7751  0.4869
  222MOL    H1926981   4.936   2.916   4.518 -0.0986 -2.7868 -2.7289
  222MOL    C2026982   4.926   2.698   4.560 -0.3170  0.4148 -0.0900
  222MOL   Cl2126983   5.084   2.680   4.478  0.0567 -0.3402 -0.3324
  222MOL   Cl2226984   4.798   2.680   4.431  0.1294 -0.2510 -0.1302
  222MOL    C2326985   4.898   2.598   4.676 -0.7617 -0.2809 -0.6226
  222MOL    H2426986   4.986   2.605   4.740 -1.2491 -1.0285  0.1243
  222MOL    H2526987   4.814   2.636   4.733 -0.2189 -0.1437  0.0932
  222MOL    C2626988   4.874   2.439   4.663 -0.4984 -0.2893  0.2174
  222MOL   Cl2726989   4.726   2.403   4.574  0.2070 -0.1554  0.2864
  222MOL   Cl2826990   4.857   2.375   4.831  0.0071 -0.1718 -0.0973
  222MOL    C2926991   4.996   2.370   4.583  0.2540  0.3616 -0.1752
  222MOL    H3026992   4.954   2.286   4.528  1.9288 -0.3698 -0.3667
  222MOL    H3126993   5.038   2.440   4.510  0.8711 -0.2170 -0.3769
  222MOL    C3226994   5.130   2.320   4.654 -0.0702 -0.0527  0.8854
  222MOL   Cl3326995   5.109   2.174   4.755 -0.2197 -0.2529  0.2089
  222MOL   Cl3426996   5.175   2.438   4.769  0.0622  0.1029  0.0781
  222MOL    C3526997   5.259   2.305   4.569  0.7991 -0.1553 -0.1627
  222MOL    H3626998   5.301   2.406   4.568  1.8080 -0.5298  1.7642
  222MOL    H3726999   5.338   2.261   4.630  0.6871  0.9773  0.8213
  222MOL    C3827000   5.250   2.237   4.428 -0.1069 -1.4132 -0.4899
  222MOL   Cl3927001   5.184   2.359   4.318 -0.1489  0.1419 -0.1343
  222MOL   Cl4027002   5.138   2.104   4.427 -0.2825 -0.4305 -0.3144
  222MOL    C4127003   5.390   2.191   4.375 -0.3916 -0.0603  0.1952
  222MOL    H4227004   5.417   2.090   4.406 -0.1228 -0.7279 -2.1313
  222MOL    H4327005   5.369   2.173   4.270  1.4565 -0.2745 -0.1436
  222MOL    C4427006   5.509   2.294   4.390 -0.3830  0.1375 -0.2140
  222MOL   Cl4527007   5.463   2.460   4.353 -0.1897 -0.0196 -0.2135
  222MOL   Cl4627008   5.626   2.236   4.267 -0.0947 -0.4645 -0.1277
  222MOL    C4727009   5.586   2.309   4.528  0.5815 -0.2193  0.0759
  222MOL    H4827010   5.674   2.371   4.513  0.6973 -0.5875 -0.8246
  222MOL    H4927011   5.518   2.366   4.590  0.5829 -1.7275  1.5191
  222MOL    C5027012   5.635   2.188   4.610 -0.0861  0.2499 -0.2299
  222MOL   Cl5127013   5.771   2.106   4.525  0.0007  0.1979 -0.0299
  222MOL   Cl5227014   5.505   2.059   4.626  0.1361 -0.1325  0.2324
  222MOL    C5327015   5.681   2.229   4.755 -0.3679  0.0368 -0.9070
  222MOL    H5427016   5.588   2.253   4.805  0.1170 -3.8225  2.0854
  222MOL    H5527017   5.713   2.136   4.803 -2.7335 -1.7314 -2.6297
  222MOL    C5627018   5.788   2.343   4.791  0.3890  0.4683  0.0218
  222MOL   Cl5727019   5.723   2.497   4.744  0.2691  0.1452 -0.4517
  222MOL   Cl5827020   5.943   2.314   4.694  0.1164 -0.3171  0.0325
  222MOL    C5927021   5.842   2.353   4.935  0.8793 -0.4027 -0.1699
  222MOL    H6027022   5.874   2.251   4.956  0.9368 -0.1836  0.8304
  222MOL    H6127023   5.924   2.424   4.929  0.6557 -0.1579 -0.3076
  222MOL    C6227024   5.753   2.399   5.055  0.6947  0.1365  0.2317
  222MOL   Cl6327025   5.590   2.319   5.051  0.3326  0.0205 -0.1966
  222MOL   Cl6427026   5.727   2.577   5.046 -0.1617  0.6603 -0.4790
  222MOL    C6527027   5.817   2.363   5.188 -0.9070  0.2972 -0.1790
  222MOL    H6627028   5.808   2.254   5.187  1.6842  0.0435  1.1799
  222MOL    H6727029   5.918   2.401   5.183 -1.8713  2.7342 -1.7178
  222MOL    C6827030   5.777   2.432   5.328 -0.2578 -0.1284 -0.0244
  222MOL   Cl6927031   5.854   2.315   5.444  0.0908 -0.6882  0.6611
  222MOL   Cl7027032   5.603   2.421   5.362 -0.2145 -0.0324 -0.0729
  222MOL    C7127033   5.839   2.581   5.345 -0.2198  0.2326 -0.2406
  222MOL    H7227034   5.932   2.583   5.288 -0.7542  0.9745 -1.1054
  222MOL    H7327035   5.764   2.648   5.302 -1.5314 -0.5219  0.8336
  222MOL    C7427036   5.849   2.647   5.485 -0.2298  0.9007 -0.4292
  222MOL   Cl7527037   5.952   2.558   5.593  0.6264  0.0485  0.1393
  222MOL   Cl7627038   5.690   2.662   5.559  0.3914  0.3146  0.0188
  222MOL    C7727039   5.923   2.783   5.477 -0.0151  0.4341  0.1043
  222MOL    H7827040   5.905   2.829   5.575 -1.0606 -0.3107  0.2685
  222MOL    H7927041   6.030   2.775   5.460 -0.0898  0.0772 -0.1944
  222MOL    C8027042   5.880   2.893   5.375  0.0831  0.1506  0.5492
  222MOL   Cl8127043   5.708   2.920   5.364 -0.0971  0.0460 -0.3256
  222MOL   Cl8227044   5.928   2.847   5.216 -0.1389 -0.1564 -0.1644
  222MOL    C8327045   5.949   3.029   5.428  0.2612  0.0898 -0.0877
  222MOL    H8427046   5.917   3.058   5.528 -1.6941  2.5751 -1.3844
  222MOL    H8527047   6.050   2.998   5.456  0.7310  1.4968 -0.1816
  222MOL    C8627048   5.950   3.164   5.346 -0.2981 -0.1480 -0.4079
  222MOL   Cl8727049   6.076   3.127   5.225  0.2295 -0.1175 -0.1750
  222MOL   Cl8827050   5.996   3.299   5.458  0.0039  0.0661 -0.3270
  222MOL    C8927051   5.816   3.185   5.273  0.0252  0.2683  0.2705
  222MOL    H9027052   5.804   3.110   5.195 -0.7008  1.2883 -0.6192
  222MOL    H9127053   5.742   3.169   5.351  1.2909 -1.4030  1.1497
  222MOL    C9227054   5.769   3.311   5.198  0.7103 -0.0214  0.8528
  222MOL   Cl9327055   5.728   3.436   5.316  0.2442  0.2010 -0.0057
  222MOL   Cl9427056   5.619   3.267   5.103 -0.1770  0.4681  0.1980
  222MOL    C9527057   5.885   3.371   5.105  0.2610 -0.2810 -0.3416
  222MOL    H9627058   5.973   3.372   5.170 -1.1371  0.5275  1.5816
  222MOL    H9727059   5.917   3.292   5.037  1.2168 -0.7662  0.6459
  222MOL    C9827060   5.869   3.498   5.012 -0.6113 -0.9315  0.2543
  222MOL   Cl9927061   5.697   3.554   5.002  0.6382  0.1621 -0.3219
  222MOL  Cl10027062   5.920   3.447   4.842 -0.1342  0.2774  0.2123
  222MOL   C10127063   5.949   3.626   5.043 -0.6164 -0.1352 -0.2132
  222MOL   H10227064   5.946   3.691   4.956 -2.2754 -1.4141 -1.1476
  222MOL   H10327065   5.907   3.689   5.122 -0.4494  1.2877 -1.2431
  222MOL   C10427066   6.096   3.625   5.101 -0.7408 -0.3535 -0.4887
  222MOL  Cl10527067   6.181   3.487   5.023 -0.4033 -0.0346  0.1712
  222MOL  Cl10627068   6.110   3.588   5.271 -0.0255  0.3616  0.1037
  222MOL   C10727069   6.180   3.756   5.076 -0.0888  1.1237 -0.5134
  222MOL   H10827070   6.285   3.732   5.092 -0.2276  1.5813  1.1570
  222MOL   H10927071   6.184   3.757   4.967  3.0162  0.8263 -0.4445
  222MOL   C11027072   6.135   3.895   5.120 -0.5312 -0.3066  0.4475
  222MOL  Cl11127073   6.097   3.902   5.292 -0.0097 -0.2831 -0.0448
  222MOL  Cl11227074   5.998   3.935   5.010 -0.1275  0.3406 -0.3324
  222MOL   C11327075   6.251   3.995   5.094  0.0568 -0.0028  0.5037
  222MOL   H11427076   6.335   3.958   5.153 -1.5164 -1.9928  1.5198
  222MOL   H11527077   6.280   3.979   4.990 -1.1336  1.8015 -0.1384
  222MOL   C11627078   6.242   4.147   5.106 -0.2318 -0.3617  0.2328
  222MOL  Cl11727079   6.376   4.221   5.007  0.0018  0.0895  0.2155
  222MOL  Cl11827080   6.279   4.190   5.276 -0.0605 -0.3232  0.1313
  222MOL   C11927081   6.116   4.213   5.060  0.4527 -0.8587 -0.4147
  222MOL   H12027082   6.082   4.214   4.957 -1.2065  0.3061  0.1280
  222MOL   H12127083   6.029   4.182   5.118  0.6220 -1.5359 -0.5142
  222MOL   H12227084   6.131   4.318   5.083 -1.4655 -0.7319  0.3988
  223MOL     C127085   0.937   4.478   7.845 -0.6876 -0.2647 -0.0324
  223MOL    Cl227086   1.089   4.433   7.935 -0.3255  0.2069  0.1756
  223MOL    Cl327087   0.969   4.561   7.691 -0.1375 -0.1305  0.0730
  223MOL     C427088   0.861   4.349   7.811  0.6274 -0.5536  0.2640
  223MOL     H527089   0.788   4.379   7.737  0.3406  1.5193  1.3669
  223MOL     H627090   0.937   4.300   7.751  0.7697  0.2813 -0.2372
  223MOL     H727091   0.872   4.542   7.905  2.6817  0.8643  2.5955
  223MOL     C827092   0.789   4.268   7.924 -0.1413 -0.1521  0.3324
  223MOL    Cl927093   0.682   4.378   8.014 -0.2879 -0.0394 -0.0603
  223MOL   Cl1027094   0.906   4.208   8.046  0.3616  0.4987  0.1832
  223MOL    C1127095   0.709   4.146   7.875 -0.1184 -0.6102  0.1572
  223MOL    H1227096   0.687   4.081   7.959 -0.5618  1.3087  1.5287
  223MOL    H1327097   0.612   4.187   7.847 -0.6912 -0.5001  2.2864
  223MOL    C1427098   0.762   4.058   7.759 -0.3801 -0.3411  0.1177
  223MOL   Cl1527099   0.745   4.142   7.602  0.2160 -0.1521 -0.1626
  223MOL   Cl1627100   0.660   3.908   7.767  0.2192  0.4490  0.3902
  223MOL    C1727101   0.910   4.008   7.773  0.1241 -0.3147  0.2636
  223MOL    H1827102   0.981   4.079   7.732  2.6234 -2.8490  0.0266
  223MOL    H1927103   0.935   3.983   7.877  0.5863 -2.4840 -0.3356
  223MOL    C2027104   0.967   3.882   7.698  0.2119 -0.5626  0.2758
  223MOL   Cl2127105   0.902   3.870   7.528 -0.1679 -0.0344 -0.0132
  223MOL   Cl2227106   0.917   3.731   7.776  0.1962 -0.2801 -0.0500
  223MOL    C2327107   1.121   3.865   7.677 -0.2181  0.3551 -0.5738
  223MOL    H2427108   1.139   3.764   7.641 -0.2102  0.5735 -1.1916
  223MOL    H2527109   1.145   3.931   7.594  1.0895  0.0332 -0.4698
  223MOL    C2627110   1.233   3.905   7.779 -1.1248  0.1725  0.2286
  223MOL   Cl2727111   1.226   3.816   7.936 -0.2102 -0.2042 -0.1433
  223MOL   Cl2827112   1.224   4.079   7.822  0.0827 -0.2588  0.1303
  223MOL    C2927113   1.378   3.877   7.721 -0.1842  0.4096  0.5603
  223MOL    H3027114   1.440   3.945   7.780 -0.9675  1.3405  0.3325
  223MOL    H3127115   1.425   3.779   7.729  4.7017  2.5032 -0.4786
  223MOL    C3227116   1.407   3.901   7.564  0.1091 -0.0896 -0.0776
  223MOL   Cl3327117   1.352   4.058   7.514  0.2139 -0.4432 -0.0268
  223MOL   Cl3427118   1.340   3.779   7.454 -0.0349  0.1620  0.1891
  223MOL    C3527119   1.563   3.904   7.529  0.1085 -0.0928 -0.3892
  223MOL    H3627120   1.564   3.884   7.422 -0.2000  2.7688 -0.9607
  223MOL    H3727121   1.613   4.001   7.540  1.2646 -0.6764 -0.4421
  223MOL    C3827122   1.656   3.808   7.600  0.2108 -0.1174  0.7975
  223MOL   Cl3927123   1.589   3.644   7.614 -0.1755  0.3354  0.1885
  223MOL   Cl4027124   1.673   3.860   7.768 -0.0996  0.1938  0.0839
  223MOL    C4127125   1.801   3.805   7.538 -0.4585  0.5512 -0.3992
  223MOL    H4227126   1.855   3.885   7.587 -1.4555  1.3889 -0.6574
  223MOL    H4327127   1.840   3.728   7.605  0.5049  0.8791 -0.5853
  223MOL    C4427128   1.835   3.770   7.391  0.7800 -0.2142  0.4581
  223MOL   Cl4527129   1.769   3.893   7.281  0.2417 -0.3278  0.1935
  223MOL   Cl4627130   1.750   3.621   7.345  0.1347  0.0650 -0.3410
  223MOL    C4727131   1.989   3.751   7.349  0.3738 -0.3763  0.3306
  223MOL    H4827132   2.011   3.647   7.375 -0.1125 -0.2186  1.4118
  223MOL    H4927133   1.977   3.761   7.241  0.6122 -1.4609  0.1993
  223MOL    C5027134   2.109   3.833   7.396 -0.0834 -0.0381  0.4452
  223MOL   Cl5127135   2.158   3.777   7.559  0.2086 -0.3725  0.4354
  223MOL   Cl5227136   2.066   4.006   7.399  0.2422 -0.0901  0.0739
  223MOL    C5327137   2.234   3.838   7.305 -0.1134  0.7899  0.4358
  223MOL    H5427138   2.198   3.889   7.215  0.6870  0.7086  0.0616
  223MOL    H5527139   2.310   3.904   7.346  1.6480  0.0001 -1.4821
  223MOL    C5627140   2.306   3.713   7.259 -0.0385  0.2889 -0.3889
  223MOL   Cl5727141   2.196   3.609   7.163 -0.0790  0.0190 -0.0374
  223MOL   Cl5827142   2.364   3.616   7.399 -0.1627 -0.0986  0.2180
  223MOL    C5927143   2.438   3.742   7.178 -0.5187  0.0126 -0.0610
  223MOL    H6027144   2.517   3.769   7.248  0.0517 -1.8300  0.0400
  223MOL    H6127145   2.458   3.645   7.132  2.1186  0.9109 -0.9467
  223MOL    C6227146   2.440   3.846   7.059 -0.3160  0.0121  0.3387
  223MOL   Cl6327147   2.439   4.009   7.128  0.3621  0.2202 -0.1229
  223MOL   Cl6427148   2.291   3.831   6.965 -0.0347 -0.2976 -0.3238
  223MOL    C6527149   2.562   3.832   6.964  0.4207  0.4659 -0.2712
  223MOL    H6627150   2.561   3.725   6.947 -0.4203  0.6025 -1.1240
  223MOL    H6727151   2.534   3.874   6.868 -1.4589 -0.3939 -0.1246
  223MOL    C6827152   2.707   3.889   6.995  0.2386 -0.7297  0.2614
  223MOL   Cl6927153   2.742   3.857   7.165 -0.0599  0.1188 -0.0005
  223MOL   Cl7027154   2.707   4.062   6.965  0.3355  0.2945  0.2843
  223MOL    C7127155   2.818   3.833   6.904  0.2976 -1.1822 -0.0156
  223MOL    H7227156   2.825   3.886   6.809  0.5156 -1.9422 -0.4285
  223MOL    H7327157   2.911   3.871   6.947 -0.8795  1.5720  0.1722
  223MOL    C7427158   2.819   3.683   6.860  0.2523 -0.6962 -0.3724
  223MOL   Cl7527159   2.717   3.644   6.714 -0.2455 -0.0960 -0.5515
  223MOL   Cl7627160   2.768   3.583   7.004  0.1560 -0.3278  0.1414
  223MOL    C7727161   2.965   3.643   6.812  0.5247 -0.3330 -1.0252
  223MOL    H7827162   2.991   3.691   6.718  1.9400 -0.6009 -0.7765
  223MOL    H7927163   3.035   3.694   6.877  0.8478  1.3108 -2.6246
  223MOL    C8027164   3.010   3.492   6.809  0.8073  0.3041 -0.5923
  223MOL   Cl8127165   2.887   3.394   6.729 -0.1614  0.0707 -0.5372
  223MOL   Cl8227166   3.043   3.429   6.971  0.2446 -0.0994  0.1266
  223MOL    C8327167   3.155   3.478   6.753  0.0688 -0.0813 -0.4074
  223MOL    H8427168   3.216   3.544   6.816 -0.4646 -0.6961  0.7675
  223MOL    H8527169   3.190   3.376   6.766  2.6920  0.8631  0.3226
  223MOL    C8627170   3.198   3.492   6.600 -0.9167  0.2363 -0.1879
  223MOL   Cl8727171   3.135   3.643   6.528  0.0326  0.0548  0.2749
  223MOL   Cl8827172   3.141   3.351   6.509 -0.1861 -0.4349 -0.0011
  223MOL    C8927173   3.349   3.491   6.564  0.4005  0.1361  0.1904
  223MOL    H9027174   3.382   3.387   6.576 -0.8718 -0.4780 -1.4340
  223MOL    H9127175   3.362   3.506   6.457 -2.8752 -0.0935 -0.2959
  223MOL    C9227176   3.456   3.578   6.632 -0.4525  0.1969 -0.0578
  223MOL   Cl9327177   3.468   3.546   6.809 -0.0736  0.0018  0.2564
  223MOL   Cl9427178   3.418   3.753   6.609 -0.2399  0.3034  0.2644
  223MOL    C9527179   3.591   3.540   6.559  0.0110 -0.3079 -0.5176
  223MOL    H9627180   3.606   3.433   6.575 -0.3440  0.0759  2.7710
  223MOL    H9727181   3.585   3.553   6.451  0.3036 -0.3224 -0.5377
  223MOL    C9827182   3.735   3.601   6.596 -0.1480 -0.6721 -0.0096
  223MOL   Cl9927183   3.774   3.592   6.766 -0.2758  0.0457 -0.2893
  223MOL  Cl10027184   3.740   3.775   6.552  0.0788 -0.3547 -0.0846
  223MOL   C10127185   3.856   3.541   6.522  0.6268 -0.8812 -0.1434
  223MOL   H10227186   3.861   3.575   6.418 -0.6727  0.2375  0.1428
  223MOL   H10327187   3.945   3.584   6.567 -0.7367  0.8486  0.9441
  223MOL   C10427188   3.877   3.384   6.523  0.2198  0.2678 -0.6651
  223MOL  Cl10527189   4.041   3.363   6.443 -0.2253 -0.1387 -0.4134
  223MOL  Cl10627190   3.754   3.309   6.424  0.4096  0.2258 -0.1621
  223MOL   C10727191   3.883   3.318   6.668  0.3004  0.2590 -0.6762
  223MOL   H10827192   3.975   3.349   6.718 -0.2226  1.7366 -0.6265
  223MOL   H10927193   3.794   3.349   6.722 -0.5721 -2.7862 -0.2329
  223MOL   C11027194   3.880   3.161   6.699  0.0545 -0.5396  0.7060
  223MOL  Cl11127195   4.005   3.089   6.607 -0.1021  0.0799 -0.6157
  223MOL  Cl11227196   3.723   3.092   6.640  0.0654  0.0269 -0.1314
  223MOL   C11327197   3.923   3.117   6.842  0.4549 -0.5094  0.5713
  223MOL   H11427198   3.935   3.009   6.840  2.1767 -0.3110 -0.9235
  223MOL   H11527199   4.017   3.169   6.863  0.2619 -0.7938  2.2161
  223MOL   C11627200   3.841   3.154   6.970 -0.3230  0.4385  0.0685
  223MOL  Cl11727201   3.667   3.118   6.953  0.1366  0.4922  0.2362
  223MOL  Cl11827202   3.868   3.333   7.001 -0.1813 -0.1794 -0.2652
  223MOL   C11927203   3.899   3.078   7.090  0.2499  0.0264 -0.8715
  223MOL   H12027204   3.859   3.107   7.187  0.2489  0.0941 -0.8923
  223MOL   H12127205   3.887   2.972   7.067  1.5843 -0.2313 -0.4252
  223MOL   H12227206   4.008   3.075   7.101  0.2077 -0.4204 -0.5560
  224MOL     C127207   0.636   5.876   2.430 -0.4306 -0.0586 -0.2892
  224MOL    Cl227208   0.751   5.853   2.560  0.0154 -0.6384 -0.0473
  224MOL    Cl327209   0.630   5.725   2.332  0.3919 -0.0514  0.0086
  224MOL     C427210   0.501   5.918   2.495 -0.2164  0.2721 -0.0354
  224MOL     H527211   0.480   5.832   2.558 -0.2643 -0.2713 -0.7952
  224MOL     H627212   0.522   6.013   2.545  0.3146  0.7274 -1.0981
  224MOL     H727213   0.680   5.954   2.368  0.0841 -0.5339 -0.5299
  224MOL     C827214   0.379   5.949   2.402 -1.1486  0.5308  0.1011
  224MOL    Cl927215   0.331   5.790   2.338  0.5450  0.5320  0.0717
  224MOL   Cl1027216   0.441   6.048   2.269  0.0376 -0.1054 -0.0450
  224MOL    C1127217   0.260   6.030   2.461  0.5065  0.0854 -0.0867
  224MOL    H1227218   0.309   6.125   2.483  1.4004 -0.2726 -0.5348
  224MOL    H1327219   0.187   6.050   2.382  0.9615  2.8896  0.1332
  224MOL    C1427220   0.181   5.991   2.587  0.0360 -1.0849  0.0343
  224MOL   Cl1527221   0.079   6.132   2.633 -0.2998  0.0367 -0.1481
  224MOL   Cl1627222   0.297   5.982   2.732 -0.2225 -0.1783  0.1391
  224MOL    C1727223   0.103   5.853   2.575  0.6951  0.0467  0.2862
  224MOL    H1827224   0.067   5.852   2.472 -0.1870 -0.9675  0.6036
  224MOL    H1927225   0.169   5.766   2.573 -0.0062 -0.4920  0.6921
  224MOL    C2027226   9.159   5.823   2.658  0.0667  0.1977  0.7941
  224MOL   Cl2127227   9.130   5.650   2.639 -0.0868  0.4634 -0.5676
  224MOL   Cl2227228   9.025   5.906   2.588  0.1744 -0.2482 -0.0052
  224MOL    C2327229   9.174   5.861   2.810  0.5642  0.2540 -0.1378
  224MOL    H2427230   0.059   5.784   2.851  0.9615  0.7230  0.1080
  224MOL    H2527231   0.053   5.948   2.838  1.9745 -0.4755 -0.8092
  224MOL    C2627232   9.044   5.881   2.898 -0.9249  0.6066  1.0846
  224MOL   Cl2727233   8.936   5.743   2.879  0.1219  0.3221 -0.3342
  224MOL   Cl2827234   8.944   6.027   2.854 -0.0446 -0.2573  0.1812
  224MOL    C2927235   9.072   5.894   3.052  0.3982 -0.3234  0.0336
  224MOL    H3027236   9.122   5.991   3.063 -0.6344  0.0442  1.6183
  224MOL    H3127237   8.982   5.914   3.110  0.1312 -0.5495 -0.3005
  224MOL    C3227238   9.169   5.795   3.132 -0.3545  0.7196 -0.3448
  224MOL   Cl3327239   0.155   5.823   3.082 -0.1724  0.4814  0.0579
  224MOL   Cl3427240   9.138   5.622   3.102  0.2441 -0.0774  0.0326
  224MOL    C3527241   9.140   5.822   3.279  0.0003  0.3279 -0.0787
  224MOL    H3627242   9.125   5.929   3.294 -2.1316  0.0012  0.3723
  224MOL    H3727243   9.039   5.781   3.290 -0.5401  1.4697 -0.7157
  224MOL    C3827244   0.047   5.780   3.404 -0.3107  0.9539  0.2499
  224MOL   Cl3927245   9.123   5.818   3.550  0.0865  0.3097  0.3201
  224MOL   Cl4027246   0.191   5.881   3.410  0.0805  0.0186  0.2941
  224MOL    C4127247   0.079   5.628   3.390 -0.3229  0.6289 -0.0326
  224MOL    H4227248   9.162   5.580   3.401 -0.2080 -0.0374 -1.7859
  224MOL    H4327249   0.130   5.601   3.298  0.2196  1.1216  0.1183
  224MOL    C4427250   0.181   5.572   3.492  1.1388 -0.3885 -0.5858
  224MOL   Cl4527251   0.158   5.646   3.657 -0.3815 -0.2627  0.4329
  224MOL   Cl4627252   0.346   5.614   3.440 -0.2436  0.0085 -0.3867
  224MOL    C4727253   0.153   5.424   3.509  0.2557 -0.4862  0.6083
  224MOL    H4827254   0.222   5.392   3.587  0.5560 -1.6083 -0.1040
  224MOL    H4927255   0.055   5.415   3.554  0.5609 -1.3790  1.1191
  224MOL    C5027256   0.166   5.311   3.401  0.3038  0.1367 -0.0217
  224MOL   Cl5127257   0.028   5.335   3.296 -0.1434  0.1874  0.4255
  224MOL   Cl5227258   0.130   5.160   3.481  0.0640 -0.0255  0.0748
  224MOL    C5327259   0.304   5.306   3.328 -0.1167  0.4320  0.5221
  224MOL    H5427260   0.344   5.406   3.308 -0.0771 -0.0894 -2.1349
  224MOL    H5527261   0.373   5.266   3.402  0.1391  0.6211  0.3854
  224MOL    C5627262   0.337   5.222   3.199  0.0626 -0.1548  0.3437
  224MOL   Cl5727263   0.238   5.294   3.063 -0.0362  0.0227 -0.6211
  224MOL   Cl5827264   0.307   5.049   3.234 -0.0345  0.6305  0.0129
  224MOL    C5927265   0.494   5.230   3.168 -0.4509  0.2184  0.7513
  224MOL    H6027266   0.522   5.335   3.166  0.4010 -0.0132 -2.5117
  224MOL    H6127267   0.541   5.199   3.261 -0.4294  1.5261  1.1748
  224MOL    C6227268   0.571   5.172   3.040 -1.5172  0.5936  0.4657
  224MOL   Cl6327269   0.745   5.209   3.074  0.1141  0.1582  0.0721
  224MOL   Cl6427270   0.527   5.281   2.900  0.0627 -0.2994  0.1818
  224MOL    C6527271   0.545   5.016   3.009  0.2944 -0.0910 -0.0027
  224MOL    H6627272   0.532   4.959   3.101  0.2605  0.3002  0.2374
  224MOL    H6727273   0.444   5.028   2.970  0.4771  3.4190  0.4887
  224MOL    C6827274   0.625   4.931   2.910 -0.2757  1.3667  0.9732
  224MOL   Cl6927275   0.613   5.005   2.742 -0.5219  0.3031 -0.0693
  224MOL   Cl7027276   0.531   4.777   2.917 -0.2742 -0.0104  0.6219
  224MOL    C7127277   0.775   4.917   2.936 -0.2820 -0.2100  0.4483
  224MOL    H7227278   0.828   5.012   2.923  0.3422 -0.1874  2.8730
  224MOL    H7327279   0.788   4.899   3.043  0.3212 -2.0697  0.0772
  224MOL    C7427280   0.857   4.807   2.874 -0.0113  0.2711 -0.3089
  224MOL   Cl7527281   0.838   4.673   2.985 -0.1465  0.5954  0.2264
  224MOL   Cl7627282   1.028   4.865   2.884  0.3555 -0.2611 -0.3553
  224MOL    C7727283   0.828   4.777   2.727  0.2095 -0.0425  0.0952
  224MOL    H7827284   0.728   4.734   2.724  0.2239 -0.1878  1.6492
  224MOL    H7927285   0.826   4.873   2.675  1.1216  0.0717  0.2550
  224MOL    C8027286   0.914   4.693   2.632  0.0539 -0.6785 -0.0221
  224MOL   Cl8127287   0.959   4.545   2.719 -0.0077 -0.0088 -0.1720
  224MOL   Cl8227288   1.058   4.782   2.579 -0.3053 -0.0632  0.0114
  224MOL    C8327289   0.850   4.643   2.493  0.2964  0.2784  0.7013
  224MOL    H8427290   0.927   4.592   2.436 -0.1211  0.1994  0.2122
  224MOL    H8527291   0.782   4.565   2.527  0.9892 -1.6689 -2.2461
  224MOL    C8627292   0.754   4.731   2.413 -0.2171 -0.2237  0.4085
  224MOL   Cl8727293   0.603   4.770   2.501 -0.2554 -0.0191  0.5131
  224MOL   Cl8827294   0.709   4.624   2.274  0.2627  0.4207  0.5892
  224MOL    C8927295   0.817   4.846   2.353  0.1021 -0.9313  0.2189
  224MOL    H9027296   0.887   4.891   2.424 -1.6513  0.4123  1.1397
  224MOL    H9127297   0.886   4.801   2.281  0.3124 -1.4161  0.7228
  224MOL    C9227298   0.739   4.958   2.269 -0.0830 -0.0909  0.0034
  224MOL   Cl9327299   0.713   5.086   2.381  0.2910  0.2461 -0.3863
  224MOL   Cl9427300   0.572   4.909   2.212  0.0396  0.0140 -0.3628
  224MOL    C9527301   0.816   5.009   2.139  0.0040 -0.1329  0.1868
  224MOL    H9627302   0.771   4.947   2.061  0.6444 -0.3102 -0.0446
  224MOL    H9727303   0.782   5.112   2.129  0.2641  0.0841  1.4564
  224MOL    C9827304   0.967   5.001   2.118 -0.5310  0.5029 -0.0548
  224MOL   Cl9927305   1.006   4.833   2.077 -0.1754 -0.5988  0.0358
  224MOL  Cl10027306   1.048   5.046   2.275 -0.1759 -0.1259 -0.3444
  224MOL   C10127307   1.032   5.098   2.008 -0.1796 -0.1918 -0.7203
  224MOL   H10227308   1.011   5.196   2.049 -2.2988 -0.1339 -1.8722
  224MOL   H10327309   1.137   5.069   1.998 -0.0719  0.4312 -1.4623
  224MOL   C10427310   0.980   5.105   1.862  0.1995  0.6638 -0.0343
  224MOL  Cl10527311   0.808   5.151   1.849 -0.4628  0.1755 -0.0825
  224MOL  Cl10627312   0.990   4.947   1.794 -0.3345 -0.2646  0.0913
  224MOL   C10727313   1.055   5.210   1.772 -0.2984 -0.0711 -0.4296
  224MOL   H10827314   1.028   5.181   1.670 -1.2911 -1.1046  0.1004
  224MOL   H10927315   1.007   5.307   1.785  2.5469  1.5993 -2.1791
  224MOL   C11027316   1.212   5.218   1.766 -0.2210 -1.4573 -0.5087
  224MOL  Cl11127317   1.289   5.060   1.752  0.1421  0.0677  0.1482
  224MOL  Cl11227318   1.257   5.284   1.924 -0.1503  0.1122 -0.1507
  224MOL   C11327319   1.281   5.293   1.642  0.1177 -0.5933  0.2403
  224MOL   H11427320   1.387   5.267   1.647 -0.0980 -1.5556  0.0276
  224MOL   H11527321   1.240   5.238   1.557  0.8363 -0.5344 -0.1527
  224MOL   C11627322   1.264   5.446   1.622 -0.2112 -0.3019  0.5166
  224MOL  Cl11727323   1.350   5.533   1.753 -0.2722  0.2825  0.1075
  224MOL  Cl11827324   1.093   5.502   1.623 -0.0289 -0.2398  0.1598
  224MOL   C11927325   1.320   5.496   1.489  0.6822  0.1011  0.0396
  224MOL   H12027326   1.278   5.436   1.407 -1.1070 -0.0431  1.0272
  224MOL   H12127327   1.312   5.604   1.474  1.1949  0.0820 -0.4112
  224MOL   H12227328   1.428   5.484   1.482  0.9878  2.9915 -0.8970
  225MOL     C127329   1.825   6.443   7.662  0.6993  0.7118  0.4822
  225MOL    Cl227330   1.789   6.306   7.552  0.2810 -0.1115 -0.3435
  225MOL    Cl327331   1.844   6.384   7.827  0.0055  0.0582 -0.2371
  225MOL     C427332   1.950   6.518   7.611  0.7420 -0.5784 -0.0708
  225MOL     H527333   2.038   6.475   7.657  2.0321  0.7324 -1.2678
  225MOL     H627334   1.970   6.503   7.505  1.0704 -0.5997 -0.0054
  225MOL     H727335   1.742   6.513   7.662 -0.4571 -0.6029 -0.8019
  225MOL     C827336   1.935   6.670   7.629  0.1864  0.3703 -0.0024
  225MOL    Cl927337   2.086   6.735   7.572 -0.0947 -0.0067  0.4982
  225MOL   Cl1027338   1.933   6.700   7.807  0.7344 -0.1289 -0.1153
  225MOL    C1127339   1.824   6.753   7.556  0.2890  0.4865  0.8244
  225MOL    H1227340   1.732   6.746   7.614  0.0221  0.9423  0.4510
  225MOL    H1327341   1.854   6.858   7.559 -0.8275  0.8636 -0.7086
  225MOL    C1427342   1.796   6.720   7.405 -0.4351  0.2560 -0.0792
  225MOL   Cl1527343   1.701   6.571   7.391 -0.0177  0.2473 -0.3207
  225MOL   Cl1627344   1.931   6.703   7.301 -0.4556 -0.2274  0.4617
  225MOL    C1727345   1.709   6.838   7.347 -0.3652 -0.1899  0.2512
  225MOL    H1827346   1.611   6.836   7.394 -0.6744  0.7975 -0.3328
  225MOL    H1927347   1.756   6.932   7.376  2.0484 -0.8747 -1.2194
  225MOL    C2027348   1.668   6.854   7.192 -0.1813 -0.4010 -0.2141
  225MOL   Cl2127349   1.805   6.919   7.101  0.4989 -0.2745  0.5011
  225MOL   Cl2227350   1.544   6.984   7.191  0.4969 -0.0071 -0.1243
  225MOL    C2327351   1.614   6.726   7.128  0.1646  0.1555  0.3364
  225MOL    H2427352   1.692   6.651   7.121  0.2622  0.1572  1.3876
  225MOL    H2527353   1.548   6.679   7.201 -0.6246  0.3525 -0.2329
  225MOL    C2627354   1.530   6.729   6.998  0.4518  0.1659  0.3226
  225MOL   Cl2727355   1.549   6.565   6.923  0.2178 -0.2511  0.3210
  225MOL   Cl2827356   1.613   6.833   6.875 -0.4560 -0.2376 -0.1556
  225MOL    C2927357   1.376   6.759   6.985 -0.1100 -0.1726  0.1221
  225MOL    H3027358   1.356   6.858   7.026 -1.3294 -0.1233 -0.5487
  225MOL    H3127359   1.356   6.768   6.878 -1.5009 -1.0669  0.2837
  225MOL    C3227360   1.261   6.674   7.048  0.1776 -0.4514  0.5691
  225MOL   Cl3327361   1.114   6.773   7.027  0.3484  0.2042  0.3471
  225MOL   Cl3427362   1.294   6.668   7.225  0.0701  0.2038  0.1852
  225MOL    C3527363   1.246   6.531   6.981 -0.0693  0.4025 -0.4433
  225MOL    H3627364   1.273   6.530   6.875  0.2291 -0.3963 -0.3564
  225MOL    H3727365   1.321   6.461   7.017  0.3254  0.8953 -0.3007
  225MOL    C3827366   1.118   6.445   7.008 -0.5063  0.5602 -0.3351
  225MOL   Cl3927367   1.135   6.296   6.921  0.1102  0.1952  0.3236
  225MOL   Cl4027368   0.989   6.525   6.905  0.2293  0.1168  0.3997
  225MOL    C4127369   1.073   6.433   7.152  0.2866 -0.4491 -0.1151
  225MOL    H4227370   1.162   6.406   7.209  1.0616 -1.1048 -1.6079
  225MOL    H4327371   1.032   6.520   7.203  1.5016 -0.1643  0.3867
  225MOL    C4427372   0.967   6.321   7.199 -0.8623  0.4320 -0.7610
  225MOL   Cl4527373   0.926   6.382   7.366  0.2461  0.1097  0.3376
  225MOL   Cl4627374   1.039   6.158   7.220 -0.0828  0.4207  0.1662
  225MOL    C4727375   0.833   6.330   7.115 -0.3336  0.1734 -0.3034
  225MOL    H4827376   0.790   6.430   7.124 -0.4321  0.2140 -1.1861
  225MOL    H4927377   0.874   6.328   7.014  2.6767  2.5105  0.7923
  225MOL    C5027378   0.721   6.216   7.118 -0.0594 -0.1927  0.0743
  225MOL   Cl5127379   0.780   6.072   7.033  0.2982  0.0850 -0.0678
  225MOL   Cl5227380   0.588   6.284   7.029 -0.0367 -0.4002 -0.1633
  225MOL    C5327381   0.669   6.165   7.251  0.0910 -0.6480 -0.4775
  225MOL    H5427382   0.750   6.104   7.293  1.0717  1.6892  1.0915
  225MOL    H5527383   0.676   6.253   7.314  2.5718 -1.2915  0.2347
  225MOL    C5627384   0.529   6.102   7.278  0.3819 -0.1469  0.7523
  225MOL   Cl5727385   0.401   6.238   7.265 -0.1974 -0.1097  0.1372
  225MOL   Cl5827386   0.542   6.046   7.447  0.2112  0.0061  0.1430
  225MOL    C5927387   0.504   5.984   7.173  0.3026  0.0068  0.2904
  225MOL    H6027388   0.505   6.030   7.075  0.9847 -0.0759  0.2517
  225MOL    H6127389   0.586   5.914   7.189  0.5565  0.3937  0.7028
  225MOL    C6227390   0.376   5.897   7.173  0.6754 -0.1708 -0.5621
  225MOL   Cl6327391   0.405   5.764   7.054  0.3902  0.3675  0.1937
  225MOL   Cl6427392   0.243   5.998   7.125  0.2181  0.0984 -0.1548
  225MOL    C6527393   0.340   5.833   7.315 -0.1605 -0.3164  0.1616
  225MOL    H6627394   0.437   5.807   7.358 -0.3624 -0.8410  0.2922
  225MOL    H6727395   0.305   5.912   7.382  2.2263 -0.7742  2.0182
  225MOL    C6827396   0.253   5.709   7.335  0.4860 -0.6842 -0.2147
  225MOL   Cl6927397   0.248   5.691   7.511 -0.1703 -0.2707 -0.1135
  225MOL   Cl7027398   0.362   5.572   7.281 -0.3988 -0.1846  0.0860
  225MOL    C7127399   0.113   5.721   7.261 -0.0420 -0.0611 -0.5501
  225MOL    H7227400   0.069   5.820   7.270  0.1892 -0.0490  0.4676
  225MOL    H7327401   0.137   5.715   7.155  3.9628 -0.9738  0.3221
  225MOL    C7427402   0.007   5.615   7.300 -0.7012 -0.3578 -0.6743
  225MOL   Cl7527403   9.129   5.636   7.470 -0.0806  0.0673  0.2479
  225MOL   Cl7627404   0.077   5.454   7.294  0.1709  0.0651  0.2810
  225MOL    C7727405   9.062   5.592   7.203  0.3392 -0.3494 -0.4360
  225MOL    H7827406   9.090   5.542   7.111 -1.1244 -0.8230 -0.6243
  225MOL    H7927407   8.996   5.519   7.250 -1.8343  1.8065 -0.0305
  225MOL    C8027408   8.965   5.710   7.165  0.5650  0.0023  0.2386
  225MOL   Cl8127409   9.054   5.836   7.080 -0.2222  0.1443 -0.0022
  225MOL   Cl8227410   8.893   5.759   7.310 -0.2637  0.0164 -0.4339
  225MOL    C8327411   8.851   5.649   7.077 -0.1332  0.3342  0.2433
  225MOL    H8427412   8.877   5.553   7.033  0.0505  0.9253 -0.9712
  225MOL    H8527413   8.776   5.621   7.151 -1.4049  1.0782 -0.7423
  225MOL    C8627414   8.762   5.726   6.976 -0.0961  0.2919  0.2745
  225MOL   Cl8727415   8.870   5.776   6.844  0.1845  0.4711 -0.1213
  225MOL   Cl8827416   8.690   5.854   7.061 -0.0480 -0.1632  0.2570
  225MOL    C8927417   8.652   5.634   6.913 -0.0106  0.0396 -0.4263
  225MOL    H9027418   8.711   5.588   6.833  2.5207  2.0559  0.2389
  225MOL    H9127419   8.622   5.558   6.986  0.4496  1.5086  1.3382
  225MOL    C9227420   8.534   5.690   6.830  0.2085  0.2277 -0.2271
  225MOL   Cl9327421   8.409   5.756   6.932  0.1667 -0.2040 -0.0479
  225MOL   Cl9427422   8.451   5.550   6.756 -0.4173 -0.4688 -0.3121
  225MOL    C9527423   8.574   5.789   6.719  0.5250 -0.8308 -0.0673
  225MOL    H9627424   8.645   5.854   6.769 -2.8509  3.2800 -0.3806
  225MOL    H9727425   8.636   5.744   6.641 -2.7101 -1.0996 -2.5699
  225MOL    C9827426   8.487   5.893   6.657  1.0620 -0.0956  0.4662
  225MOL   Cl9927427   8.586   5.953   6.516 -0.0333 -0.1466 -0.2016
  225MOL  Cl10027428   8.473   6.026   6.767 -0.3815  0.1048  0.3716
  225MOL   C10127429   8.353   5.841   6.601 -0.2032  0.9043  0.9760
  225MOL   H10227430   8.381   5.747   6.554 -1.1920  1.2219 -0.2787
  225MOL   H10327431   8.288   5.802   6.680 -0.6678 -0.5412 -0.1104
  225MOL   C10427432   8.264   5.927   6.500 -0.0857 -0.1753  0.2044
  225MOL  Cl10527433   8.111   5.846   6.485  0.3659 -0.1792  0.0029
  225MOL  Cl10627434   8.330   5.938   6.341  0.3309  0.2825  0.0417
  225MOL   C10727435   8.241   6.067   6.562 -0.1268 -0.2447 -0.2627
  225MOL   H10827436   8.227   6.059   6.670 -0.5131  0.1704 -0.2774
  225MOL   H10927437   8.337   6.118   6.551  1.3270 -2.5585  1.2130
  225MOL   C11027438   8.133   6.173   6.501  0.2584  0.1686  0.2606
  225MOL  Cl11127439   7.976   6.130   6.571  0.1627  0.2487  0.1843
  225MOL  Cl11227440   8.118   6.178   6.317  0.1222  0.1884 -0.1792
  225MOL   C11327441   8.161   6.319   6.543  0.0711  0.4842 -0.1946
  225MOL   H11427442   8.236   6.360   6.474 -1.4120  2.3243 -0.7786
  225MOL   H11527443   8.072   6.377   6.517  0.5857  1.2596 -0.2498
  225MOL   C11627444   8.192   6.364   6.685  0.0420 -0.2028 -0.0061
  225MOL  Cl11727445   8.177   6.540   6.677  0.2417 -0.0872 -0.5061
  225MOL  Cl11827446   8.360   6.336   6.729  0.6519 -0.1634  0.3271
  225MOL   C11927447   8.107   6.305   6.803  0.0662  0.1805  1.1473
  225MOL   H12027448   7.999   6.304   6.783  0.3914  0.4395 -0.7155
  225MOL   H12127449   8.134   6.200   6.814  2.4154  0.2661 -2.7626
  225MOL   H12227450   8.126   6.355   6.897 -2.3022  0.5908  1.4459
  226MOL     C127451   1.395   5.204   4.278 -0.8071  0.1484  0.6529
  226MOL    Cl227452   1.398   5.379   4.328  0.2447 -0.4773 -0.1108
  226MOL    Cl327453   1.239   5.132   4.317 -0.6255 -0.0302 -0.5781
  226MOL     C427454   1.419   5.170   4.131 -0.4010  0.8504  1.0442
  226MOL     H527455   1.376   5.071   4.114 -1.8026  1.6795 -0.4209
  226MOL     H627456   1.351   5.232   4.072  3.1002  1.5613 -2.3994
  226MOL     H727457   1.485   5.160   4.323  0.1611 -1.0361 -2.2856
  226MOL     C827458   1.559   5.171   4.069 -0.2788 -0.0148  0.4712
  226MOL    Cl927459   1.640   5.036   4.146 -0.0248 -0.4136 -0.1078
  226MOL   Cl1027460   1.636   5.331   4.106  0.2610  0.0365  0.2186
  226MOL    C1127461   1.550   5.146   3.918  0.0850  0.6774  0.6571
  226MOL    H1227462   1.550   5.039   3.895  0.1842  0.8128  0.0246
  226MOL    H1327463   1.456   5.187   3.880  1.4775 -0.1005 -3.9629
  226MOL    C1427464   1.656   5.202   3.814  0.1814  0.3359 -0.1111
  226MOL   Cl1527465   1.608   5.380   3.786 -0.1906 -0.5899 -0.0928
  226MOL   Cl1627466   1.645   5.106   3.656 -0.2247  0.0128 -0.1033
  226MOL    C1727467   1.802   5.179   3.862  0.2401  0.4727  0.0642
  226MOL    H1827468   1.819   5.206   3.966 -0.1369  0.2076  0.1952
  226MOL    H1927469   1.825   5.073   3.849 -0.3080  0.4675 -0.9123
  226MOL    C2027470   1.918   5.261   3.798  0.3152 -0.1878 -0.1000
  226MOL   Cl2127471   2.062   5.176   3.856 -0.3417 -0.0700  0.2987
  226MOL   Cl2227472   1.930   5.430   3.864  0.1362  0.2265  0.4562
  226MOL    C2327473   1.919   5.271   3.645  0.1470  0.6348 -0.1537
  226MOL    H2427474   1.942   5.175   3.598  3.9899  1.5425 -0.2205
  226MOL    H2527475   1.818   5.293   3.608 -0.2528  1.6552  1.5256
  226MOL    C2627476   2.007   5.370   3.565 -0.1526  0.9494 -1.3529
  226MOL   Cl2727477   2.165   5.387   3.650  0.2131 -0.1710 -0.1330
  226MOL   Cl2827478   1.932   5.533   3.550 -0.1769 -0.1675 -0.2795
  226MOL    C2927479   2.028   5.318   3.418  0.4034  0.2221 -0.7218
  226MOL    H3027480   2.099   5.387   3.371 -0.1890  2.1004  1.0545
  226MOL    H3127481   2.085   5.225   3.413  0.4730  0.2588 -0.6135
  226MOL    C3227482   1.909   5.284   3.324  0.4303  0.6894 -0.2240
  226MOL   Cl3327483   1.841   5.133   3.374 -0.0413  0.1557 -0.0953
  226MOL   Cl3427484   1.990   5.249   3.167  0.0545 -0.3373 -0.0002
  226MOL    C3527485   1.799   5.391   3.298  0.4081  0.0732 -0.3107
  226MOL    H3627486   1.750   5.393   3.395  0.9691 -1.3573  0.0134
  226MOL    H3727487   1.844   5.490   3.283  0.4062  0.0028 -0.7830
  226MOL    C3827488   1.676   5.373   3.203 -0.1625 -0.4694  0.0172
  226MOL   Cl3927489   1.581   5.524   3.217 -0.3082  0.0995  0.6480
  226MOL   Cl4027490   1.571   5.247   3.278  0.0330 -0.1856  0.3138
  226MOL    C4127491   1.697   5.339   3.052 -0.2763  0.4626 -0.7515
  226MOL    H4227492   1.761   5.251   3.046  2.1469  1.9320  1.7702
  226MOL    H4327493   1.600   5.325   3.005  0.0482  0.4901 -1.4439
  226MOL    C4427494   1.770   5.449   2.960  0.2634  0.5801  0.0031
  226MOL   Cl4527495   1.913   5.507   3.036  0.1308  0.1497  0.1629
  226MOL   Cl4627496   1.659   5.590   2.929  0.2479 -0.2963 -0.2259
  226MOL    C4727497   1.817   5.392   2.823  0.0018 -0.3873 -0.1786
  226MOL    H4827498   1.848   5.485   2.776  1.1756 -1.0485 -0.7316
  226MOL    H4927499   1.912   5.343   2.844  0.0888 -0.8827 -1.6619
  226MOL    C5027500   1.733   5.299   2.734  0.9364 -0.9093  0.4375
  226MOL   Cl5127501   1.566   5.358   2.723 -0.1884 -0.0639  0.1904
  226MOL   Cl5227502   1.719   5.133   2.800  0.0852  0.1995 -0.1093
  226MOL    C5327503   1.788   5.301   2.586 -0.4976 -0.1912  0.2261
  226MOL    H5427504   1.714   5.250   2.524 -0.7874  1.0229 -0.4466
  226MOL    H5527505   1.768   5.399   2.542 -1.4872 -0.3399  0.3244
  226MOL    C5627506   1.936   5.259   2.563  0.3999 -0.2888 -0.0640
  226MOL   Cl5727507   2.043   5.394   2.606  0.0855  0.0621  0.2251
  226MOL   Cl5827508   1.951   5.241   2.387 -0.6613 -0.0971  0.3899
  226MOL    C5927509   2.004   5.137   2.623 -0.0172  0.0258 -0.6158
  226MOL    H6027510   2.111   5.157   2.629 -0.1283  0.9953 -1.6437
  226MOL    H6127511   1.976   5.147   2.728 -0.9282  2.7248 -1.0587
  226MOL    C6227512   1.984   4.988   2.573 -0.9157  0.0970 -0.4551
  226MOL   Cl6327513   2.078   4.954   2.421  0.1109  0.0711 -0.0870
  226MOL   Cl6427514   1.816   4.981   2.533 -0.1167  0.1116 -0.0476
  226MOL    C6527515   2.021   4.881   2.684 -0.4035  0.0483 -0.1477
  226MOL    H6627516   1.930   4.867   2.743  0.3052 -3.1590  0.2456
  226MOL    H6727517   2.036   4.791   2.624  1.5581 -0.0057  0.4132
  226MOL    C6827518   2.149   4.909   2.765  0.2925  0.6198 -0.3989
  226MOL   Cl6927519   2.127   5.039   2.877 -0.2814 -0.0964  0.0541
  226MOL   Cl7027520   2.289   4.947   2.661  0.3391  0.3099 -0.0814
  226MOL    C7127521   2.211   4.789   2.842 -0.1394  0.4637 -0.1213
  226MOL    H7227522   2.254   4.719   2.771  1.9768  0.1146  1.4558
  226MOL    H7327523   2.303   4.812   2.897  0.4869 -0.6099 -0.6975
  226MOL    C7427524   2.120   4.697   2.927  0.1566  0.2055  0.5105
  226MOL   Cl7527525   2.237   4.602   3.025  0.4244  0.0409  0.1564
  226MOL   Cl7627526   2.026   4.578   2.831 -0.1052  0.3517  0.0600
  226MOL    C7727527   2.028   4.777   3.025 -0.1809 -0.4462  0.1555
  226MOL    H7827528   2.101   4.830   3.086 -1.4654  1.0913  0.3981
  226MOL    H7927529   1.976   4.848   2.961  3.9723  0.9862 -1.7783
  226MOL    C8027530   1.932   4.708   3.124  0.1121  0.2342 -0.0973
  226MOL   Cl8127531   1.857   4.831   3.235  0.0509  0.2564 -0.1998
  226MOL   Cl8227532   2.017   4.594   3.233  0.0366 -0.5115 -0.4326
  226MOL    C8327533   1.818   4.618   3.067  0.4578 -0.9206  0.4917
  226MOL    H8427534   1.863   4.535   3.013  2.5240  0.7291 -0.3771
  226MOL    H8527535   1.769   4.566   3.150 -0.3003 -1.1894 -0.1187
  226MOL    C8627536   1.692   4.662   2.988  0.1854  0.2741 -0.9548
  226MOL   Cl8727537   1.645   4.516   2.895 -0.0335  0.0148 -0.0443
  226MOL   Cl8827538   1.726   4.787   2.871 -0.4300 -0.4456 -0.0437
  226MOL    C8927539   1.570   4.692   3.076 -0.3017 -0.1336 -0.1835
  226MOL    H9027540   1.530   4.600   3.120 -0.5764 -0.0191 -0.1921
  226MOL    H9127541   1.598   4.757   3.159  0.4943  0.6141 -1.0423
  226MOL    C9227542   1.438   4.768   3.025  0.0342  0.0528 -1.4237
  226MOL   Cl9327543   1.376   4.690   2.878 -0.5040  0.5624 -0.0633
  226MOL   Cl9427544   1.457   4.944   2.991  0.2501 -0.1313  0.0170
  226MOL    C9527545   1.325   4.768   3.133 -0.4770  0.1201  0.4641
  226MOL    H9627546   1.331   4.849   3.206  0.7023  0.0360  0.4702
  226MOL    H9727547   1.246   4.803   3.066  1.5874 -1.0167 -2.6500
  226MOL    C9827548   1.270   4.635   3.201  0.9250  0.2522  0.6853
  226MOL   Cl9927549   1.104   4.680   3.243 -0.1255  0.4010  0.2155
  226MOL  Cl10027550   1.371   4.624   3.349 -0.1943  0.2894 -0.4827
  226MOL   C10127551   1.268   4.505   3.107  0.6353  0.1490  0.0451
  226MOL   H10227552   1.183   4.502   3.038  0.4618 -1.4027  0.3194
  226MOL   H10327553   1.356   4.498   3.044  2.4985 -0.9842  2.7063
  226MOL   C10427554   1.268   4.368   3.180 -0.4004  0.1617 -0.3853
  226MOL  Cl10527555   1.181   4.378   3.333  0.1461  0.1153  0.1032
  226MOL  Cl10627556   1.437   4.315   3.223  0.2139  0.4465  0.6211
  226MOL   C10727557   1.199   4.258   3.094  0.8746 -0.2264  0.0822
  226MOL   H10827558   1.097   4.294   3.083  0.6510 -0.8491  0.0551
  226MOL   H10927559   1.231   4.268   2.990  0.1444 -0.8465 -0.2071
  226MOL   C11027560   1.199   4.108   3.120  0.9324 -0.2120 -0.5349
  226MOL  Cl11127561   1.347   4.048   3.042 -0.1076 -0.3811 -0.3806
  226MOL  Cl11227562   1.065   4.050   3.012 -0.1427  0.3473 -0.0404
  226MOL   C11327563   1.176   4.067   3.268 -0.3781  0.2515 -0.8544
  226MOL   H11427564   1.243   4.125   3.331 -0.2813  0.3057 -1.0081
  226MOL   H11527565   1.071   4.093   3.285 -0.9365 -3.2923  1.9944
  226MOL   C11627566   1.200   3.913   3.310  0.4739  0.0714 -0.3703
  226MOL  Cl11727567   1.118   3.877   3.467 -0.2164 -0.2297 -0.5067
  226MOL  Cl11827568   1.371   3.893   3.329 -0.1799  0.2245  0.1736
  226MOL   C11927569   1.143   3.808   3.214  0.9985  0.0473  0.4585
  226MOL   H12027570   1.204   3.821   3.124  0.0849  0.6407 -0.0796
  226MOL   H12127571   1.152   3.709   3.259 -0.1196  0.0761  0.7780
  226MOL   H12227572   1.037   3.826   3.193  1.0783 -0.6728 -0.6527
  227MOL     C127573   5.419   5.597   2.387 -1.0170 -0.1656  0.8748
  227MOL    Cl227574   5.510   5.552   2.539  0.1174 -0.0602  0.2899
  227MOL    Cl327575   5.478   5.498   2.252 -0.1230  0.1225 -0.3340
  227MOL     C427576   5.272   5.562   2.411 -0.3573  0.5090  0.1302
  227MOL     H527577   5.266   5.454   2.421 -0.6955  0.6406  1.4524
  227MOL     H627578   5.249   5.617   2.502  0.5850  2.4666 -0.7734
  227MOL     H727579   5.427   5.704   2.368 -1.2170  0.1517  2.5442
  227MOL     C827580   5.168   5.612   2.307 -0.2292  0.0813  0.0812
  227MOL    Cl927581   5.165   5.797   2.308  0.3555  0.1457  0.1081
  227MOL   Cl1027582   5.012   5.541   2.354  0.0514 -0.2658 -0.3243
  227MOL    C1127583   5.196   5.562   2.164  0.0093  0.1232 -0.7073
  227MOL    H1227584   5.281   5.614   2.120 -0.1493 -1.1292 -2.5206
  227MOL    H1327585   5.226   5.458   2.156  0.0536  0.0504  0.3081
  227MOL    C1427586   5.091   5.573   2.050 -0.4982 -0.4277 -0.5293
  227MOL   Cl1527587   4.990   5.719   2.063 -0.2020 -0.5081  0.2634
  227MOL   Cl1627588   4.978   5.429   2.055 -0.0732  0.0074  0.1398
  227MOL    C1727589   5.165   5.589   1.908 -0.4512 -0.2817  0.2175
  227MOL    H1827590   5.079   5.602   1.842  0.2944  1.3801 -0.4689
  227MOL    H1927591   5.211   5.688   1.907  3.5552 -2.0167 -2.1287
  227MOL    C2027592   5.262   5.480   1.842  1.0645  0.2485 -0.4210
  227MOL   Cl2127593   5.431   5.520   1.900 -0.3317 -0.0427  0.2483
  227MOL   Cl2227594   5.265   5.528   1.669 -0.1084 -0.5160  0.0423
  227MOL    C2327595   5.228   5.325   1.859  0.5559 -0.1420  0.0737
  227MOL    H2427596   5.224   5.318   1.968  0.6511 -1.0014  0.0283
  227MOL    H2527597   5.128   5.307   1.819  0.3121  0.9698  0.1741
  227MOL    C2627598   5.324   5.208   1.808  0.3880  1.0731 -0.5881
  227MOL   Cl2727599   5.232   5.054   1.825  0.4295 -0.1240 -0.0656
  227MOL   Cl2827600   5.450   5.177   1.938 -0.2700 -0.4561 -0.0614
  227MOL    C2927601   5.393   5.222   1.671 -0.0787 -0.2843  1.0504
  227MOL    H3027602   5.304   5.214   1.609  1.2450 -1.5801 -0.7331
  227MOL    H3127603   5.449   5.314   1.660 -3.1843  1.3333 -2.3163
  227MOL    C3227604   5.503   5.124   1.619  0.4492 -0.3973 -1.0261
  227MOL   Cl3327605   5.655   5.153   1.712 -0.3156 -0.2560 -0.1313
  227MOL   Cl3427606   5.543   5.158   1.452  0.0144 -0.1503 -0.1832
  227MOL    C3527607   5.447   4.973   1.637  0.1542  0.2719 -0.2482
  227MOL    H3627608   5.446   4.949   1.743 -2.6680 -2.5306 -0.8363
  227MOL    H3727609   5.340   4.972   1.613 -0.3194 -0.0631  1.7525
  227MOL    C3827610   5.506   4.853   1.562 -0.2477  0.0834  0.1056
  227MOL   Cl3927611   5.456   4.707   1.648 -0.7312  0.2513 -0.1238
  227MOL   Cl4027612   5.682   4.865   1.586  0.0091 -0.0827  0.0163
  227MOL    C4127613   5.455   4.841   1.412 -0.3770  0.0678 -0.0190
  227MOL    H4227614   5.366   4.781   1.427 -0.5596  0.7416  1.7429
  227MOL    H4327615   5.420   4.939   1.380 -1.5455 -0.6806 -1.0510
  227MOL    C4427616   5.543   4.764   1.311 -0.0858  0.4503  0.1956
  227MOL   Cl4527617   5.637   4.626   1.374 -0.1620  0.1461  0.5021
  227MOL   Cl4627618   5.662   4.887   1.258 -0.3676  0.0009  0.2641
  227MOL    C4727619   5.470   4.717   1.185  1.0094 -0.1298 -0.2358
  227MOL    H4827620   5.464   4.796   1.110 -0.1271 -0.5352 -0.5831
  227MOL    H4927621   5.547   4.655   1.137 -0.0484 -1.1159 -0.6848
  227MOL    C5027622   5.331   4.646   1.188 -0.7635 -0.1395 -0.0341
  227MOL   Cl5127623   5.191   4.749   1.237  0.2556  0.0334  0.2422
  227MOL   Cl5227624   5.344   4.524   1.319 -0.0966  0.1985  0.0832
  227MOL    C5327625   5.284   4.581   1.056  0.5879  0.2977 -0.1670
  227MOL    H5427626   5.176   4.579   1.069  0.5898 -2.2566 -0.2564
  227MOL    H5527627   5.311   4.654   0.979  2.1911  1.9739  1.9025
  227MOL    C5627628   5.324   4.430   1.020  0.0829 -0.0840 -0.4605
  227MOL   Cl5727629   5.494   4.400   1.065 -0.3292 -0.3783 -0.2057
  227MOL   Cl5827630   5.313   4.415   0.840  0.4121 -0.4269 -0.1518
  227MOL    C5927631   5.237   4.312   1.079 -0.6337  0.0349  0.4243
  227MOL    H6027632   5.251   4.228   1.010 -0.2488  0.8221 -0.4607
  227MOL    H6127633   5.297   4.280   1.165  1.4895  1.4178 -0.4993
  227MOL    C6227634   5.082   4.322   1.113  0.7760 -0.0945 -0.6830
  227MOL   Cl6327635   5.000   4.387   0.966  0.3164 -0.4221 -0.7324
  227MOL   Cl6427636   5.050   4.437   1.251 -0.2999 -0.1182  0.4551
  227MOL    C6527637   5.023   4.180   1.149 -0.4220  1.2053 -0.0985
  227MOL    H6627638   5.070   4.109   1.081 -2.2231 -0.9569  0.8625
  227MOL    H6727639   5.074   4.154   1.242 -0.9806 -0.4105 -0.2298
  227MOL    C6827640   4.873   4.147   1.153  0.1345  0.1599  0.2258
  227MOL   Cl6927641   4.858   3.996   1.245  0.2758  0.4301  0.1981
  227MOL   Cl7027642   4.825   4.098   0.986  0.1413 -0.1397  0.0548
  227MOL    C7127643   4.781   4.259   1.213  0.4667 -1.0302  0.6008
  227MOL    H7227644   4.828   4.317   1.293  0.3309  1.2371 -0.9134
  227MOL    H7327645   4.778   4.330   1.130  2.6691 -0.2570  1.1525
  227MOL    C7427646   4.632   4.238   1.259 -0.0398 -0.0865  0.1471
  227MOL   Cl7527647   4.554   4.390   1.295  0.4500  0.3154  0.1219
  227MOL   Cl7627648   4.650   4.160   1.417 -0.1677 -0.2394 -0.0726
  227MOL    C7727649   4.536   4.137   1.186  0.1153  0.3493  0.1377
  227MOL    H7827650   4.606   4.062   1.146  0.3369 -0.6397  2.2913
  227MOL    H7927651   4.475   4.079   1.255  0.8104 -0.8245 -0.2031
  227MOL    C8027652   4.457   4.181   1.062  0.1347 -0.2618 -0.0708
  227MOL   Cl8127653   4.567   4.271   0.953  0.1097 -0.3125 -0.2921
  227MOL   Cl8227654   4.313   4.289   1.099  0.7439  0.5071 -0.0507
  227MOL    C8327655   4.394   4.058   0.983 -0.0607 -0.4010 -0.2800
  227MOL    H8427656   4.348   4.108   0.897  1.4554 -0.5881 -1.2362
  227MOL    H8527657   4.481   4.006   0.943 -0.4453 -2.0055  0.9181
  227MOL    C8627658   4.302   3.950   1.056 -0.2343 -0.2693  0.2612
  227MOL   Cl8727659   4.164   4.026   1.136 -0.2199  0.1620  0.3709
  227MOL   Cl8827660   4.398   3.859   1.176  0.5964 -0.0290 -0.3368
  227MOL    C8927661   4.253   3.846   0.958  0.0168  0.6857  0.0792
  227MOL    H9027662   4.221   3.902   0.870 -2.9533  2.4763  2.1973
  227MOL    H9127663   4.341   3.788   0.931  0.5285  1.1915  0.6376
  227MOL    C9227664   4.132   3.751   0.991  0.1090  0.2563  1.0638
  227MOL   Cl9327665   3.982   3.837   0.952 -0.0635  0.5419 -0.0705
  227MOL   Cl9427666   4.122   3.699   1.166  0.2210  0.1425  0.3570
  227MOL    C9527667   4.131   3.628   0.888  0.1541 -0.8175 -0.0463
  227MOL    H9627668   4.033   3.583   0.903 -0.1108 -0.3940 -0.4845
  227MOL    H9727669   4.117   3.669   0.788 -1.0906 -1.0470  0.0233
  227MOL    C9827670   4.234   3.509   0.885  0.5947 -0.6709 -0.2170
  227MOL   Cl9927671   4.370   3.562   0.789 -0.1624  0.1305  0.1304
  227MOL  Cl10027672   4.158   3.361   0.804 -0.2800  0.0958 -0.3184
  227MOL   C10127673   4.293   3.479   1.037  0.7850 -0.1500  0.0598
  227MOL   H10227674   4.331   3.574   1.074 -1.2412  0.8155 -0.2608
  227MOL   H10327675   4.213   3.449   1.105  2.3106 -0.1706  1.8893
  227MOL   C10427676   4.415   3.382   1.058 -0.3777  0.0266  0.4086
  227MOL  Cl10527677   4.575   3.449   1.009 -0.4368 -0.4628  0.0194
  227MOL  Cl10627678   4.383   3.236   0.959 -0.0656  0.1720  0.5164
  227MOL   C10727679   4.423   3.323   1.205 -0.0239 -0.5831  0.3458
  227MOL   H10827680   4.326   3.278   1.223  0.0180 -0.4971  0.8045
  227MOL   H10927681   4.484   3.233   1.203  0.9897  0.0208  2.1170
  227MOL   C11027682   4.467   3.415   1.325  0.2497 -0.3764 -0.0770
  227MOL  Cl11127683   4.355   3.547   1.334 -0.4993 -0.6379  0.0715
  227MOL  Cl11227684   4.631   3.487   1.322 -0.2529  0.2223 -0.0614
  227MOL   C11327685   4.454   3.359   1.468  0.3585 -0.0052 -0.6927
  227MOL   H11427686   4.489   3.422   1.550 -1.8574  0.8665 -0.3835
  227MOL   H11527687   4.347   3.360   1.492  0.4694  0.7650 -0.1983
  227MOL   C11627688   4.507   3.214   1.488  0.1005 -0.0429 -0.0157
  227MOL  Cl11727689   4.392   3.099   1.407 -0.0893  0.4123 -0.0275
  227MOL  Cl11827690   4.501   3.177   1.665  0.1322 -0.1331  0.3680
  227MOL   C11927691   4.649   3.180   1.449  0.1463 -0.1252 -0.3366
  227MOL   H12027692   4.684   3.082   1.480  0.1778  0.1255  0.4428
  227MOL   H12127693   4.664   3.190   1.342  0.9311 -4.1449 -0.6657
  227MOL   H12227694   4.709   3.259   1.494  0.6807  1.0190 -2.9805
  228MOL     C127695   3.812   5.377   3.986 -0.7619  0.2410  0.3308
  228MOL    Cl227696   3.842   5.238   4.080  0.0054  0.0220  0.0110
  228MOL    Cl327697   3.856   5.516   4.096  0.4935  0.2962 -0.2418
  228MOL     C427698   3.888   5.382   3.850  0.0013  0.1038 -0.4480
  228MOL     H527699   3.906   5.488   3.831 -1.7874  0.3715 -0.6850
  228MOL     H627700   3.988   5.343   3.873 -0.0487  0.9111  1.2292
  228MOL     H727701   3.706   5.380   3.958 -0.1281 -1.2569 -2.4069
  228MOL     C827702   3.832   5.306   3.728 -0.7400 -0.1952 -0.5204
  228MOL    Cl927703   3.931   5.365   3.597  0.0932 -0.1456  0.3045
  228MOL   Cl1027704   3.667   5.358   3.694  0.4721 -0.1267  0.1403
  228MOL    C1127705   3.844   5.151   3.745 -0.1175 -0.4298  0.0971
  228MOL    H1227706   3.952   5.137   3.755  0.1938  0.7289 -1.4995
  228MOL    H1327707   3.788   5.124   3.835 -2.0606 -0.9165 -1.2290
  228MOL    C1427708   3.802   5.053   3.631  0.2695 -0.1757 -1.0859
  228MOL   Cl1527709   3.805   4.892   3.704 -0.4593  0.1304 -0.2965
  228MOL   Cl1627710   3.916   5.069   3.501 -0.1093 -0.4501 -0.0405
  228MOL    C1727711   3.653   5.074   3.582  0.0219  0.2808  0.4704
  228MOL    H1827712   3.585   5.102   3.662 -1.9214  1.2077 -1.4341
  228MOL    H1927713   3.662   5.166   3.525 -3.6154  0.7860  0.6095
  228MOL    C2027714   3.586   4.969   3.483  0.0564 -0.4133 -0.5144
  228MOL   Cl2127715   3.459   5.056   3.390 -0.0810 -0.6198  0.2746
  228MOL   Cl2227716   3.512   4.845   3.582 -0.2177 -0.3878  0.2070
  228MOL    C2327717   3.685   4.907   3.376 -0.1500 -0.3395 -0.1159
  228MOL    H2427718   3.737   4.985   3.321  0.3744  0.0394  0.8950
  228MOL    H2527719   3.764   4.856   3.432  0.2110  0.8422  0.4705
  228MOL    C2627720   3.640   4.807   3.261 -0.3422  0.3844 -0.2468
  228MOL   Cl2727721   3.792   4.764   3.180  0.0641  0.3503 -0.0725
  228MOL   Cl2827722   3.536   4.894   3.135 -0.0494  0.1668 -0.0445
  228MOL    C2927723   3.571   4.684   3.318  0.5039 -0.2415  0.4075
  228MOL    H3027724   3.621   4.636   3.401 -1.6666  1.3124  2.6985
  228MOL    H3127725   3.474   4.713   3.359  0.2523  0.9296 -0.9889
  228MOL    C3227726   3.564   4.546   3.240 -0.0106  0.7408 -0.2771
  228MOL   Cl3327727   3.714   4.455   3.268 -0.2777 -0.1548  0.1397
  228MOL   Cl3427728   3.555   4.560   3.059  0.2935 -0.4595 -0.0851
  228MOL    C3527729   3.449   4.461   3.297 -0.5608  0.3901 -0.2144
  228MOL    H3627730   3.485   4.360   3.275 -0.6445  0.3018  0.0515
  228MOL    H3727731   3.440   4.468   3.405 -0.6903  1.1077 -0.2720
  228MOL    C3827732   3.304   4.461   3.232  0.0998 -0.5481 -0.0616
  228MOL   Cl3927733   3.299   4.383   3.077 -0.0450 -0.1410  0.0397
  228MOL   Cl4027734   3.253   4.629   3.197 -0.1616  0.0342  0.0084
  228MOL    C4127735   3.185   4.406   3.315  0.0734  0.4448  0.3762
  228MOL    H4227736   3.161   4.464   3.403 -1.4085  2.7406 -1.4851
  228MOL    H4327737   3.097   4.399   3.251 -0.9475 -1.4543  1.9382
  228MOL    C4427738   3.201   4.270   3.395 -0.1328  0.2108  0.0172
  228MOL   Cl4527739   3.312   4.298   3.528 -0.0476 -0.0884 -0.3338
  228MOL   Cl4627740   3.267   4.141   3.296 -0.5372  0.3830  0.0367
  228MOL    C4727741   3.065   4.208   3.445  0.0799  0.1508 -0.6116
  228MOL    H4827742   3.009   4.154   3.368 -0.5695 -0.1341  0.0588
  228MOL    H4927743   3.093   4.133   3.519 -0.6174  0.7541  0.2634
  228MOL    C5027744   2.956   4.297   3.520  0.0850  0.6501 -0.6251
  228MOL   Cl5127745   2.873   4.395   3.395  0.0727  0.1265  0.4130
  228MOL   Cl5227746   3.021   4.410   3.634  0.0374  0.1346  0.1750
  228MOL    C5327747   2.843   4.221   3.592  0.4244  0.2614  0.1464
  228MOL    H5427748   2.790   4.294   3.654 -3.6211  0.4433 -3.3445
  228MOL    H5527749   2.760   4.188   3.530  1.4037 -0.8542 -0.5980
  228MOL    C5627750   2.883   4.096   3.687 -0.3917 -0.1269 -0.2663
  228MOL   Cl5727751   3.037   4.132   3.772  0.1236 -0.1608 -0.1512
  228MOL   Cl5827752   2.915   3.950   3.580  0.2598 -0.0628  0.6185
  228MOL    C5927753   2.769   4.071   3.780 -0.3194  0.2423 -0.3040
  228MOL    H6027754   2.749   4.168   3.825  0.7526  0.1866  0.2996
  228MOL    H6127755   2.679   4.048   3.723 -0.4790  1.1036 -0.4147
  228MOL    C6227756   2.786   3.983   3.905  0.0882 -0.0910 -0.4622
  228MOL   Cl6327757   2.619   3.972   3.973 -0.1810  0.3036  0.4664
  228MOL   Cl6427758   2.883   4.071   4.027  0.2032  0.2672  0.4434
  228MOL    C6527759   2.843   3.844   3.873  0.9004  0.0498  0.0838
  228MOL    H6627760   2.775   3.821   3.791  0.5335 -0.1854  0.4552
  228MOL    H6727761   2.947   3.858   3.841  1.2230 -1.9641  0.1836
  228MOL    C6827762   2.850   3.725   3.976  0.4235 -0.6441 -0.6526
  228MOL   Cl6927763   2.690   3.677   4.031  0.2847 -0.3534 -0.1184
  228MOL   Cl7027764   2.937   3.777   4.119 -0.0024 -0.0975  0.0232
  228MOL    C7127765   2.933   3.610   3.913  0.7954  0.9252 -0.3894
  228MOL    H7227766   3.038   3.639   3.915  1.1018 -0.1411 -0.7372
  228MOL    H7327767   2.921   3.526   3.981  0.5388 -0.8904 -2.6403
  228MOL    C7427768   2.889   3.544   3.781  0.5123  0.1726 -0.3228
  228MOL   Cl7527769   2.893   3.654   3.640  0.1715  0.0653  0.0739
  228MOL   Cl7627770   2.719   3.495   3.787 -0.1849 -0.3512 -0.4878
  228MOL    C7727771   2.981   3.421   3.740  0.3536  1.0504  0.0643
  228MOL    H7827772   2.936   3.371   3.655  0.2106 -2.2599  1.9651
  228MOL    H7927773   3.075   3.465   3.708  0.4573  0.0499 -1.0687
  228MOL    C8027774   3.019   3.300   3.823 -0.7100 -0.0441 -0.6335
  228MOL   Cl8127775   2.872   3.218   3.858 -0.2721 -0.0593 -0.7006
  228MOL   Cl8227776   3.100   3.339   3.974  0.4701  0.2537  0.3471
  228MOL    C8327777   3.104   3.193   3.750  0.0803 -0.5246  0.3801
  228MOL    H8427778   3.138   3.127   3.830 -0.4536 -1.3297 -0.0451
  228MOL    H8527779   3.041   3.128   3.689  1.0846 -2.5602  1.4432
  228MOL    C8627780   3.238   3.236   3.668  0.0995  0.1991 -0.5878
  228MOL   Cl8727781   3.340   3.342   3.767  0.2301 -0.5897  0.1463
  228MOL   Cl8827782   3.194   3.326   3.524 -0.1569  0.2056  0.4887
  228MOL    C8927783   3.304   3.116   3.605 -0.3140 -0.4639 -0.2401
  228MOL    H9027784   3.227   3.067   3.545  0.6324  0.2507 -2.0716
  228MOL    H9127785   3.383   3.148   3.538 -0.7341 -1.3980 -1.1955
  228MOL    C9227786   3.348   2.990   3.696  0.0163  0.0085  0.5534
  228MOL   Cl9327787   3.435   2.876   3.591 -0.0907 -0.3448  0.1582
  228MOL   Cl9427788   3.211   2.894   3.753 -0.2229  0.0081  0.1446
  228MOL    C9527789   3.425   3.029   3.825 -0.6243 -0.4119 -0.3903
  228MOL    H9627790   3.373   3.106   3.883 -2.2403 -2.7607  1.3497
  228MOL    H9727791   3.436   2.946   3.895  1.0325 -0.0219 -0.1603
  228MOL    C9827792   3.577   3.061   3.810  0.0985  0.1156 -0.1965
  228MOL   Cl9927793   3.611   3.179   3.678  0.2893 -0.0820 -0.1271
  228MOL  Cl10027794   3.670   2.908   3.778  0.0496  0.1619  0.0996
  228MOL   C10127795   3.620   3.133   3.944 -0.5192  0.0700  1.1119
  228MOL   H10227796   3.579   3.233   3.950 -1.1723  0.1240 -3.0968
  228MOL   H10327797   3.570   3.081   4.026 -3.3803  0.7147 -0.1526
  228MOL   C10427798   3.774   3.141   3.984  0.2519  0.3815  0.2876
  228MOL  Cl10527799   3.837   2.977   4.013  0.0896 -0.3363 -0.0966
  228MOL  Cl10627800   3.779   3.230   4.132 -0.1774  0.4390 -0.1484
  228MOL   C10727801   3.861   3.213   3.877  0.4487 -0.6639 -0.8111
  228MOL   H10827802   3.961   3.174   3.895  0.1322 -0.6883  1.0975
  228MOL   H10927803   3.829   3.161   3.787 -0.5505 -2.2204  0.4029
  228MOL   C11027804   3.873   3.367   3.858 -0.4258  0.7296  0.1513
  228MOL  Cl11127805   3.720   3.451   3.855  0.0961  0.0475  0.3601
  228MOL  Cl11227806   3.939   3.382   3.692 -0.4025  0.1435  0.0198
  228MOL   C11327807   3.971   3.449   3.953 -0.0791  0.9159 -0.2990
  228MOL   H11427808   3.960   3.553   3.924  0.4721  1.1199  0.2076
  228MOL   H11527809   3.920   3.449   4.050  1.2230 -1.7355  0.4280
  228MOL   C11627810   4.118   3.411   3.981  0.0855 -0.5321 -0.1035
  228MOL  Cl11727811   4.212   3.423   3.833 -0.2379 -0.1587  0.1391
  228MOL  Cl11827812   4.136   3.248   4.061 -0.2303 -0.1124  0.0566
  228MOL   C11927813   4.180   3.510   4.074  0.1828  0.2141 -0.0668
  228MOL   H12027814   4.114   3.535   4.157  0.6369  0.4939  0.2123
  228MOL   H12127815   4.276   3.477   4.113  0.0731  0.6188  0.5666
  228MOL   H12227816   4.205   3.607   4.031 -3.8629  2.0117  1.3931
  229MOL     C127817   8.156   1.921   3.579  0.0329 -0.3775 -0.0943
  229MOL    Cl227818   8.269   1.789   3.557  0.2262 -0.1427  0.2453
  229MOL    Cl327819   8.221   2.065   3.488  0.1047 -0.2676  0.7308
  229MOL     C427820   8.015   1.897   3.515 -0.1004 -0.2593  0.3043
  229MOL     H527821   7.980   1.997   3.490  0.4583  0.2095  1.3504
  229MOL     H627822   8.031   1.848   3.419  3.8250 -0.5443  1.0233
  229MOL     H727823   8.148   1.945   3.685  1.1825 -0.7782  0.0901
  229MOL     C827824   7.908   1.828   3.597 -0.2283  0.1593  0.1487
  229MOL    Cl927825   7.984   1.675   3.643  0.1012 -0.0329 -0.0686
  229MOL   Cl1027826   7.764   1.797   3.489 -0.0225 -0.2261  0.0408
  229MOL    C1127827   7.856   1.904   3.722 -0.0271 -0.0787 -0.2574
  229MOL    H1227828   7.938   1.941   3.783  0.6264  0.1464 -1.2641
  229MOL    H1327829   7.809   1.988   3.671  0.5248  1.0146  0.9944
  229MOL    C1427830   7.760   1.843   3.823 -0.0731 -0.0291 -0.2457
  229MOL   Cl1527831   7.683   1.982   3.907 -0.5097 -0.1011 -0.0191
  229MOL   Cl1627832   7.864   1.759   3.940 -0.2395  0.0661 -0.3601
  229MOL    C1727833   7.657   1.744   3.768 -0.1968 -0.8318  0.3604
  229MOL    H1827834   7.620   1.794   3.679  1.3833  2.5798  1.5297
  229MOL    H1927835   7.723   1.665   3.732  0.1825  0.1136 -1.0642
  229MOL    C2027836   7.539   1.688   3.846  0.4467 -0.0062  0.2592
  229MOL   Cl2127837   7.419   1.818   3.867 -0.5076 -0.2245  0.2023
  229MOL   Cl2227838   7.582   1.628   4.009  0.2876 -0.0949  0.0511
  229MOL    C2327839   7.451   1.590   3.769 -0.6862  0.9104  0.1028
  229MOL    H2427840   7.368   1.564   3.834 -0.0146 -1.5016  0.0332
  229MOL    H2527841   7.417   1.643   3.679  1.0322  0.7010 -0.6817
  229MOL    C2627842   7.500   1.455   3.718 -0.2623 -0.1941  1.0747
  229MOL   Cl2727843   7.579   1.370   3.853 -0.0117 -0.0067  0.3929
  229MOL   Cl2827844   7.619   1.477   3.588  0.3170  0.2487 -0.2228
  229MOL    C2927845   7.388   1.357   3.672  0.3989  0.4477 -0.5006
  229MOL    H3027846   7.438   1.265   3.642  1.3002  0.9368 -0.5124
  229MOL    H3127847   7.328   1.330   3.759  1.3294  0.5065  0.1660
  229MOL    C3227848   7.292   1.399   3.558 -0.3523 -0.3170  0.4272
  229MOL   Cl3327849   7.176   1.517   3.633 -0.3572  0.5515 -0.2973
  229MOL   Cl3427850   7.186   1.257   3.530  0.1750  0.2370  0.2707
  229MOL    C3527851   7.370   1.439   3.425 -0.1388 -0.0369 -0.2996
  229MOL    H3627852   7.420   1.533   3.446 -2.2429  0.1575  4.4070
  229MOL    H3727853   7.445   1.363   3.403 -1.1020 -1.2786  0.6488
  229MOL    C3827854   7.298   1.472   3.297 -0.5248 -0.3314  0.3704
  229MOL   Cl3927855   7.239   1.316   3.221 -0.3811  0.2842 -0.2285
  229MOL   Cl4027856   7.416   1.555   3.189 -0.4200 -0.0034  0.0353
  229MOL    C4127857   7.166   1.558   3.309  0.1007 -0.2453  0.3045
  229MOL    H4227858   7.089   1.484   3.332 -0.2573  0.0816  0.1590
  229MOL    H4327859   7.181   1.612   3.402  2.4266 -1.9393  0.9671
  229MOL    C4427860   7.111   1.656   3.212  0.4616  0.2331  0.9367
  229MOL   Cl4527861   7.213   1.801   3.212  0.4458  0.2393 -0.1209
  229MOL   Cl4627862   6.957   1.692   3.281  0.2515  0.3971 -0.2897
  229MOL    C4727863   7.091   1.602   3.068 -0.7248 -0.6588 -0.4399
  229MOL    H4827864   7.181   1.551   3.033  0.5676  0.5854  0.9976
  229MOL    H4927865   7.023   1.519   3.086  1.9449 -2.4195  1.9888
  229MOL    C5027866   7.050   1.686   2.941 -0.2994 -0.2852 -0.6444
  229MOL   Cl5127867   7.186   1.791   2.885  0.0799  0.0221  0.0972
  229MOL   Cl5227868   6.928   1.798   2.991  0.1198  0.0649  0.3302
  229MOL    C5327869   6.993   1.604   2.815 -0.7139  0.1867  0.3272
  229MOL    H5427870   6.975   1.684   2.743  2.9026  0.9882  0.2116
  229MOL    H5527871   7.075   1.559   2.759 -0.7567 -1.6988  1.7160
  229MOL    C5627872   6.887   1.505   2.843 -1.0512 -0.2899  0.8205
  229MOL   Cl5727873   6.969   1.344   2.883 -0.3390  0.2335 -0.1831
  229MOL   Cl5827874   6.809   1.479   2.687  0.1665 -0.0363 -0.0965
  229MOL    C5927875   6.774   1.550   2.940  0.4823  0.1137  0.2060
  229MOL    H6027876   6.809   1.590   3.036  2.7534  1.0990 -0.9946
  229MOL    H6127877   6.720   1.633   2.895  1.8544  0.6405 -0.5100
  229MOL    C6227878   6.660   1.455   2.996 -0.0242  0.8645 -0.8143
  229MOL   Cl6327879   6.744   1.331   3.088  0.0097  0.4449 -0.1528
  229MOL   Cl6427880   6.562   1.367   2.875 -0.0404 -0.1325  0.0903
  229MOL    C6527881   6.568   1.511   3.116  0.3950  0.2759 -0.8042
  229MOL    H6627882   6.497   1.431   3.134  0.0966  1.4132  3.7349
  229MOL    H6727883   6.627   1.522   3.207  0.1420 -2.6870 -0.2396
  229MOL    C6827884   6.477   1.639   3.103 -0.7313  0.0648  1.3054
  229MOL   Cl6927885   6.383   1.644   2.954 -0.4664  0.3084 -0.1690
  229MOL   Cl7027886   6.576   1.791   3.101  0.1246 -0.3241  0.3169
  229MOL    C7127887   6.373   1.639   3.229  0.5110  0.3081 -0.2958
  229MOL    H7227888   6.335   1.741   3.222  1.9066  0.8317 -0.3231
  229MOL    H7327889   6.280   1.586   3.210  0.9377 -0.7170  0.4320
  229MOL    C7427890   6.411   1.607   3.376 -0.3788 -0.9292  0.4034
  229MOL   Cl7527891   6.558   1.684   3.425  0.0568  0.0473  0.4089
  229MOL   Cl7627892   6.444   1.426   3.386 -0.3912  0.1314  0.3267
  229MOL    C7727893   6.306   1.645   3.485 -0.2703  0.3169  0.4476
  229MOL    H7827894   6.364   1.621   3.574 -0.0295  1.0266  0.4859
  229MOL    H7927895   6.305   1.753   3.494 -1.6639  0.2566  1.1746
  229MOL    C8027896   6.157   1.591   3.499  0.8789  0.6159  0.0462
  229MOL   Cl8127897   6.151   1.418   3.515  0.3950 -0.1071  0.5646
  229MOL   Cl8227898   6.065   1.644   3.358 -0.0913  0.4005 -0.1283
  229MOL    C8327899   6.081   1.636   3.625  0.4826  0.0255  0.4565
  229MOL    H8427900   5.978   1.610   3.603  0.1508  0.4091  1.5463
  229MOL    H8527901   6.117   1.587   3.715  1.1228 -0.5627 -0.1125
  229MOL    C8627902   6.075   1.782   3.676 -0.3044  0.9645  0.8532
  229MOL   Cl8727903   6.057   1.894   3.547  0.4131  0.0116  0.2600
  229MOL   Cl8827904   6.228   1.835   3.747 -0.0721 -0.1081 -0.0156
  229MOL    C8927905   5.961   1.794   3.784  0.5028 -0.1798 -0.5031
  229MOL    H9027906   5.878   1.737   3.743 -0.4364 -0.8322  2.2412
  229MOL    H9127907   6.003   1.733   3.864 -0.0936 -1.1893 -0.9457
  229MOL    C9227908   5.908   1.929   3.825 -0.3903  0.5234 -0.0551
  229MOL   Cl9327909   5.787   1.879   3.953 -0.2453  0.3546 -0.1440
  229MOL   Cl9427910   5.816   1.996   3.693 -0.0890  0.5279  0.2503
  229MOL    C9527911   6.019   2.030   3.876  0.1057  0.3388  0.0752
  229MOL    H9627912   6.101   1.979   3.927 -0.1699  0.2448  0.4225
  229MOL    H9727913   6.069   2.068   3.787  0.5355  1.4021  0.7595
  229MOL    C9827914   5.984   2.166   3.945 -0.3660  0.6150 -0.2709
  229MOL   Cl9927915   6.142   2.245   3.963  0.0933  0.0547 -0.1344
  229MOL  Cl10027916   5.920   2.122   4.105  0.4857 -0.0063  0.2501
  229MOL   C10127917   5.882   2.257   3.874 -0.5231 -0.3216 -0.2652
  229MOL   H10227918   5.901   2.253   3.766 -1.7347 -0.4267 -0.4731
  229MOL   H10327919   5.791   2.199   3.882 -0.5185 -0.3068 -0.1060
  229MOL   C10427920   5.866   2.407   3.905 -0.6661 -0.1024  0.0529
  229MOL  Cl10527921   5.694   2.425   3.844  0.2871  0.2118  0.0784
  229MOL  Cl10627922   5.977   2.498   3.804 -0.0689 -0.1808 -0.1158
  229MOL   C10727923   5.877   2.451   4.050  0.2439 -0.3163 -0.2205
  229MOL   H10827924   5.824   2.375   4.107 -0.4345 -0.7306 -1.3922
  229MOL   H10927925   5.981   2.434   4.078  0.5153 -1.5356 -1.8776
  229MOL   C11027926   5.849   2.598   4.098  0.5156 -0.2486 -0.0202
  229MOL  Cl11127927   5.682   2.645   4.068 -0.0411  0.3088  0.3314
  229MOL  Cl11227928   5.944   2.714   4.002 -0.1825 -0.1276 -0.0751
  229MOL   C11327929   5.862   2.631   4.250  0.0538  0.2279  0.0810
  229MOL   H11427930   5.848   2.737   4.269  1.4969 -0.0985  3.3981
  229MOL   H11527931   5.772   2.597   4.302 -1.8761  2.2416 -1.8439
  229MOL   C11627932   5.996   2.588   4.314 -1.0699  0.5878 -0.1917
  229MOL  Cl11727933   5.996   2.415   4.348  0.1607  0.0034  0.0801
  229MOL  Cl11827934   5.990   2.651   4.479 -0.1299 -0.3442 -0.1561
  229MOL   C11927935   6.131   2.631   4.251 -0.0918 -0.3425  0.6530
  229MOL   H12027936   6.131   2.737   4.226  1.8257 -0.0349  1.7760
  229MOL   H12127937   6.208   2.606   4.324 -0.5487 -2.6520  0.3983
  229MOL   H12227938   6.158   2.567   4.167 -1.9609 -3.6903  2.4823
  230MOL     C127939   5.858   3.765   0.006  0.2893  0.2701  0.3303
  230MOL    Cl227940   5.778   3.762   9.029 -0.0677  0.2474 -0.1232
  230MOL    Cl327941   5.952   3.616   0.011 -0.4536 -0.1319  0.1929
  230MOL     C427942   5.941   3.894   0.009  0.1162  0.0097 -0.7547
  230MOL     H527943   6.011   3.889   9.106 -1.9953 -1.7922 -2.4571
  230MOL     H627944   5.883   3.983   9.163  0.6964 -0.1795 -2.7036
  230MOL     H727945   5.779   3.771   0.082  1.9965  3.8408  1.9365
  230MOL     C827946   6.009   3.943   0.135  0.1812  0.5319  0.6980
  230MOL    Cl927947   6.158   3.846   0.146  0.1487  0.1930 -0.4268
  230MOL   Cl1027948   5.902   3.890   0.274 -0.2579 -0.0633  0.0768
  230MOL    C1127949   6.032   4.094   0.148 -0.0798 -0.0698 -0.2767
  230MOL    H1227950   5.931   4.132   0.161 -0.5315 -1.1408 -0.5824
  230MOL    H1327951   6.071   4.125   0.245  0.3645 -0.4751 -0.3212
  230MOL    C1427952   6.111   4.179   0.037  0.0210  0.2123 -0.5042
  230MOL   Cl1527953   6.100   4.346   0.080  0.1814  0.3618 -0.4201
  230MOL   Cl1627954   6.011   4.167   9.071  0.0555 -0.2722  0.1627
  230MOL    C1727955   6.262   4.124   0.024 -0.9996 -0.3263 -0.1149
  230MOL    H1827956   6.299   4.099   0.123 -0.3822 -0.9250 -0.4900
  230MOL    H1927957   6.251   4.027   9.155 -0.0151 -0.8112  0.6094
  230MOL    C2027958   6.372   4.205   9.128  0.2995  0.1231  0.1651
  230MOL   Cl2127959   6.411   4.359   0.026 -0.1770  0.4921 -0.3241
  230MOL   Cl2227960   6.319   4.260   8.966  0.3555  0.0137  0.3598
  230MOL    C2327961   6.502   4.127   9.118  0.7419  0.6192  0.2803
  230MOL    H2427962   6.574   4.190   9.066  0.8611  0.6334  0.4598
  230MOL    H2527963   6.524   4.103   0.042  0.4482 -1.0547 -0.0358
  230MOL    C2627964   6.521   3.991   9.056 -0.0386 -0.2863  0.5700
  230MOL   Cl2727965   6.432   3.981   8.902  0.1967  0.3934  0.5393
  230MOL   Cl2827966   6.456   3.867   9.165 -0.1086  0.4225 -0.0177
  230MOL    C2927967   6.671   3.950   9.024 -0.4726 -0.0634 -0.2804
  230MOL    H3027968   6.663   3.845   8.997  2.7915 -1.0556  2.2850
  230MOL    H3127969   6.697   4.002   8.932 -2.5897  1.3569 -0.0971
  230MOL    C3227970   6.790   3.972   9.131 -0.6804 -0.6655 -0.0629
  230MOL   Cl3327971   6.761   3.891   0.110 -0.3396  0.3473  0.1191
  230MOL   Cl3427972   6.807   4.146   9.161 -0.1275 -0.1485  0.8405
  230MOL    C3527973   6.926   3.932   9.069 -1.0408 -0.2580 -0.0656
  230MOL    H3627974   6.927   3.994   8.979 -2.8466  1.0829  0.8093
  230MOL    H3727975   6.991   3.978   9.143 -2.4631 -0.3768  1.2771
  230MOL    C3827976   6.973   3.787   9.034 -0.2963  0.0180  0.3279
  230MOL   Cl3927977   7.138   3.809   8.967 -0.0050  0.1269  0.3146
  230MOL   Cl4027978   6.858   3.735   8.906  0.0820 -0.1422 -0.5795
  230MOL    C4127979   6.975   3.688   9.152  0.5835  0.4092 -0.1034
  230MOL    H4227980   7.030   3.734   0.053  2.7092 -0.7791 -0.8288
  230MOL    H4327981   6.879   3.680   0.021  0.0746  1.5615 -0.8806
  230MOL    C4427982   7.018   3.534   9.140  1.0794  0.6171  0.1881
  230MOL   Cl4527983   6.910   3.448   9.024  0.2335 -0.3951 -0.5419
  230MOL   Cl4627984   6.998   3.463   0.120 -0.2419  0.0739  0.3664
  230MOL    C4727985   7.167   3.525   9.085  0.5659  0.3467  0.0978
  230MOL    H4827986   7.165   3.521   8.976  2.2799 -3.4044  0.1085
  230MOL    H4927987   7.213   3.617   9.120 -0.0381  0.1781  1.3774
  230MOL    C5027988   7.256   3.413   9.130 -0.1316  0.5625 -0.0250
  230MOL   Cl5127989   7.297   3.427   0.119  0.1098  0.3859 -0.2142
  230MOL   Cl5227990   7.405   3.449   9.045  0.1074 -0.0561 -0.1476
  230MOL    C5327991   7.208   3.269   9.090  0.1133 -0.2533  0.3469
  230MOL    H5427992   7.100   3.254   9.090 -0.1016  1.1842  1.2927
  230MOL    H5527993   7.246   3.265   8.987 -0.5036 -0.8829  0.1383
  230MOL    C5627994   7.263   3.139   9.147 -0.8613 -0.0674  0.1897
  230MOL   Cl5727995   7.232   3.014   9.024  0.6318 -0.3266 -0.1975
  230MOL   Cl5827996   7.165   3.111   0.119 -0.0887 -0.3598 -0.0204
  230MOL    C5927997   7.425   3.139   9.177  0.1950 -0.0918 -0.0312
  230MOL    H6027998   7.468   3.132   9.077  1.0533 -0.0298  0.3267
  230MOL    H6127999   7.453   3.232   0.046  1.3208 -0.3236 -0.2311
  230MOL    C6228000   7.492   3.025   0.072 -0.3083  0.0205  0.1712
  230MOL   Cl6328001   7.453   2.858   0.014  0.1101  0.0150  0.0656
  230MOL   Cl6428002   7.439   3.007   0.243 -0.2760 -0.3654  0.4627
  230MOL    C6528003   7.644   3.044   0.088 -0.8197 -0.3678 -0.1214
  230MOL    H6628004   7.659   3.132   0.151  3.5151 -1.3719  0.3721
  230MOL    H6728005   7.682   2.967   0.156  0.3325 -0.1745 -0.5336
  230MOL    C6828006   7.742   3.061   9.147  0.4229 -0.1328  0.3359
  230MOL   Cl6928007   7.718   3.229   9.092  0.0492  0.1565 -0.0555
  230MOL   Cl7028008   7.700   2.954   9.018 -0.4456  0.2104  0.0567
  230MOL    C7128009   7.893   3.047   0.008 -0.0096  0.9925 -0.0878
  230MOL    H7228010   7.947   3.104   9.113  0.4867  2.3194  1.2397
  230MOL    H7328011   7.898   3.107   0.099  0.0078  0.0959  0.5069
  230MOL    C7428012   7.968   2.911   0.019  0.2924  0.4030  1.0007
  230MOL   Cl7528013   7.991   2.839   9.040  0.3996  0.0209  0.5355
  230MOL   Cl7628014   7.868   2.794   0.118 -0.0215 -0.5313  0.6635
  230MOL    C7728015   8.106   2.921   0.090 -0.5285  0.7389 -0.1911
  230MOL    H7828016   8.082   2.910   0.195 -1.6657 -0.5963 -0.5691
  230MOL    H7928017   8.152   2.826   0.063  2.9755  1.7460  1.9534
  230MOL    C8028018   8.214   3.027   0.053  0.0298 -0.0743  0.0594
  230MOL   Cl8128019   8.157   3.194   0.099  0.0749 -0.0198 -0.0252
  230MOL   Cl8228020   8.242   3.021   9.056 -0.1432  0.0642 -0.2416
  230MOL    C8328021   8.357   3.007   0.114 -0.0333  0.5600  0.6260
  230MOL    H8428022   8.385   2.908   0.078 -1.6863 -0.0008  0.8252
  230MOL    H8528023   8.428   3.083   0.081  2.2121 -1.8783 -0.3261
  230MOL    C8628024   8.378   2.988   0.266 -0.4001 -0.4039 -0.2039
  230MOL   Cl8728025   8.291   2.849   0.338 -0.2711 -0.1652  0.0070
  230MOL   Cl8828026   8.322   3.139   0.355  0.0054  0.4499 -0.1690
  230MOL    C8928027   8.537   2.991   0.308 -0.3051 -0.1657 -0.3094
  230MOL    H9028028   8.587   3.087   0.302 -0.4705 -0.0783 -0.3058
  230MOL    H9128029   8.540   2.983   0.417 -0.5541  2.1795 -0.1220
  230MOL    C9228030   8.633   2.898   0.235 -0.7986  0.2280 -0.1734
  230MOL   Cl9328031   8.650   2.950   0.072  0.0903 -0.3171  0.0307
  230MOL   Cl9428032   8.581   2.723   0.249  0.1150 -0.0013  0.3444
  230MOL    C9528033   8.777   2.910   0.297 -0.8121  0.2995  0.2662
  230MOL    H9628034   8.833   2.867   0.213 -0.1658 -1.2692  1.4598
  230MOL    H9728035   8.787   3.018   0.302  0.4130  0.5185 -4.4396
  230MOL    C9828036   8.826   2.828   0.427 -0.2200 -0.2781  0.1564
  230MOL   Cl9928037   8.865   2.659   0.392 -0.4737 -0.3295  0.0412
  230MOL  Cl10028038   8.697   2.837   0.548  0.2533 -0.0712 -0.2248
  230MOL   C10128039   8.966   2.881   0.484  0.3839  0.1592 -0.2607
  230MOL   H10228040   8.979   2.829   0.579 -0.4277  0.2154 -0.1110
  230MOL   H10328041   9.047   2.836   0.428 -1.0595 -2.9646  0.0501
  230MOL   C10428042   8.991   3.034   0.495  0.3964 -0.3499  0.5041
  230MOL  Cl10528043   8.843   3.132   0.527 -0.3205 -0.0271  0.3562
  230MOL  Cl10628044   9.046   3.083   0.334  0.1825 -0.1344  0.0494
  230MOL   C10728045   9.112   3.070   0.590 -0.0781  0.1324  0.2152
  230MOL   H10828046   9.086   3.028   0.687 -1.3327  0.8179  0.1941
  230MOL   H10928047   0.017   3.014   0.552  0.3471  0.9743 -0.0909
  230MOL   C11028048   9.172   3.211   0.630  0.1955  0.5412 -0.1917
  230MOL  Cl11128049   0.048   3.295   0.481  0.0030  0.1717  0.2138
  230MOL  Cl11228050   0.130   3.190   0.746  0.1353 -0.1339  0.0029
  230MOL   C11328051   9.063   3.299   0.699 -0.0620 -0.2573 -0.5316
  230MOL   H11428052   9.007   3.340   0.615 -0.4746  0.4023  0.0627
  230MOL   H11528053   9.002   3.230   0.758 -0.2221  0.3085 -0.0251
  230MOL   C11628054   9.094   3.413   0.799  0.5999  0.7026  0.8405
  230MOL  Cl11728055   9.154   3.358   0.958  0.2965 -0.2596 -0.0590
  230MOL  Cl11828056   8.949   3.510   0.836  0.0707  0.0046 -0.2837
  230MOL   C11928057   0.012   3.513   0.735 -0.0211 -0.9272 -0.2740
  230MOL   H12028058   0.115   3.475   0.738 -0.3539 -1.7498  1.4528
  230MOL   H12128059   9.169   3.567   0.643  1.5267 -0.2093 -0.2718
  230MOL   H12228060   0.023   3.595   0.807  1.9797  0.6900 -2.3277
  231MOL     C128061   6.260   4.164   6.983  0.6089  0.4260 -0.1076
  231MOL    Cl228062   6.345   4.014   7.025 -0.4448  0.0744  0.2828
  231MOL    Cl328063   6.370   4.300   7.000 -0.2131 -0.1857  0.3049
  231MOL     C428064   6.213   4.156   6.836 -0.2622  0.1507  0.2591
  231MOL     H528065   6.290   4.195   6.769 -0.8791 -0.3357 -0.7572
  231MOL     H628066   6.214   4.048   6.821  0.1929  0.3659 -1.3468
  231MOL     H728067   6.188   4.178   7.063  1.1888  0.0211  0.4896
  231MOL     C828068   6.076   4.212   6.800  0.6495 -0.1379  0.2514
  231MOL    Cl928069   6.079   4.391   6.830  0.1429  0.3747 -0.2881
  231MOL   Cl1028070   5.960   4.124   6.895  0.0211 -0.3936  0.2794
  231MOL    C1128071   6.063   4.185   6.645 -0.1446 -0.1702 -0.1961
  231MOL    H1228072   6.140   4.246   6.600 -0.2543  0.6118  0.6475
  231MOL    H1328073   6.082   4.077   6.643  0.2885 -0.1094  0.4009
  231MOL    C1428074   5.927   4.204   6.570  0.2807 -0.3234 -0.5542
  231MOL   Cl1528075   5.814   4.069   6.617 -0.3007  0.0014 -0.4451
  231MOL   Cl1628076   5.979   4.173   6.404 -0.0951 -0.3188 -0.1308
  231MOL    C1728077   5.847   4.339   6.582 -0.0105 -0.1620  0.4703
  231MOL    H1828078   5.772   4.328   6.661 -0.5418  0.8153  0.1054
  231MOL    H1928079   5.919   4.407   6.627 -1.0743 -0.0944  2.1246
  231MOL    C2028080   5.782   4.408   6.457  0.1525 -0.5253 -0.2941
  231MOL   Cl2128081   5.906   4.490   6.357 -0.4260  0.2769  0.0720
  231MOL   Cl2228082   5.685   4.536   6.540  0.0916 -0.2511  0.1174
  231MOL    C2328083   5.679   4.322   6.375  0.0928 -0.2025  0.3067
  231MOL    H2428084   5.712   4.218   6.363 -3.3409 -1.2625 -0.3749
  231MOL    H2528085   5.596   4.313   6.445  0.4124  1.1108  0.8580
  231MOL    C2628086   5.619   4.382   6.238  0.6647  0.1417  0.7957
  231MOL   Cl2728087   5.751   4.353   6.114  0.0471 -0.5175 -0.2829
  231MOL   Cl2828088   5.587   4.557   6.233  0.3783  0.4534  0.2466
  231MOL    C2928089   5.496   4.309   6.169  0.0750  0.3331  0.0493
  231MOL    H3028090   5.403   4.354   6.204 -0.3115 -1.3083  1.1673
  231MOL    H3128091   5.505   4.327   6.062 -0.4286 -0.2262 -0.0917
  231MOL    C3228092   5.476   4.157   6.178  0.0476 -0.0612 -0.6862
  231MOL   Cl3328093   5.439   4.124   6.347 -0.0014 -0.0657 -0.0827
  231MOL   Cl3428094   5.633   4.071   6.141  0.3423  0.1172 -0.2787
  231MOL    C3528095   5.362   4.094   6.101 -0.8150 -0.2610 -0.2039
  231MOL    H3628096   5.407   4.095   6.002 -0.0359  0.5177  0.1549
  231MOL    H3728097   5.355   3.991   6.138 -0.8736 -0.3177 -0.3698
  231MOL    C3828098   5.224   4.166   6.083 -0.0766  0.4072 -0.2602
  231MOL   Cl3928099   5.149   4.063   5.970 -0.1812 -0.1758 -0.3787
  231MOL   Cl4028100   5.225   4.335   6.009  0.2933  0.0545 -0.0017
  231MOL    C4128101   5.141   4.155   6.209 -0.8543 -0.2991  0.2425
  231MOL    H4228102   5.144   4.049   6.236 -0.8058 -0.1846  0.6877
  231MOL    H4328103   5.200   4.210   6.283 -2.3097  0.2273  1.0166
  231MOL    C4428104   4.990   4.213   6.227 -0.6547 -0.2965  0.4490
  231MOL   Cl4528105   4.875   4.112   6.129 -0.4288  0.2852  0.0319
  231MOL   Cl4628106   4.965   4.380   6.167 -0.3043 -0.3742 -0.1325
  231MOL    C4728107   4.937   4.196   6.374  0.2604  0.1872  0.9042
  231MOL    H4828108   4.839   4.236   6.351 -0.6616 -1.8533  1.2004
  231MOL    H4928109   4.917   4.091   6.391  0.8580 -0.2337 -0.9178
  231MOL    C5028110   5.009   4.259   6.494 -0.4755  0.4081 -0.4707
  231MOL   Cl5128111   5.101   4.404   6.447 -0.3153  0.2206 -0.2074
  231MOL   Cl5228112   5.141   4.151   6.547 -0.1182 -0.3497 -0.3152
  231MOL    C5328113   4.919   4.281   6.625  0.5729  0.1110 -0.2500
  231MOL    H5428114   4.876   4.185   6.655  1.2396  0.3176  1.4153
  231MOL    H5528115   4.994   4.289   6.703 -1.4098  0.7621  1.6228
  231MOL    C5628116   4.815   4.403   6.635  0.7514  0.4996 -0.2458
  231MOL   Cl5728117   4.705   4.412   6.493  0.2646 -0.2918 -0.1846
  231MOL   Cl5828118   4.895   4.559   6.639  0.1556 -0.1216 -0.0036
  231MOL    C5928119   4.731   4.390   6.768  0.1678  0.1218  0.1010
  231MOL    H6028120   4.719   4.283   6.787 -1.3005  0.4565  1.2174
  231MOL    H6128121   4.790   4.409   6.858 -0.4024  1.3475  0.2309
  231MOL    C6228122   4.599   4.464   6.796  0.2109 -0.5572 -0.0572
  231MOL   Cl6328123   4.619   4.632   6.744  0.0046 -0.0414  0.2717
  231MOL   Cl6428124   4.567   4.464   6.979  0.0245 -0.0173  0.1596
  231MOL    C6528125   4.473   4.407   6.729 -0.2317  0.9011 -0.1455
  231MOL    H6628126   4.386   4.461   6.765 -0.3190  1.0716 -0.5993
  231MOL    H6728127   4.468   4.449   6.628  0.2991  0.7224 -0.2505
  231MOL    C6828128   4.429   4.259   6.721  0.4409  0.0769 -0.0859
  231MOL   Cl6928129   4.456   4.176   6.879  0.0794  0.0612  0.0138
  231MOL   Cl7028130   4.509   4.160   6.594 -0.0925 -0.0087  0.0807
  231MOL    C7128131   4.276   4.263   6.707  1.3118  0.8077  0.1070
  231MOL    H7228132   4.230   4.280   6.805  1.9235 -2.7710  1.1095
  231MOL    H7328133   4.250   4.347   6.643 -1.5669 -0.2858 -0.2580
  231MOL    C7428134   4.202   4.140   6.648  0.6200 -0.1958  0.3155
  231MOL   Cl7528135   4.226   4.147   6.474  0.2987 -0.0099  0.0806
  231MOL   Cl7628136   4.030   4.163   6.655 -0.3574  0.2110  0.0762
  231MOL    C7728137   4.253   4.000   6.684  0.3852  0.2918  0.7121
  231MOL    H7828138   4.260   3.934   6.597 -0.8938 -0.4543  1.1596
  231MOL    H7928139   4.351   3.998   6.730  0.7473  0.9291 -0.0143
  231MOL    C8028140   4.172   3.924   6.787 -0.0705 -0.7377 -0.5912
  231MOL   Cl8128141   4.015   3.864   6.729  0.1696  0.2126  0.1925
  231MOL   Cl8228142   4.140   4.032   6.927  0.1285  0.0636 -0.0266
  231MOL    C8328143   4.263   3.812   6.853 -0.4252 -0.0581 -0.0444
  231MOL    H8428144   4.338   3.859   6.916 -1.1528 -0.9455  1.5052
  231MOL    H8528145   4.194   3.769   6.926  0.0079  0.4480  0.6704
  231MOL    C8628146   4.339   3.698   6.777 -0.6095  0.4909  0.0280
  231MOL   Cl8728147   4.469   3.768   6.674  0.0201  0.3800 -0.1225
  231MOL   Cl8828148   4.218   3.616   6.669 -0.0893  0.0991  0.1133
  231MOL    C8928149   4.401   3.593   6.874 -0.4510 -0.4377  0.6387
  231MOL    H9028150   4.504   3.623   6.892 -0.6850  0.0360  1.2090
  231MOL    H9128151   4.348   3.579   6.969 -0.6545 -0.7243  0.4861
  231MOL    C9228152   4.422   3.443   6.836 -0.5742  0.6072 -0.3757
  231MOL   Cl9328153   4.266   3.353   6.822 -0.3163 -0.3032  0.1710
  231MOL   Cl9428154   4.510   3.372   6.975  0.2118 -0.1649 -0.5054
  231MOL    C9528155   4.523   3.432   6.708 -0.4674  0.2399  0.2635
  231MOL    H9628156   4.465   3.457   6.619 -0.0790  1.6491  0.3886
  231MOL    H9728157   4.592   3.516   6.723 -0.7324  0.3525  0.8427
  231MOL    C9828158   4.605   3.299   6.677 -0.2043  0.2883 -0.3089
  231MOL   Cl9928159   4.727   3.261   6.806 -0.1709  0.0572  0.3248
  231MOL  Cl10028160   4.688   3.332   6.521  0.1717  0.2717 -0.0265
  231MOL   C10128161   4.507   3.178   6.660  0.1132  0.1872  0.0531
  231MOL   H10228162   4.469   3.137   6.754 -0.7173 -0.5940 -0.6120
  231MOL   H10328163   4.411   3.209   6.620  0.0114  2.1445  1.7822
  231MOL   C10428164   4.546   3.048   6.588  0.1004  0.2760 -0.4017
  231MOL  Cl10528165   4.422   2.924   6.616  0.1430 -0.2213  0.1191
  231MOL  Cl10628166   4.702   2.984   6.653 -0.0649 -0.5284  0.0449
  231MOL   C10728167   4.570   3.044   6.435 -0.1751 -1.0719 -0.4199
  231MOL   H10828168   4.651   3.110   6.404 -2.9530  2.5261 -0.3008
  231MOL   H10928169   4.610   2.947   6.406 -0.6197 -1.2235 -0.5303
  231MOL   C11028170   4.455   3.078   6.331 -0.4863  0.2128 -1.2325
  231MOL  Cl11128171   4.371   3.228   6.365 -0.1901 -0.1334 -0.5153
  231MOL  Cl11228172   4.336   2.945   6.324  0.2810  0.3946  0.1815
  231MOL   C11328173   4.508   3.102   6.182 -0.0578 -0.8450  0.2300
  231MOL   H11428174   4.418   3.106   6.120 -1.0686  0.4121  1.7622
  231MOL   H11528175   4.567   3.193   6.179  0.4904 -1.2393 -3.1209
  231MOL   C11628176   4.590   2.993   6.111 -0.8242 -0.1861  0.7996
  231MOL  Cl11728177   4.759   3.004   6.173  0.1808 -0.1301 -0.1355
  231MOL  Cl11828178   4.601   3.040   5.941 -0.1681  0.3850  0.1417
  231MOL   C11928179   4.542   2.846   6.121  0.2406 -0.5753 -0.2956
  231MOL   H12028180   4.542   2.793   6.216  0.6151  0.7004  0.4196
  231MOL   H12128181   4.438   2.846   6.088  0.1239 -1.7097  0.0466
  231MOL   H12228182   4.588   2.779   6.048  0.6110 -1.3420  0.6270
  232MOL     C128183   3.801   4.482   3.741  0.4601 -1.1029 -0.5814
  232MOL    Cl228184   3.650   4.577   3.750  0.2722 -0.3819  0.0282
  232MOL    Cl328185   3.771   4.307   3.711 -0.0605  0.1755 -0.1903
  232MOL     C428186   3.898   4.543   3.639 -0.2964  0.2846 -0.2592
  232MOL     H528187   3.880   4.490   3.546 -1.6639 -1.2470  0.8523
  232MOL     H628188   3.889   4.649   3.615 -0.1392  0.2452 -0.4950
  232MOL     H728189   3.847   4.490   3.839  1.2932 -1.1770 -0.9582
  232MOL     C828190   4.051   4.533   3.667 -0.0500  0.2872 -0.9511
  232MOL    Cl928191   4.100   4.366   3.713 -0.2344 -0.2169  0.4232
  232MOL   Cl1028192   4.091   4.646   3.796 -0.3633  0.0916  0.2472
  232MOL    C1128193   4.137   4.549   3.533 -0.0588  0.5561 -0.1689
  232MOL    H1228194   4.235   4.503   3.550 -0.7775 -0.1536  2.2554
  232MOL    H1328195   4.101   4.486   3.451 -0.3071 -0.6291  0.8412
  232MOL    C1428196   4.153   4.685   3.473 -0.8518  0.6392  0.0668
  232MOL   Cl1528197   4.004   4.753   3.424 -0.2277 -0.0785  0.3151
  232MOL   Cl1628198   4.239   4.648   3.324 -0.0559 -0.5553  0.2642
  232MOL    C1728199   4.234   4.799   3.562 -0.2588 -1.0978 -0.4914
  232MOL    H1828200   4.254   4.887   3.501  1.1403  0.1336  1.6852
  232MOL    H1928201   4.167   4.837   3.639  2.9959 -1.3998  2.6411
  232MOL    C2028202   4.381   4.769   3.615 -0.5516  0.8161 -0.5908
  232MOL   Cl2128203   4.500   4.733   3.486  0.1007  0.0256 -0.0956
  232MOL   Cl2228204   4.391   4.621   3.725  0.2239 -0.2557 -0.4082
  232MOL    C2328205   4.460   4.885   3.693  0.0809 -0.0819  0.6530
  232MOL    H2428206   4.550   4.834   3.724  0.7333  0.6922  0.0558
  232MOL    H2528207   4.500   4.959   3.624 -0.8160 -0.3052 -0.1187
  232MOL    C2628208   4.389   4.967   3.810 -0.1286  0.4044 -0.0362
  232MOL   Cl2728209   4.250   5.064   3.746 -0.1482  0.3444  0.5766
  232MOL   Cl2828210   4.517   5.085   3.845 -0.0318 -0.3258  0.3148
  232MOL    C2928211   4.333   4.879   3.927  0.2399 -0.6736  1.1682
  232MOL    H3028212   4.262   4.805   3.891  0.8094 -1.1708  1.0668
  232MOL    H3128213   4.422   4.825   3.960  1.1444 -0.9251 -1.5959
  232MOL    C3228214   4.276   4.943   4.060 -1.0483 -0.0506  0.0553
  232MOL   Cl3328215   4.235   4.806   4.175  0.2384 -0.0749  0.0859
  232MOL   Cl3428216   4.118   5.027   4.030 -0.3765 -0.0991  0.0345
  232MOL    C3528217   4.380   5.043   4.128  0.7449  0.6736 -0.7231
  232MOL    H3628218   4.479   5.007   4.099 -0.4446 -0.5645 -3.4449
  232MOL    H3728219   4.358   5.133   4.071 -1.1972  0.6563 -0.0388
  232MOL    C3828220   4.381   5.080   4.279 -0.9181  0.5513 -0.3283
  232MOL   Cl3928221   4.218   5.114   4.324  0.0314  0.0963 -0.1863
  232MOL   Cl4028222   4.469   5.239   4.301  0.2382  0.1176 -0.2107
  232MOL    C4128223   4.444   4.977   4.383  0.1980  0.8165 -0.0474
  232MOL    H4228224   4.439   5.027   4.479 -0.6774  0.2904  0.1870
  232MOL    H4328225   4.380   4.890   4.396  0.3369  0.3315 -2.3401
  232MOL    C4428226   4.579   4.906   4.361 -0.3829  0.4943  1.0787
  232MOL   Cl4528227   4.710   5.018   4.318  0.3085  0.1715  0.6122
  232MOL   Cl4628228   4.558   4.796   4.221 -0.1029 -0.2072 -0.5185
  232MOL    C4728229   4.636   4.809   4.476  0.0742  0.3235 -0.1723
  232MOL    H4828230   4.594   4.709   4.468 -2.3704  1.1283  1.8323
  232MOL    H4928231   4.742   4.803   4.451 -0.0911 -1.4102 -0.5215
  232MOL    C5028232   4.640   4.840   4.629  0.9367 -0.4974 -0.6080
  232MOL   Cl5128233   4.743   4.982   4.667  0.3029 -0.3310  0.0718
  232MOL   Cl5228234   4.734   4.707   4.702  0.0588  0.1167  0.0988
  232MOL    C5328235   4.501   4.845   4.695  0.1808 -0.1040  0.2641
  232MOL    H5428236   4.425   4.861   4.619  2.0383 -4.1055 -2.6016
  232MOL    H5528237   4.502   4.738   4.715  2.6776 -0.2443 -0.3931
  232MOL    C5628238   4.475   4.922   4.834  0.4067  0.2390  0.5976
  232MOL   Cl5728239   4.482   5.098   4.799 -0.3195 -0.1310 -0.1027
  232MOL   Cl5828240   4.599   4.872   4.954 -0.0321 -0.1231 -0.1525
  232MOL    C5928241   4.337   4.878   4.893  0.3210  0.0488  0.0950
  232MOL    H6028242   4.361   4.779   4.930 -0.3711  0.3575  1.4029
  232MOL    H6128243   4.312   4.945   4.975  2.2068  3.2067 -1.7951
  232MOL    C6228244   4.203   4.866   4.812  0.5050 -0.1152  0.0354
  232MOL   Cl6328245   4.196   4.724   4.699  0.2257  0.2652  0.1014
  232MOL   Cl6428246   4.194   5.020   4.717 -0.1227 -0.2240  0.2696
  232MOL    C6528247   4.073   4.863   4.893  1.1864  0.0986  0.4819
  232MOL    H6628248   4.079   4.959   4.944  1.3325  0.4019 -0.1014
  232MOL    H6728249   3.995   4.851   4.818  1.4302 -1.6377  0.5063
  232MOL    C6828250   4.045   4.757   5.003  0.1737 -0.1239 -1.6813
  232MOL   Cl6928251   4.163   4.761   5.132 -0.6247 -0.0140  0.1471
  232MOL   Cl7028252   4.055   4.587   4.945 -0.1626  0.1524  0.0624
  232MOL    C7128253   3.907   4.781   5.070  0.4929  0.1058  0.4223
  232MOL    H7228254   3.896   4.704   5.145 -0.5636  0.4931  0.6708
  232MOL    H7328255   3.911   4.878   5.121 -0.9254  0.3856  0.0236
  232MOL    C7428256   3.767   4.774   5.001 -0.1861 -0.3563  0.0090
  232MOL   Cl7528257   3.727   4.633   4.901  0.1304  0.3264 -0.2078
  232MOL   Cl7628258   3.747   4.909   4.890 -0.1165 -0.0149 -0.3359
  232MOL    C7728259   3.644   4.780   5.101  0.1435 -0.3882 -0.8229
  232MOL    H7828260   3.554   4.792   5.042 -0.6242 -0.2259  0.3715
  232MOL    H7928261   3.640   4.679   5.143 -0.7297 -1.4312 -3.3708
  232MOL    C8028262   3.633   4.877   5.220 -0.6557  0.3249 -0.0054
  232MOL   Cl8128263   3.651   5.043   5.161  0.0341  0.5251 -0.1708
  232MOL   Cl8228264   3.766   4.835   5.337  0.2050 -0.0745 -0.0795
  232MOL    C8328265   3.499   4.883   5.302  0.8079  0.1207  0.0070
  232MOL    H8428266   3.510   4.938   5.395 -0.9812 -2.3699  1.7776
  232MOL    H8528267   3.430   4.939   5.239 -0.9456  0.2470  1.9882
  232MOL    C8628268   3.424   4.749   5.337 -0.0397  0.2258 -0.0379
  232MOL   Cl8728269   3.533   4.624   5.402 -0.3242 -0.2747 -0.2984
  232MOL   Cl8828270   3.359   4.688   5.184  0.1053 -0.0991 -0.0014
  232MOL    C8928271   3.305   4.769   5.442  0.0112  0.0679  0.2685
  232MOL    H9028272   3.241   4.681   5.439 -0.3232  0.3046  0.4162
  232MOL    H9128273   3.350   4.772   5.541 -0.6244  0.7034  0.5447
  232MOL    C9228274   3.206   4.890   5.420 -0.7735  0.1933  0.7406
  232MOL   Cl9328275   3.171   4.932   5.243 -0.1481  0.3448 -0.1265
  232MOL   Cl9428276   3.290   5.034   5.482  0.0953 -0.3440  0.0837
  232MOL    C9528277   3.061   4.876   5.492 -0.1720 -0.4441 -0.0351
  232MOL    H9628278   3.008   4.971   5.495  2.2310  0.9077  0.8940
  232MOL    H9728279   2.989   4.829   5.425  0.9189 -0.8573 -0.9217
  232MOL    C9828280   3.048   4.831   5.643 -0.4931 -0.0031  0.3355
  232MOL   Cl9928281   3.168   4.918   5.739 -0.2182 -0.0893  0.1867
  232MOL  Cl10028282   3.094   4.655   5.653  0.2617  0.0949  0.6634
  232MOL   C10128283   2.911   4.849   5.717 -0.4167 -0.2525  0.1338
  232MOL   H10228284   2.926   4.794   5.810  2.5139 -1.6795 -1.1287
  232MOL   H10328285   2.903   4.954   5.744  0.0980 -0.5574  1.5388
  232MOL   C10428286   2.776   4.805   5.646  0.0319  0.2846 -0.4952
  232MOL  Cl10528287   2.782   4.633   5.596 -0.0979  0.0435  0.2536
  232MOL  Cl10628288   2.747   4.896   5.495  0.2391 -0.1723 -0.1027
  232MOL   C10728289   2.648   4.814   5.732 -0.1260 -0.2637 -0.4758
  232MOL   H10828290   2.568   4.801   5.659  0.4178  2.2061 -1.5676
  232MOL   H10928291   2.634   4.733   5.803  1.8827  0.8184  1.2206
  232MOL   C11028292   2.624   4.952   5.826  0.4408 -0.3064 -0.0501
  232MOL  Cl11128293   2.684   5.103   5.742  0.1627  0.5338  0.0309
  232MOL  Cl11228294   2.734   4.921   5.967 -0.1351 -0.0947  0.3248
  232MOL   C11328295   2.482   4.977   5.881  0.6806 -0.3005 -0.0515
  232MOL   H11428296   2.472   4.900   5.957  2.3249 -0.2477  0.2487
  232MOL   H11528297   2.485   5.078   5.922  2.0584 -0.8015  1.1332
  232MOL   C11628298   2.349   4.962   5.792 -0.2041  0.3665 -0.4522
  232MOL  Cl11728299   2.203   5.001   5.891 -0.2581  0.3555 -0.0523
  232MOL  Cl11828300   2.323   4.795   5.745  0.2253 -0.3298  0.8696
  232MOL   C11928301   2.344   5.055   5.666 -0.0524  0.5885 -0.1448
  232MOL   H12028302   2.247   5.036   5.621  0.7642 -1.6399 -1.0308
  232MOL   H12128303   2.354   5.153   5.713 -1.8837  1.7538 -2.1057
  232MOL   H12228304   2.421   5.034   5.592 -1.4036 -1.4021 -1.0032
  233MOL     C128305   0.960   2.615   1.583 -0.3545 -0.6248  0.0277
  233MOL    Cl228306   1.063   2.710   1.693  0.1507 -0.1786  0.4357
  233MOL    Cl328307   0.892   2.466   1.664 -0.3047  0.1643  0.1106
  233MOL     C428308   0.847   2.716   1.517 -0.1861 -0.1922 -0.1521
  233MOL     H528309   0.770   2.735   1.592 -1.9525 -0.7625 -1.7876
  233MOL     H628310   0.900   2.811   1.509 -0.2656 -0.0509  0.9335
  233MOL     H728311   1.026   2.581   1.503  0.3176  0.2665  0.1887
  233MOL     C828312   0.771   2.669   1.389 -0.1276  0.6337 -0.3949
  233MOL    Cl928313   0.705   2.503   1.402 -0.3302 -0.0297 -0.0204
  233MOL   Cl1028314   0.894   2.661   1.265 -0.1137 -0.4359  0.8225
  233MOL    C1128315   0.656   2.762   1.341  0.2749  0.4983 -0.2300
  233MOL    H1228316   0.639   2.737   1.237  1.3039 -0.9327 -0.0640
  233MOL    H1328317   0.568   2.733   1.397  0.9614 -0.1021  0.5479
  233MOL    C1428318   0.670   2.919   1.345 -0.1001  0.7438 -0.4403
  233MOL   Cl1528319   0.831   2.989   1.304  0.3262 -0.2547 -0.1062
  233MOL   Cl1628320   0.641   2.978   1.512 -0.0617 -0.1493 -0.5564
  233MOL    C1728321   0.559   2.995   1.262  0.0345 -0.0982 -0.1869
  233MOL    H1828322   0.468   2.981   1.320  0.4612  1.5806  0.9099
  233MOL    H1928323   0.588   3.097   1.286  1.5207 -0.4836 -0.2915
  233MOL    C2028324   0.538   2.970   1.110  0.0022 -0.5110 -0.6062
  233MOL   Cl2128325   0.429   2.831   1.091 -0.3485  0.0932 -0.0383
  233MOL   Cl2228326   0.689   2.911   1.037 -0.0160  0.3825 -0.0995
  233MOL    C2328327   0.483   3.098   1.037  0.2697  0.1613  0.4927
  233MOL    H2428328   0.569   3.166   1.032 -0.8928  1.8103  2.3264
  233MOL    H2528329   0.481   3.073   0.931  3.7696  0.8877  0.1661
  233MOL    C2628330   0.357   3.172   1.083  0.3660 -0.1628  0.6632
  233MOL   Cl2728331   0.330   3.198   1.255  0.0787  0.2078 -0.3236
  233MOL   Cl2828332   0.220   3.061   1.037  0.0192  0.0955 -0.0272
  233MOL    C2928333   0.345   3.302   1.010 -0.6687 -0.4396  0.0164
  233MOL    H3028334   0.302   3.284   0.912  1.1173 -0.1372 -0.8381
  233MOL    H3128335   0.262   3.349   1.063  0.0087  0.6598  0.1199
  233MOL    C3228336   0.460   3.410   1.006  0.6379  0.2030 -0.2559
  233MOL   Cl3328337   0.379   3.562   0.954 -0.2973 -0.5545 -0.0694
  233MOL   Cl3428338   0.569   3.367   0.868 -0.1112 -0.1812  0.0195
  233MOL    C3528339   0.519   3.443   1.150  0.4357 -0.3246 -0.4805
  233MOL    H3628340   0.442   3.501   1.201 -2.0143 -4.5934  1.0544
  233MOL    H3728341   0.524   3.355   1.215 -1.4332 -0.9476 -1.1333
  233MOL    C3828342   0.661   3.509   1.165  0.2244  0.9478 -0.5988
  233MOL   Cl3928343   0.663   3.649   1.053 -0.0218 -0.1695  0.0356
  233MOL   Cl4028344   0.797   3.400   1.110  0.6128  0.7634 -0.0063
  233MOL    C4128345   0.677   3.561   1.313  0.0265 -0.8518 -0.1961
  233MOL    H4228346   0.776   3.605   1.312 -0.4001  0.0855 -1.1404
  233MOL    H4328347   0.604   3.637   1.340  0.0640 -1.1558  0.7981
  233MOL    C4428348   0.673   3.465   1.435  0.1933 -0.6395 -0.2025
  233MOL   Cl4528349   0.775   3.313   1.409  0.2968 -0.1611  0.2713
  233MOL   Cl4628350   0.499   3.408   1.472  0.0760  0.2855 -0.4389
  233MOL    C4728351   0.728   3.533   1.573  0.6186 -0.9073  0.2945
  233MOL    H4828352   0.684   3.632   1.566  0.9949 -0.7696 -0.1781
  233MOL    H4928353   0.671   3.491   1.656 -1.8903 -0.2318 -1.0275
  233MOL    C5028354   0.880   3.557   1.618  0.0571 -0.2028 -0.0347
  233MOL   Cl5128355   0.860   3.669   1.756  0.0914 -0.2421  0.3074
  233MOL   Cl5228356   0.960   3.642   1.482  0.2269 -0.0322  0.0662
  233MOL    C5328357   0.963   3.432   1.668  0.2783 -0.5596 -1.0638
  233MOL    H5428358   0.925   3.408   1.768  0.9489 -2.1644 -1.1709
  233MOL    H5528359   0.938   3.347   1.604 -1.2825  0.6309 -2.0418
  233MOL    C5628360   1.117   3.431   1.692 -0.7653 -0.4498 -0.3193
  233MOL   Cl5728361   1.141   3.568   1.802  0.1903 -0.0641  0.5972
  233MOL   Cl5828362   1.215   3.456   1.552  0.1386 -0.6659 -0.1455
  233MOL    C5928363   1.161   3.302   1.765 -0.3311 -0.2275  0.2554
  233MOL    H6028364   1.270   3.298   1.770 -0.3691  0.1902  1.4929
  233MOL    H6128365   1.129   3.308   1.869  0.6347  0.3745  0.5283
  233MOL    C6228366   1.119   3.158   1.717 -0.0239 -0.0038 -0.6428
  233MOL   Cl6328367   1.137   3.134   1.536 -0.0598 -0.3062  0.0135
  233MOL   Cl6428368   0.949   3.136   1.757  0.0786  0.2504  0.1539
  233MOL    C6528369   1.205   3.046   1.782  0.7133 -0.3591 -0.3115
  233MOL    H6628370   1.173   2.953   1.736 -1.1429  1.0647 -1.9706
  233MOL    H6728371   1.306   3.066   1.746  0.2927  1.4147 -0.5579
  233MOL    C6828372   1.210   3.006   1.931 -0.0617 -0.2782  0.3092
  233MOL   Cl6928373   1.313   3.111   2.014  0.6969 -0.4544 -0.0205
  233MOL   Cl7028374   1.296   2.854   1.928  0.0894 -0.3185  0.1006
  233MOL    C7128375   1.073   2.989   2.010  0.1017 -0.7052 -0.3281
  233MOL    H7228376   1.029   3.087   2.027 -1.1105 -0.7725 -2.7845
  233MOL    H7328377   0.999   2.940   1.946  1.2520 -0.3346 -1.9940
  233MOL    C7428378   1.051   2.910   2.144 -0.4786  0.0467 -0.2117
  233MOL   Cl7528379   1.066   2.735   2.098 -0.4468  0.0280  0.2944
  233MOL   Cl7628380   0.879   2.946   2.180 -0.2182 -0.2719  0.4977
  233MOL    C7728381   1.126   2.950   2.269  0.4200 -0.4468  0.7378
  233MOL    H7828382   1.232   2.959   2.247  0.4510  0.0911  1.1062
  233MOL    H7928383   1.107   3.052   2.304  1.1693 -0.1184  0.1841
  233MOL    C8028384   1.122   2.855   2.396 -0.1588  0.2887  0.4361
  233MOL   Cl8128385   1.196   2.952   2.524 -0.2307  0.1315  0.3675
  233MOL   Cl8228386   1.238   2.716   2.365 -0.2193 -0.0986 -0.2304
  233MOL    C8328387   0.987   2.805   2.443 -0.2344  0.4164 -0.2554
  233MOL    H8428388   0.928   2.896   2.432 -0.2324  0.1604 -2.6297
  233MOL    H8528389   0.962   2.743   2.357  1.5950 -1.4791  0.5581
  233MOL    C8628390   0.951   2.736   2.580 -0.9586  0.1478  0.6114
  233MOL   Cl8728391   0.779   2.694   2.568 -0.4072  0.0186  0.4142
  233MOL   Cl8828392   0.963   2.845   2.723  0.4071 -0.0394 -0.1943
  233MOL    C8928393   1.039   2.614   2.615  0.9514  1.0314  0.0312
  233MOL    H9028394   1.081   2.567   2.526 -0.4070 -1.5262  0.6864
  233MOL    H9128395   1.130   2.652   2.661  1.7089 -1.6840  0.8781
  233MOL    C9228396   0.983   2.504   2.716 -0.0204  0.0255  0.2322
  233MOL   Cl9328397   0.895   2.379   2.617 -0.0152 -0.0766  0.0780
  233MOL   Cl9428398   0.875   2.566   2.842  0.2073  0.2329 -0.5255
  233MOL    C9528399   1.092   2.417   2.785  0.1731  0.3714 -0.1148
  233MOL    H9628400   1.025   2.365   2.854 -1.3554  1.1150 -0.9949
  233MOL    H9728401   1.123   2.350   2.706  0.4580 -1.1704  1.2757
  233MOL    C9828402   1.217   2.462   2.859  0.4444  0.4656 -0.3040
  233MOL   Cl9928403   1.345   2.514   2.745  0.1422 -0.1953  0.2610
  233MOL  Cl10028404   1.275   2.311   2.943  0.0352  0.2597  0.1254
  233MOL   C10128405   1.186   2.571   2.963 -0.3791  0.0469  0.0699
  233MOL   H10228406   1.127   2.651   2.918 -1.9454  0.3004  2.4582
  233MOL   H10328407   1.112   2.531   3.032  0.8331 -0.4663  1.0896
  233MOL   C10428408   1.298   2.658   3.031 -0.1655  0.3975 -0.0679
  233MOL  Cl10528409   1.216   2.740   3.167  0.1928  0.1914 -0.6009
  233MOL  Cl10628410   1.335   2.778   2.911 -0.2219 -0.2279 -0.0178
  233MOL   C10728411   1.414   2.567   3.078 -0.8866 -0.0546  0.2258
  233MOL   H10828412   1.376   2.484   3.138  1.3567 -2.1626 -1.1503
  233MOL   H10928413   1.466   2.519   2.995  0.5403 -0.5723  1.3675
  233MOL   C11028414   1.529   2.632   3.172 -0.0859  0.3939 -0.5508
  233MOL  Cl11128415   1.472   2.676   3.343  0.3179 -0.3362 -0.0765
  233MOL  Cl11228416   1.585   2.785   3.109 -0.3761  0.0686  0.5158
  233MOL   C11328417   1.654   2.544   3.181  0.4020  0.0967  1.2773
  233MOL   H11428418   1.684   2.540   3.076  0.7807 -1.1073  1.4268
  233MOL   H11528419   1.736   2.591   3.236  0.8147 -0.3306  1.0345
  233MOL   C11628420   1.663   2.396   3.231 -0.2671 -0.8113 -0.4666
  233MOL  Cl11728421   1.821   2.332   3.192  0.5532  0.2309  0.1905
  233MOL  Cl11828422   1.532   2.288   3.178 -0.0229  0.1706  0.2616
  233MOL   C11928423   1.663   2.376   3.381  0.2372 -0.6402 -0.2296
  233MOL   H12028424   1.754   2.408   3.431  2.0899 -1.4061 -2.9720
  233MOL   H12128425   1.582   2.421   3.438  1.0559  0.1645  0.3217
  233MOL   H12228426   1.664   2.267   3.383  2.5428 -0.6164  1.7208
  234MOL     C128427   4.839   4.558   5.166  0.0082  0.4244 -0.2379
  234MOL    Cl228428   4.890   4.693   5.274  0.1709 -0.0148  0.2317
  234MOL    Cl328429   4.665   4.583   5.130  0.5744  0.1352 -0.3768
  234MOL     C428430   4.915   4.541   5.038  0.8437  0.4092 -0.0484
  234MOL     H528431   4.868   4.465   4.976 -0.6271  1.4402 -0.2275
  234MOL     H628432   4.918   4.641   4.994  0.7524  0.3998 -0.0752
  234MOL     H728433   4.853   4.483   5.245 -0.1881  1.2837  0.6136
  234MOL     C828434   5.061   4.496   5.043 -0.5042  0.4761  0.5458
  234MOL    Cl928435   5.116   4.473   4.878  0.0942  0.4199  0.3191
  234MOL   Cl1028436   5.060   4.337   5.119 -0.3649  0.2200  0.2869
  234MOL    C1128437   5.165   4.602   5.110  0.0488  0.0599  0.3016
  234MOL    H1228438   5.159   4.676   5.030 -0.6316 -0.6550 -0.3036
  234MOL    H1328439   5.116   4.644   5.198 -0.2517  0.7941 -0.2079
  234MOL    C1428440   5.313   4.567   5.144  0.6547  0.4656 -0.2401
  234MOL   Cl1528441   5.300   4.461   5.282 -0.1449  0.3177 -0.0113
  234MOL   Cl1628442   5.379   4.727   5.200 -0.1005  0.1064 -0.0562
  234MOL    C1728443   5.391   4.512   5.020 -0.2951  0.0996  0.6532
  234MOL    H1828444   5.335   4.430   4.975 -2.4943  0.8128  2.0212
  234MOL    H1928445   5.401   4.585   4.940  0.0526  0.3522  0.9238
  234MOL    C2028446   5.537   4.445   5.029  0.4302 -0.0986 -0.0651
  234MOL   Cl2128447   5.541   4.308   5.145 -0.0024 -0.0590 -0.2819
  234MOL   Cl2228448   5.640   4.564   5.108 -0.1777  0.3402  0.0552
  234MOL    C2328449   5.614   4.404   4.900  0.2896 -0.4845  0.2945
  234MOL    H2428450   5.643   4.501   4.860  2.8384 -1.4625 -0.3195
  234MOL    H2528451   5.702   4.350   4.935  1.2864  1.2824  0.5745
  234MOL    C2628452   5.547   4.321   4.784 -0.6987  0.0731  0.0074
  234MOL   Cl2728453   5.415   4.421   4.710 -0.1149 -0.0529  0.2126
  234MOL   Cl2828454   5.462   4.192   4.866  0.0948 -0.0642  0.2333
  234MOL    C2928455   5.641   4.267   4.664  0.7413 -0.0349  0.3300
  234MOL    H3028456   5.584   4.193   4.608 -1.6219  2.3190 -0.4590
  234MOL    H3128457   5.641   4.349   4.592  0.6870  1.4767  2.0079
  234MOL    C3228458   5.778   4.206   4.684  0.3824 -0.1358  0.3369
  234MOL   Cl3328459   5.760   4.078   4.801 -0.3217 -0.4079 -0.1299
  234MOL   Cl3428460   5.890   4.324   4.759 -0.2530  0.1118  0.7489
  234MOL    C3528461   5.843   4.128   4.571 -0.0250 -0.1886 -0.3477
  234MOL    H3628462   5.923   4.067   4.614  0.0193 -0.5769 -0.9769
  234MOL    H3728463   5.763   4.059   4.545 -1.8226  1.4317  0.8193
  234MOL    C3828464   5.893   4.187   4.431 -0.1241 -0.3419  0.3165
  234MOL   Cl3928465   5.742   4.270   4.362  0.1885 -0.6510  0.2476
  234MOL   Cl4028466   5.940   4.059   4.314  0.1448  0.2950 -0.1128
  234MOL    C4128467   6.004   4.295   4.442  0.2179  0.4195 -0.1868
  234MOL    H4228468   5.999   4.336   4.341 -0.2373 -1.7135 -1.0490
  234MOL    H4328469   5.973   4.379   4.504  2.5628 -0.2438  2.0053
  234MOL    C4428470   6.158   4.265   4.472 -0.3431  0.4232  0.2257
  234MOL   Cl4528471   6.239   4.225   4.320  0.2710 -0.3959 -0.1127
  234MOL   Cl4628472   6.167   4.128   4.585 -0.0193  0.1272  0.3763
  234MOL    C4728473   6.221   4.386   4.548  0.8937  0.2719 -0.4563
  234MOL    H4828474   6.172   4.387   4.646  1.0661  1.9097 -0.3653
  234MOL    H4928475   6.321   4.353   4.577  0.3055  0.3670  1.7992
  234MOL    C5028476   6.256   4.526   4.491 -0.9524 -0.0265 -0.1958
  234MOL   Cl5128477   6.131   4.583   4.388 -0.3201  0.2843  0.2520
  234MOL   Cl5228478   6.400   4.507   4.395 -0.0864  0.1109 -0.0850
  234MOL    C5328479   6.294   4.631   4.599 -0.5895  0.2040 -0.2097
  234MOL    H5428480   6.351   4.572   4.671  0.7565 -0.5191 -1.8029
  234MOL    H5528481   6.369   4.703   4.564 -0.1318  0.4255  1.2214
  234MOL    C5628482   6.177   4.710   4.665  0.3297  0.1384  0.5883
  234MOL   Cl5728483   6.030   4.609   4.706 -0.0134 -0.1143 -0.2979
  234MOL   Cl5828484   6.124   4.846   4.562 -0.0202  0.1213  0.2384
  234MOL    C5928485   6.221   4.779   4.793 -0.0135 -0.1836  0.3661
  234MOL    H6028486   6.286   4.862   4.765  1.6655 -1.3509  0.6886
  234MOL    H6128487   6.132   4.824   4.837  0.7605  1.8320 -0.0624
  234MOL    C6228488   6.293   4.697   4.902 -0.0214 -0.0095 -0.3376
  234MOL   Cl6328489   6.465   4.709   4.872 -0.4354 -0.1543  0.1575
  234MOL   Cl6428490   6.243   4.518   4.907  0.2152 -0.3294 -0.1112
  234MOL    C6528491   6.264   4.773   5.033  0.7697  0.9510 -0.2094
  234MOL    H6628492   6.313   4.871   5.030 -0.7847  1.7992  1.1653
  234MOL    H6728493   6.157   4.790   5.045  0.4396 -1.9910  1.2611
  234MOL    C6828494   6.292   4.688   5.172  0.1359  0.5209 -0.3730
  234MOL   Cl6928495   6.150   4.582   5.203  0.1446 -0.0823 -0.2072
  234MOL   Cl7028496   6.280   4.813   5.295  0.0978 -0.4622 -0.0080
  234MOL    C7128497   6.420   4.604   5.177  0.0215  0.1550 -0.3985
  234MOL    H7228498   6.411   4.518   5.110  1.7489 -0.6442  0.3537
  234MOL    H7328499   6.507   4.658   5.139 -0.1331  1.1491  0.6254
  234MOL    C7428500   6.481   4.552   5.313 -0.5968  0.4510 -0.0947
  234MOL   Cl7528501   6.354   4.495   5.434 -0.0716  0.3611 -0.1631
  234MOL   Cl7628502   6.574   4.680   5.380 -0.2435 -0.2248 -0.5193
  234MOL    C7728503   6.586   4.441   5.278 -0.1891 -0.1748 -0.8606
  234MOL    H7828504   6.527   4.364   5.228 -1.4020  0.0288  0.2487
  234MOL    H7928505   6.656   4.484   5.206  2.2798 -1.8573  0.4819
  234MOL    C8028506   6.677   4.362   5.371  0.0590 -0.0703 -0.4302
  234MOL   Cl8128507   6.749   4.242   5.266 -0.1606 -0.3832  0.1951
  234MOL   Cl8228508   6.575   4.265   5.479 -0.1129  0.4289  0.5700
  234MOL    C8328509   6.783   4.456   5.450  0.7330  0.5589  0.9047
  234MOL    H8428510   6.817   4.537   5.386  2.9708 -1.9966 -1.2655
  234MOL    H8528511   6.727   4.511   5.526  0.8449  1.5986  0.2298
  234MOL    C8628512   6.904   4.393   5.521  0.4646  0.3422 -0.3643
  234MOL   Cl8728513   7.007   4.315   5.403 -0.2615  0.3410 -0.1849
  234MOL   Cl8828514   6.856   4.269   5.649  0.1988  0.2165 -0.2542
  234MOL    C8928515   7.001   4.496   5.584  0.3764  0.9296  0.4891
  234MOL    H9028516   7.086   4.442   5.625  0.2064 -2.0495 -2.8515
  234MOL    H9128517   7.042   4.540   5.494  1.6394 -0.1557  0.5262
  234MOL    C9228518   6.960   4.604   5.688 -0.0805  0.4359 -0.0146
  234MOL   Cl9328519   6.868   4.540   5.824  0.5608  0.5170  0.1940
  234MOL   Cl9428520   6.857   4.726   5.611 -0.0460  0.2015  0.2310
  234MOL    C9528521   7.084   4.685   5.743 -0.2305  0.3693  0.0529
  234MOL    H9628522   7.130   4.750   5.669 -1.5563  1.0492 -0.1785
  234MOL    H9728523   7.042   4.738   5.828 -1.4202 -1.3081  0.5423
  234MOL    C9828524   7.216   4.606   5.794  0.2305 -0.3791  0.0490
  234MOL   Cl9928525   7.314   4.572   5.645 -0.5716 -0.1956  0.2544
  234MOL  Cl10028526   7.171   4.445   5.859 -0.0927 -0.3931  0.1626
  234MOL   C10128527   7.301   4.686   5.903 -0.2110  0.2943 -0.3327
  234MOL   H10228528   7.300   4.793   5.881 -1.1644  0.1938 -0.8085
  234MOL   H10328529   7.250   4.695   6.000  0.0664 -2.1551  0.0516
  234MOL   C10428530   7.450   4.647   5.932  0.4908  0.0459 -0.2717
  234MOL  Cl10528531   7.496   4.738   6.080 -0.0024  0.2503  0.4366
  234MOL  Cl10628532   7.560   4.698   5.796  0.3256  0.1480 -0.0608
  234MOL   C10728533   7.468   4.490   5.959  0.2454 -0.0554 -0.3064
  234MOL   H10828534   7.389   4.461   6.029  0.6780  0.0682  0.2277
  234MOL   H10928535   7.448   4.440   5.864  1.3842  3.1300 -2.3089
  234MOL   C11028536   7.597   4.433   6.022 -0.1269  0.1537  0.4019
  234MOL  Cl11128537   7.740   4.454   5.909  0.0399  0.4617  0.1110
  234MOL  Cl11228538   7.558   4.260   6.010 -0.1604 -0.3085  0.1796
  234MOL   C11328539   7.648   4.476   6.160 -0.1890  0.5021  0.3420
  234MOL   H11428540   7.747   4.432   6.170 -0.4470 -0.1531  0.0418
  234MOL   H11528541   7.676   4.581   6.159 -0.3107  0.5253 -0.4445
  234MOL   C11628542   7.586   4.433   6.294  0.7812  0.3880  1.0094
  234MOL  Cl11728543   7.577   4.249   6.310  0.2228  0.3406  0.0414
  234MOL  Cl11828544   7.424   4.505   6.309 -0.4436 -0.0313  0.0760
  234MOL   C11928545   7.662   4.476   6.424  0.6163 -0.4274  0.4827
  234MOL   H12028546   7.629   4.429   6.517 -0.2690  0.3226  0.5539
  234MOL   H12128547   7.767   4.449   6.422  0.9072  0.7893 -1.6156
  234MOL   H12228548   7.659   4.584   6.433 -2.1995 -0.4841  0.7118
  235MOL     C128549   0.230   5.396   6.957  0.6452  1.1728  0.0553
  235MOL    Cl228550   0.118   5.529   6.951  0.3329 -0.2557 -0.2140
  235MOL    Cl328551   0.158   5.253   6.880 -0.3340 -0.2906  0.0628
  235MOL     C428552   0.352   5.436   6.868  0.4064 -0.5536 -0.4254
  235MOL     H528553   0.310   5.421   6.769 -0.2733  1.1500 -0.4143
  235MOL     H628554   0.379   5.541   6.876  3.0856 -1.1198 -1.6732
  235MOL     H728555   0.245   5.383   7.065  0.5399 -0.7039 -0.1406
  235MOL     C828556   0.484   5.362   6.884 -0.3763  0.0218 -0.1688
  235MOL    Cl928557   0.481   5.189   6.839 -0.1603 -0.0828  0.0509
  235MOL   Cl1028558   0.534   5.362   7.057 -0.0415  0.2388  0.1708
  235MOL    C1128559   0.590   5.446   6.804 -0.1881  0.4147  0.8538
  235MOL    H1228560   0.529   5.457   6.715  0.5369  0.3055  0.3415
  235MOL    H1328561   0.590   5.550   6.839  0.2088  1.3014 -1.7192
  235MOL    C1428562   0.734   5.394   6.775  0.1305  0.2986  0.5074
  235MOL   Cl1528563   0.821   5.517   6.674  0.4077  0.6240 -0.2654
  235MOL   Cl1628564   0.732   5.243   6.673  0.0300 -0.2189  0.1325
  235MOL    C1728565   0.826   5.354   6.899  0.5309 -0.5376  0.1531
  235MOL    H1828566   0.755   5.285   6.943  0.6237 -1.6286 -1.3635
  235MOL    H1928567   0.910   5.298   6.858  0.6910  1.7709 -2.8757
  235MOL    C2028568   0.884   5.452   7.011 -0.3314  0.2099 -0.7541
  235MOL   Cl2128569   0.771   5.597   7.039  0.2102 -0.3118 -0.4576
  235MOL   Cl2228570   1.031   5.535   6.946  0.3367 -0.1780 -0.0775
  235MOL    C2328571   0.908   5.379   7.148 -0.0548 -0.3648 -1.0495
  235MOL    H2428572   0.816   5.342   7.192  1.2239 -0.6462  1.4887
  235MOL    H2528573   0.947   5.282   7.117  1.6681 -0.3405  0.8860
  235MOL    C2628574   0.999   5.438   7.262 -0.2280 -0.6100 -0.0814
  235MOL   Cl2728575   1.167   5.406   7.219 -0.1733 -0.0817 -0.4109
  235MOL   Cl2828576   0.975   5.333   7.405  0.4258  0.1324 -0.2130
  235MOL    C2928577   0.975   5.585   7.291  0.0327  0.2231  0.4725
  235MOL    H3028578   1.016   5.639   7.206 -2.0446  0.1404 -0.6054
  235MOL    H3128579   0.869   5.610   7.288  0.0095  0.1286  0.5093
  235MOL    C3228580   1.033   5.656   7.428  0.0592 -0.1826  0.0635
  235MOL   Cl3328581   1.021   5.837   7.403  0.3199 -0.0373 -0.2102
  235MOL   Cl3428582   1.209   5.632   7.438 -0.0148  0.3932 -0.3137
  235MOL    C3528583   0.974   5.618   7.558  0.7458  0.5436 -0.2453
  235MOL    H3628584   1.001   5.513   7.572  0.8677  0.3240 -1.9293
  235MOL    H3728585   1.022   5.676   7.636  2.7344 -0.1334 -0.9327
  235MOL    C3828586   0.821   5.636   7.593 -0.0075  0.4498 -0.1848
  235MOL   Cl3928587   0.706   5.539   7.486  0.0029 -0.2003  0.1120
  235MOL   Cl4028588   0.764   5.799   7.589 -0.0565 -0.1834  0.1844
  235MOL    C4128589   0.791   5.577   7.730  0.1418 -0.3846 -0.2319
  235MOL    H4228590   0.693   5.622   7.748 -0.1192 -0.7408 -0.7527
  235MOL    H4328591   0.796   5.469   7.716  0.6280 -0.2486 -1.1665
  235MOL    C4428592   0.874   5.616   7.860 -0.0044  0.2306 -0.1177
  235MOL   Cl4528593   0.932   5.782   7.850 -0.2871  0.1258  0.1490
  235MOL   Cl4628594   1.022   5.518   7.871  0.0209 -0.0579 -0.0681
  235MOL    C4728595   0.792   5.604   7.988  0.8755  0.2711 -0.6456
  235MOL    H4828596   0.868   5.623   8.064  1.1929  0.3786 -0.9896
  235MOL    H4928597   0.722   5.685   8.010  0.3120 -0.7876  1.6016
  235MOL    C5028598   0.743   5.462   8.037 -0.0526 -0.5426  0.8666
  235MOL   Cl5128599   0.875   5.339   8.081 -0.3076 -0.1273 -0.1266
  235MOL   Cl5228600   0.646   5.384   7.908 -0.2346  0.1037 -0.1948
  235MOL    C5328601   0.652   5.494   8.157  0.7122  0.0074  0.1804
  235MOL    H5428602   0.695   5.570   8.222  1.6877  0.6730 -1.2149
  235MOL    H5528603   0.560   5.534   8.115 -0.1711 -1.5673  0.5950
  235MOL    C5628604   0.606   5.379   8.253  0.6702 -0.8960  0.3552
  235MOL   Cl5728605   0.480   5.461   8.357  0.0055 -0.0292 -0.0921
  235MOL   Cl5828606   0.746   5.343   8.363  0.2718 -0.2082 -0.0082
  235MOL    C5928607   0.556   5.247   8.182 -1.0694 -0.2428 -0.0534
  235MOL    H6028608   0.494   5.274   8.097 -0.7327  1.2122  0.1367
  235MOL    H6128609   0.644   5.186   8.163 -2.0077 -0.8472 -2.6826
  235MOL    C6228610   0.472   5.140   8.262 -0.1776 -0.8925 -0.0224
  235MOL   Cl6328611   0.319   5.199   8.320 -0.3672 -0.3636 -0.1928
  235MOL   Cl6428612   0.553   5.091   8.410 -0.0793 -0.3618  0.1532
  235MOL    C6528613   0.443   5.015   8.174 -0.2207 -0.2039  0.0714
  235MOL    H6628614   0.366   4.952   8.219  0.6335 -1.7861 -0.6600
  235MOL    H6728615   0.388   5.059   8.090  0.0210  1.7036  0.8939
  235MOL    C6828616   0.553   4.917   8.102  0.3034 -0.1679 -0.4235
  235MOL   Cl6928617   0.654   4.833   8.221 -0.1611  0.3870 -0.1134
  235MOL   Cl7028618   0.660   5.002   7.985  0.0215  0.3724 -0.4931
  235MOL    C7128619   0.487   4.803   8.011 -0.2735 -0.2017 -0.2737
  235MOL    H7228620   0.458   4.855   7.920 -3.4305 -0.6570  0.4103
  235MOL    H7328621   0.578   4.751   7.983  0.5424  1.2194 -0.2678
  235MOL    C7428622   0.368   4.712   8.063  0.7718 -0.1648 -0.1613
  235MOL   Cl7528623   0.213   4.804   8.086 -0.4077  0.0894 -0.1323
  235MOL   Cl7628624   0.410   4.619   8.210  0.0238  0.1630  0.0042
  235MOL    C7728625   0.334   4.591   7.966  0.3707  0.2384 -0.6735
  235MOL    H7828626   0.422   4.527   7.976 -0.3803 -0.6713  0.3152
  235MOL    H7928627   0.248   4.533   8.000 -0.2406  1.2228 -0.5090
  235MOL    C8028628   0.322   4.608   7.813 -0.0968 -0.4206 -0.4119
  235MOL   Cl8128629   0.491   4.617   7.742 -0.3518 -0.0021 -0.1401
  235MOL   Cl8228630   0.234   4.757   7.760  0.2735 -0.0135  0.2869
  235MOL    C8328631   0.239   4.494   7.737  0.2628  0.6001 -0.2393
  235MOL    H8428632   0.135   4.488   7.769  1.0555  0.5370  2.4264
  235MOL    H8528633   0.247   4.516   7.630  0.0796 -1.1485 -0.6384
  235MOL    C8628634   0.277   4.341   7.746  0.7642  0.3808 -0.6643
  235MOL   Cl8728635   0.325   4.288   7.911 -0.1516 -0.1643  0.0218
  235MOL   Cl8828636   0.425   4.323   7.640 -0.3417 -0.2026  0.1174
  235MOL    C8928637   0.170   4.252   7.689  0.4553 -0.5696  0.6792
  235MOL    H9028638   0.067   4.285   7.700 -0.1808 -2.3688  0.3701
  235MOL    H9128639   0.196   4.261   7.584  0.0869  0.4669  0.6724
  235MOL    C9228640   0.175   4.097   7.725  0.3110 -0.1624 -0.0340
  235MOL   Cl9328641   0.100   4.075   7.887  0.0640  0.1137  0.3080
  235MOL   Cl9428642   0.343   4.033   7.723 -0.2348  0.1528 -0.1294
  235MOL    C9528643   0.094   4.010   7.625 -0.0432  0.1624  0.1696
  235MOL    H9628644   0.156   3.920   7.630 -0.4401 -0.0405  1.5125
  235MOL    H9728645   9.174   3.985   7.659 -0.0836 -0.4246 -0.3852
  235MOL    C9828646   0.071   4.050   7.480 -0.2570 -0.8098  0.3092
  235MOL   Cl9928647   0.234   4.081   7.405 -0.2239 -0.0294  0.1883
  235MOL  Cl10028648   9.152   4.195   7.478  0.5608 -0.0457 -0.0018
  235MOL   C10128649   9.175   3.935   7.409 -0.0877  0.3649  0.6584
  235MOL   H10228650   0.072   3.861   7.389  0.6381  1.0958  0.7565
  235MOL   H10328651   9.108   3.873   7.469  1.1897 -1.3418  0.3629
  235MOL   C10428652   9.089   3.952   7.282 -0.1299  0.1263 -0.5408
  235MOL  Cl10528653   9.172   4.066   7.168 -0.1042 -0.1724 -0.0282
  235MOL  Cl10628654   8.934   4.026   7.336 -0.2617  0.1016 -0.1172
  235MOL   C10728655   9.036   3.829   7.208 -0.4398 -0.1040 -0.1292
  235MOL   H10828656   8.949   3.788   7.260 -2.3042  1.0108 -2.3210
  235MOL   H10928657   9.000   3.867   7.113  1.2423  0.2154 -0.6445
  235MOL   C11028658   9.132   3.711   7.176  0.6528 -0.3714  0.6626
  235MOL  Cl11128659   0.005   3.619   7.329  0.1286 -0.0637  0.5765
  235MOL  Cl11228660   0.109   3.774   7.110  0.4767  0.1190  0.0778
  235MOL   C11328661   9.077   3.611   7.068  0.2930 -0.1806 -0.0966
  235MOL   H11428662   9.099   3.665   6.976 -2.6585  1.3167  0.0398
  235MOL   H11528663   9.142   3.523   7.071 -0.2183 -0.5692 -0.2075
  235MOL   C11628664   8.932   3.560   7.075  0.1743 -0.5256  0.6732
  235MOL  Cl11728665   8.904   3.452   6.939 -0.4074 -0.3386  0.4151
  235MOL  Cl11828666   8.817   3.691   7.047 -0.0419  0.2369 -0.1429
  235MOL   C11928667   8.895   3.477   7.199  0.1794  0.3819 -0.3629
  235MOL   H12028668   8.795   3.435   7.186  0.7310 -0.7222 -1.0871
  235MOL   H12128669   8.964   3.395   7.219  0.4894  0.9782  1.0544
  235MOL   H12228670   8.894   3.534   7.292 -2.3689  2.3085 -1.5235
  236MOL     C128671   4.651   7.844   1.379  1.0401 -0.3494 -0.5559
  236MOL    Cl228672   4.803   7.922   1.435 -0.0935 -0.6570  0.1584
  236MOL    Cl328673   4.543   7.974   1.298 -0.2211 -0.3953 -0.3045
  236MOL     C428674   4.676   7.732   1.280 -0.3434  0.3000 -0.4538
  236MOL     H528675   4.678   7.760   1.175 -0.1854  1.2235 -0.2068
  236MOL     H628676   4.773   7.685   1.297 -0.5687 -0.2128 -0.5739
  236MOL     H728677   4.603   7.819   1.474  0.6135 -1.0549 -0.9447
  236MOL     C828678   4.580   7.620   1.306  0.6748 -0.2255  0.3690
  236MOL    Cl928679   4.419   7.696   1.277 -0.1657  0.0329  0.3188
  236MOL   Cl1028680   4.589   7.552   1.468  0.0775 -0.2009 -0.0064
  236MOL    C1128681   4.591   7.503   1.202  0.3070 -0.1207 -0.7070
  236MOL    H1228682   4.508   7.433   1.214  0.0163  0.2966 -0.2683
  236MOL    H1328683   4.576   7.541   1.101 -0.5973  1.3229 -0.0449
  236MOL    C1428684   4.709   7.404   1.189 -0.0323 -0.3325  0.0073
  236MOL   Cl1528685   4.854   7.489   1.120  0.2387 -0.2056 -0.1173
  236MOL   Cl1628686   4.663   7.272   1.081 -0.0461  0.0943 -0.1556
  236MOL    C1728687   4.758   7.343   1.329  0.2114 -0.3899 -0.2875
  236MOL    H1828688   4.805   7.420   1.390 -0.2816 -0.6853  0.4752
  236MOL    H1928689   4.670   7.316   1.388 -0.4437 -1.2342 -1.6093
  236MOL    C2028690   4.853   7.220   1.326 -0.2088 -0.4440 -0.3515
  236MOL   Cl2128691   4.972   7.209   1.185 -0.2818  0.0484  0.1121
  236MOL   Cl2228692   4.749   7.077   1.315  0.3046  0.5867  0.0380
  236MOL    C2328693   4.944   7.216   1.452 -0.7154 -0.0912 -0.1746
  236MOL    H2428694   4.996   7.123   1.431 -1.0710 -0.3466  0.0712
  236MOL    H2528695   5.011   7.301   1.438  0.2139 -0.8315 -0.2243
  236MOL    C2628696   4.904   7.214   1.601  0.1047  0.5992  0.2195
  236MOL   Cl2728697   4.818   7.365   1.642  0.2778 -0.1823  0.1675
  236MOL   Cl2828698   5.059   7.213   1.682 -0.2800  0.0692  0.2963
  236MOL    C2928699   4.823   7.081   1.638  0.0810  0.1547 -0.0799
  236MOL    H3028700   4.725   7.082   1.592  0.7745  1.0418 -1.5824
  236MOL    H3128701   4.879   7.000   1.592 -0.5741  0.5657 -1.6380
  236MOL    C3228702   4.807   7.036   1.784 -0.3739 -0.2281 -0.2747
  236MOL   Cl3328703   4.753   7.170   1.890  0.2357 -0.1649 -0.3166
  236MOL   Cl3428704   4.966   6.978   1.853 -0.3131 -0.5489  0.0877
  236MOL    C3528705   4.708   6.915   1.810  0.4943  0.1655 -0.2649
  236MOL    H3628706   4.761   6.833   1.762  1.1392  2.0796 -2.9804
  236MOL    H3728707   4.705   6.913   1.919 -1.4084  0.5930 -0.2934
  236MOL    C3828708   4.568   6.905   1.752  0.1615  0.1854 -0.0797
  236MOL   Cl3928709   4.567   6.875   1.571  0.0102  0.2488 -0.2179
  236MOL   Cl4028710   4.496   7.071   1.776 -0.2421 -0.0919  0.3295
  236MOL    C4128711   4.491   6.778   1.830  0.4697  0.2591  0.8290
  236MOL    H4228712   4.538   6.683   1.808  0.9970  1.1730 -2.2049
  236MOL    H4328713   4.501   6.794   1.938  1.1242 -0.9985  0.9543
  236MOL    C4428714   4.338   6.753   1.801  0.6165  0.3293 -0.4616
  236MOL   Cl4528715   4.295   6.750   1.625 -0.2669  0.1286 -0.1470
  236MOL   Cl4628716   4.239   6.881   1.874  0.4432 -0.2369 -0.2959
  236MOL    C4728717   4.295   6.609   1.851  0.8911 -0.5549 -0.5616
  236MOL    H4828718   4.190   6.605   1.824  0.9123 -1.0243 -0.5925
  236MOL    H4928719   4.360   6.552   1.785 -0.4265 -4.2579  1.1813
  236MOL    C5028720   4.307   6.563   1.997 -0.3883  0.1703  1.0699
  236MOL   Cl5128721   4.201   6.666   2.103  0.3644  0.2074 -0.3058
  236MOL   Cl5228722   4.471   6.547   2.075 -0.1794  0.0002 -0.0772
  236MOL    C5328723   4.233   6.429   2.016 -0.3700  0.7088 -0.0096
  236MOL    H5428724   4.239   6.401   2.121 -0.0155  0.5638 -0.0708
  236MOL    H5528725   4.125   6.445   2.004 -0.6404 -2.2848 -1.8736
  236MOL    C5628726   4.276   6.312   1.923  0.4860  0.6927 -0.0378
  236MOL   Cl5728727   4.447   6.305   1.874 -0.1130  0.3939  0.8187
  236MOL   Cl5828728   4.175   6.331   1.773  0.1516 -0.2334  0.0619
  236MOL    C5928729   4.228   6.172   1.985 -0.5389  0.1191  0.8702
  236MOL    H6028730   4.136   6.195   2.039 -1.3348 -2.6945  0.7801
  236MOL    H6128731   4.193   6.101   1.911  0.1609  0.3927  0.2788
  236MOL    C6228732   4.306   6.079   2.090 -0.2413 -0.3417 -0.5898
  236MOL   Cl6328733   4.183   5.965   2.172 -0.1077 -0.3258 -0.0164
  236MOL   Cl6428734   4.369   6.180   2.219  0.4135 -0.1152 -0.3518
  236MOL    C6528735   4.430   6.004   2.037 -0.2578  0.4836 -0.0284
  236MOL    H6628736   4.509   6.076   2.016 -1.0408  1.0173 -1.1942
  236MOL    H6728737   4.453   5.931   2.115 -0.1469  0.8878  0.3186
  236MOL    C6828738   4.429   5.902   1.917  0.2280  0.1138  0.4547
  236MOL   Cl6928739   4.599   5.840   1.906 -0.1045 -0.2978 -0.2464
  236MOL   Cl7028740   4.399   5.984   1.757 -0.0586  0.3653  0.1615
  236MOL    C7128741   4.325   5.787   1.933  0.3807  0.0906  0.3927
  236MOL    H7228742   4.315   5.758   2.038  2.1784  2.0879  1.1481
  236MOL    H7328743   4.226   5.831   1.921 -0.6928 -2.3212 -0.1062
  236MOL    C7428744   4.329   5.659   1.847  0.3186  0.4110  0.0902
  236MOL   Cl7528745   4.469   5.559   1.893  0.2008 -0.1001  0.1928
  236MOL   Cl7628746   4.339   5.694   1.671  0.4957  0.0703 -0.0969
  236MOL    C7728747   4.198   5.568   1.848 -0.3392  0.0862  0.3140
  236MOL    H7828748   4.216   5.506   1.760  0.3128  0.3526  0.2560
  236MOL    H7928749   4.217   5.508   1.937 -2.5667 -2.6715 -0.9887
  236MOL    C8028750   4.051   5.617   1.840  0.2533  0.2658 -0.4014
  236MOL   Cl8128751   4.031   5.741   1.718 -0.0381 -0.4408  0.2517
  236MOL   Cl8228752   4.011   5.693   1.998 -0.1171  0.1736  0.2191
  236MOL    C8328753   3.933   5.515   1.822 -0.1219 -0.1560  0.0217
  236MOL    H8428754   3.919   5.466   1.918 -0.4453 -1.8535 -0.8848
  236MOL    H8528755   3.842   5.573   1.808  0.4766  0.7855 -0.0141
  236MOL    C8628756   3.927   5.410   1.707  0.1857 -0.5924  0.1155
  236MOL   Cl8728757   4.041   5.271   1.730  0.1160  0.4102  0.1092
  236MOL   Cl8828758   3.963   5.489   1.555  0.1944  0.2149 -0.0715
  236MOL    C8928759   3.785   5.343   1.697  0.2570 -0.0433  0.4422
  236MOL    H9028760   3.712   5.409   1.649  0.8725  0.8289  0.6857
  236MOL    H9128761   3.787   5.260   1.627 -1.2838 -0.8405  1.3243
  236MOL    C9228762   3.710   5.288   1.829  0.4150  0.3776  0.4765
  236MOL   Cl9328763   3.668   5.431   1.939 -0.0380  0.0084  0.1704
  236MOL   Cl9428764   3.811   5.183   1.924 -0.0054  0.0623  0.0642
  236MOL    C9528765   3.578   5.214   1.796 -0.2298 -0.2053  0.1592
  236MOL    H9628766   3.536   5.199   1.895 -0.2134  1.3263  0.4083
  236MOL    H9728767   3.516   5.294   1.756  0.6510 -0.1567 -1.1262
  236MOL    C9828768   3.564   5.079   1.714  0.5315 -0.6012  0.6739
  236MOL   Cl9928769   3.602   5.110   1.544 -0.0188 -0.4395 -0.0674
  236MOL  Cl10028770   3.387   5.030   1.712 -0.3927  0.2095  0.1801
  236MOL   C10128771   3.639   4.954   1.783 -0.5334  0.0925  0.0872
  236MOL   H10228772   3.745   4.972   1.763  0.3098 -0.6340  3.5869
  236MOL   H10328773   3.625   4.965   1.891  1.9393 -1.5858  0.6226
  236MOL   C10428774   3.623   4.808   1.714 -0.9868 -0.8236  0.1565
  236MOL  Cl10528775   3.755   4.704   1.784 -0.1054 -0.0394  0.0766
  236MOL  Cl10628776   3.648   4.810   1.540  0.2110  0.1079  0.1580
  236MOL   C10728777   3.489   4.727   1.738  0.3475 -0.6248  0.0207
  236MOL   H10828778   3.413   4.768   1.671 -1.5787 -4.1205 -0.0938
  236MOL   H10928779   3.518   4.630   1.697 -0.3881 -0.0869 -1.8356
  236MOL   C11028780   3.427   4.697   1.880  0.5835 -0.6006 -0.3717
  236MOL  Cl11128781   3.407   4.847   1.978 -0.1615  0.1977  0.2057
  236MOL  Cl11228782   3.519   4.579   1.977 -0.2518 -0.1412 -0.3853
  236MOL   C11328783   3.285   4.638   1.867  0.3531  0.3675  0.6767
  236MOL   H11428784   3.259   4.620   1.971 -0.5415  1.4118  0.6449
  236MOL   H11528785   3.217   4.710   1.822 -0.9589 -2.7181 -2.5766
  236MOL   C11628786   3.258   4.509   1.782 -0.6882 -0.1497 -0.1511
  236MOL  Cl11728787   3.274   4.548   1.612 -0.0265 -0.2580  0.1764
  236MOL  Cl11828788   3.097   4.455   1.820 -0.0955 -0.1762  0.0132
  236MOL   C11928789   3.343   4.393   1.810 -0.1497 -0.8012 -0.1778
  236MOL   H12028790   3.307   4.305   1.756  0.3867 -0.1301 -1.6520
  236MOL   H12128791   3.443   4.414   1.772 -0.6031 -0.9374 -1.4626
  236MOL   H12228792   3.350   4.373   1.917  0.7432  1.0146  0.1284
  237MOL     C128793   5.954   6.328   3.539  0.3950  0.2116  0.0914
  237MOL    Cl228794   5.945   6.283   3.705  0.1292  0.2430  0.3197
  237MOL    Cl328795   6.095   6.248   3.468  0.0514 -0.1967 -0.1640
  237MOL     C428796   5.818   6.307   3.464 -0.2047  0.9523 -0.5324
  237MOL     H528797   5.848   6.295   3.360  2.6997 -0.4381  0.4173
  237MOL     H628798   5.783   6.208   3.490  2.7761 -0.0112  0.0436
  237MOL     H728799   5.983   6.433   3.539 -0.5353  0.5195 -2.6764
  237MOL     C828800   5.715   6.425   3.472 -0.1436 -0.4028  0.2865
  237MOL    Cl928801   5.785   6.572   3.399  0.1179 -0.1982  0.3109
  237MOL   Cl1028802   5.683   6.448   3.642  0.0240 -0.0482  0.1318
  237MOL    C1128803   5.574   6.399   3.403 -0.1466  0.0746 -0.1151
  237MOL    H1228804   5.596   6.367   3.301  0.4204  1.0899 -0.3226
  237MOL    H1328805   5.534   6.313   3.457  2.5936  0.0141  1.9335
  237MOL    C1428806   5.457   6.510   3.396 -0.2737 -0.8419  0.8932
  237MOL   Cl1528807   5.495   6.667   3.318 -0.2623 -0.2101 -0.2362
  237MOL   Cl1628808   5.404   6.547   3.565  0.2232  0.3273  0.1597
  237MOL    C1728809   5.340   6.446   3.318 -0.2667 -0.5221  0.3469
  237MOL    H1828810   5.376   6.440   3.216 -1.2343 -1.1327  0.0310
  237MOL    H1928811   5.333   6.340   3.345 -1.5197 -0.1760  1.4342
  237MOL    C2028812   5.196   6.502   3.296  0.0345 -0.8425 -0.4290
  237MOL   Cl2128813   5.116   6.492   3.456 -0.2461 -0.3076  0.2946
  237MOL   Cl2228814   5.122   6.380   3.198 -0.0773  0.4496 -0.0336
  237MOL    C2328815   5.183   6.640   3.238  0.7925  0.0086  0.0818
  237MOL    H2428816   5.245   6.713   3.290  1.1967  0.3353 -0.8460
  237MOL    H2528817   5.218   6.643   3.135  0.6514 -0.6550  0.0092
  237MOL    C2628818   5.046   6.713   3.241 -0.5513  0.4085  0.8216
  237MOL   Cl2728819   5.056   6.832   3.102 -0.1080  0.4596 -0.0306
  237MOL   Cl2828820   5.033   6.815   3.388  0.5669  0.2606 -0.1287
  237MOL    C2928821   4.921   6.621   3.225  0.4662 -0.2941  0.8621
  237MOL    H3028822   4.931   6.584   3.123  1.0520  1.0378  0.4277
  237MOL    H3128823   4.913   6.529   3.283  0.0288 -1.8652 -1.6218
  237MOL    C3228824   4.774   6.680   3.239 -0.5780 -0.0136  0.1669
  237MOL   Cl3328825   4.732   6.699   3.411 -0.2514  0.0090  0.0936
  237MOL   Cl3428826   4.674   6.553   3.168  0.1783  0.1152  0.3006
  237MOL    C3528827   4.740   6.809   3.160  0.7331 -0.2186 -1.0133
  237MOL    H3628828   4.796   6.889   3.208  0.5545 -0.4339 -0.4426
  237MOL    H3728829   4.792   6.797   3.065  0.8208 -2.2552 -0.7389
  237MOL    C3828830   4.594   6.866   3.128 -0.1745  0.8501 -0.1496
  237MOL   Cl3928831   4.536   6.770   2.984 -0.3547 -0.3777 -0.8738
  237MOL   Cl4028832   4.635   7.035   3.074  0.2125 -0.1084  0.0979
  237MOL    C4128833   4.491   6.863   3.242 -0.2574  0.2810  0.3340
  237MOL    H4228834   4.507   6.763   3.284 -0.3164  0.4365  0.7275
  237MOL    H4328835   4.524   6.936   3.316  1.4418  0.7047 -0.8080
  237MOL    C4428836   4.340   6.873   3.210 -1.2526 -0.1997  0.0561
  237MOL   Cl4528837   4.275   6.903   3.371  0.0105  0.1339  0.3880
  237MOL   Cl4628838   4.278   6.717   3.168 -0.0048 -0.1561 -0.2022
  237MOL    C4728839   4.297   6.980   3.113  0.2485 -0.0565  0.3265
  237MOL    H4828840   4.339   7.076   3.143  1.0017 -0.2193 -0.2050
  237MOL    H4928841   4.363   6.970   3.027  0.8490  1.0222  0.6580
  237MOL    C5028842   4.157   6.988   3.044 -0.1416  0.5442  0.0254
  237MOL   Cl5128843   4.123   6.840   2.937  0.1629 -0.2202 -0.4447
  237MOL   Cl5228844   4.156   7.118   2.928  0.0981 -0.2419 -0.2148
  237MOL    C5328845   4.036   6.992   3.139  0.1611 -0.7519 -0.8211
  237MOL    H5428846   3.947   6.975   3.078  0.1389  1.8967 -1.5889
  237MOL    H5528847   4.051   6.910   3.209 -1.7822 -1.0755 -0.7581
  237MOL    C5628848   3.998   7.129   3.202 -0.0865 -0.1663  0.5917
  237MOL   Cl5728849   3.934   7.243   3.085  0.2146 -0.2258  0.0749
  237MOL   Cl5828850   4.134   7.197   3.291 -0.0442 -0.3741  0.0325
  237MOL    C5928851   3.895   7.108   3.324 -0.6038 -0.2328 -0.0305
  237MOL    H6028852   3.943   7.038   3.393 -0.3427  0.7207  0.7710
  237MOL    H6128853   3.891   7.204   3.375 -2.1176  0.6230 -1.7205
  237MOL    C6228854   3.751   7.054   3.318 -0.2140 -0.9439 -0.0164
  237MOL   Cl6328855   3.751   6.888   3.251 -0.1332  0.1981 -0.3182
  237MOL   Cl6428856   3.658   7.161   3.206  0.3255 -0.0216  0.0361
  237MOL    C6528857   3.681   7.044   3.455  0.4479  0.0079 -0.3953
  237MOL    H6628858   3.579   7.036   3.417 -0.1061  3.7603  0.0390
  237MOL    H6728859   3.710   6.949   3.500  0.0443  1.2298  2.5870
  237MOL    C6828860   3.686   7.150   3.563 -0.0927  0.3726  0.3173
  237MOL   Cl6928861   3.650   7.309   3.499  0.5416 -0.1088 -0.1117
  237MOL   Cl7028862   3.842   7.162   3.651 -0.2570 -0.4608 -0.2254
  237MOL    C7128863   3.558   7.134   3.660 -0.6611  0.4942  0.2973
  237MOL    H7228864   3.552   7.220   3.726 -1.3770  1.6033 -1.1966
  237MOL    H7328865   3.466   7.146   3.602  0.2519 -1.4307 -1.6409
  237MOL    C7428866   3.541   7.001   3.723  0.2296  0.1896  0.5541
  237MOL   Cl7528867   3.469   6.885   3.604 -0.6494  0.0100 -0.3777
  237MOL   Cl7628868   3.424   7.028   3.847  0.1000  0.1862  0.1264
  237MOL    C7728869   3.666   6.930   3.787 -0.5165 -0.3117  0.4384
  237MOL    H7828870   3.645   6.823   3.793 -1.0577 -0.2944 -0.8232
  237MOL    H7928871   3.744   6.929   3.711  1.6556 -0.0522  2.6100
  237MOL    C8028872   3.718   6.982   3.929 -0.3537 -0.2217  0.2115
  237MOL   Cl8128873   3.616   6.893   4.047 -0.0280  0.6386 -0.0694
  237MOL   Cl8228874   3.704   7.162   3.944  0.1068 -0.0845  0.4629
  237MOL    C8328875   3.875   6.931   3.949  0.3025 -1.0056  0.3621
  237MOL    H8428876   3.867   6.825   3.926 -2.4335 -0.7761  0.0985
  237MOL    H8528877   3.932   6.971   3.865 -1.0051  0.4054  0.1194
  237MOL    C8628878   3.960   6.955   4.080  0.1004  0.3916 -0.6564
  237MOL   Cl8728879   3.998   7.131   4.096  0.3150 -0.5919  0.1466
  237MOL   Cl8828880   4.109   6.866   4.055 -0.2097 -0.2259 -0.2814
  237MOL    C8928881   3.883   6.894   4.200  0.4303  0.4648  0.1103
  237MOL    H9028882   3.791   6.948   4.225  0.2464 -0.4687  1.4991
  237MOL    H9128883   3.843   6.802   4.158 -1.0749  0.9125  0.5250
  237MOL    C9228884   3.958   6.860   4.329  0.3256 -0.5765 -0.7178
  237MOL   Cl9328885   4.077   6.993   4.361  0.2245 -0.3437  0.1885
  237MOL   Cl9428886   4.042   6.706   4.309  0.0928 -0.0292  0.0634
  237MOL    C9528887   3.863   6.869   4.456 -0.0923 -0.2100 -0.1391
  237MOL    H9628888   3.930   6.856   4.541 -0.0818  0.6924  0.0061
  237MOL    H9728889   3.819   6.969   4.456  0.5430  0.0728 -0.7570
  237MOL    C9828890   3.758   6.769   4.494 -0.2133  0.0460  0.5507
  237MOL   Cl9928891   3.828   6.611   4.527 -0.2861 -0.1389  0.2263
  237MOL  Cl10028892   3.648   6.736   4.355  0.1858 -0.3764  0.4611
  237MOL   C10128893   3.668   6.812   4.611 -0.1334  0.4197 -0.4798
  237MOL   H10228894   3.617   6.901   4.575 -0.3772  0.1972 -0.6854
  237MOL   H10328895   3.589   6.738   4.621 -0.3706  0.1427 -3.8244
  237MOL   C10428896   3.728   6.851   4.748 -0.4208  0.0850 -0.1134
  237MOL  Cl10528897   3.823   7.002   4.733 -0.2358 -0.3093 -0.4732
  237MOL  Cl10628898   3.841   6.727   4.804 -0.0159  0.1823  0.2149
  237MOL   C10728899   3.613   6.872   4.857 -0.0679  0.2639  0.4481
  237MOL   H10828900   3.574   6.776   4.889  2.4174 -1.6558 -2.0078
  237MOL   H10928901   3.670   6.908   4.943  2.1459 -1.0629 -0.4165
  237MOL   C11028902   3.490   6.963   4.831 -0.2598 -0.3944 -0.2833
  237MOL  Cl11128903   3.378   6.886   4.717  0.2953 -0.3644  0.2320
  237MOL  Cl11228904   3.542   7.115   4.741 -0.0538 -0.5148  0.2295
  237MOL   C11328905   3.407   7.014   4.946  0.5122  0.1258  0.1463
  237MOL   H11428906   3.466   7.093   4.993  0.3821 -1.1690  2.5655
  237MOL   H11528907   3.319   7.067   4.908  0.3251  1.6322  2.5092
  237MOL   C11628908   3.357   6.920   5.059 -0.2474  0.1659 -0.1576
  237MOL  Cl11728909   3.485   6.823   5.143 -0.3046 -0.0360 -0.3211
  237MOL  Cl11828910   3.236   6.808   4.988 -0.1823  0.2611 -0.1360
  237MOL   C11928911   3.290   6.987   5.182  0.0336 -0.7976 -0.5837
  237MOL   H12028912   3.200   7.033   5.140  0.5067  1.6233  0.9392
  237MOL   H12128913   3.260   6.923   5.265 -0.4015 -0.6255 -0.6012
  237MOL   H12228914   3.345   7.068   5.231  1.1429 -2.1342  0.4077
  238MOL     C128915   0.269   7.138   0.862  0.0801  0.1659  0.4102
  238MOL    Cl228916   0.405   7.071   0.953  0.1055 -0.0947 -0.2154
  238MOL    Cl328917   0.118   7.082   0.943 -0.2772  0.4519 -0.4572
  238MOL     C428918   0.283   7.293   0.862 -0.1495 -0.1899 -0.0777
  238MOL     H528919   0.260   7.324   0.964  0.3176  1.8796 -0.5762
  238MOL     H628920   0.392   7.301   0.863  0.2683 -4.5472 -1.2660
  238MOL     H728921   0.274   7.104   0.758  3.8109  1.0636  0.2483
  238MOL     C828922   0.224   7.378   0.741 -0.0536 -0.2139  0.0060
  238MOL    Cl928923   0.047   7.353   0.754 -0.4843  0.5182 -0.3229
  238MOL   Cl1028924   0.273   7.310   0.582  0.1341 -0.2180  0.4278
  238MOL    C1128925   0.246   7.533   0.759  0.1069  0.6189  0.2786
  238MOL    H1228926   0.152   7.577   0.726 -1.1687 -2.4644 -0.3343
  238MOL    H1328927   0.245   7.563   0.864 -0.2738  1.4288  0.0464
  238MOL    C1428928   0.370   7.608   0.704  0.3893  0.7988 -0.5439
  238MOL   Cl1528929   0.368   7.767   0.786  0.2653 -0.0328  0.1622
  238MOL   Cl1628930   0.334   7.634   0.527 -0.3342  0.1655 -0.0808
  238MOL    C1728931   0.514   7.537   0.740 -0.4941  0.3309  1.3704
  238MOL    H1828932   0.528   7.564   0.845  0.5831  2.2656  0.7672
  238MOL    H1928933   0.513   7.428   0.734 -0.9699  0.2171  3.3096
  238MOL    C2028934   0.644   7.581   0.670  0.1239  0.3195 -0.1817
  238MOL   Cl2128935   0.632   7.524   0.504 -0.2153 -0.0160  0.4647
  238MOL   Cl2228936   0.776   7.490   0.745 -0.3678  0.0564  0.2731
  238MOL    C2328937   0.663   7.742   0.670 -0.8810 -0.4909 -0.5929
  238MOL    H2428938   0.593   7.780   0.596 -0.1943 -0.5074 -1.2602
  238MOL    H2528939   0.627   7.775   0.767  1.5985  0.0839  0.1780
  238MOL    C2628940   0.804   7.817   0.650 -0.3629  0.7769 -0.0004
  238MOL   Cl2728941   0.765   7.993   0.613  0.3162 -0.1408 -0.2759
  238MOL   Cl2828942   0.873   7.752   0.500  0.7543 -0.4063  0.1506
  238MOL    C2928943   0.924   7.810   0.756 -0.4384 -0.5684  0.3761
  238MOL    H3028944   0.980   7.716   0.753  3.2190  1.5562  0.0349
  238MOL    H3128945   0.996   7.884   0.721 -1.5089 -0.2183 -1.1221
  238MOL    C3228946   0.894   7.850   0.904 -0.0680 -0.4036  0.4296
  238MOL   Cl3328947   0.781   7.726   0.979 -0.1248  0.1895  0.0184
  238MOL   Cl3428948   0.819   8.018   0.908  0.1600  0.4174  0.1787
  238MOL    C3528949   1.022   7.851   0.995 -0.2268 -0.4922 -0.0814
  238MOL    H3628950   1.076   7.945   0.981  2.2753 -1.8231  0.3250
  238MOL    H3728951   0.978   7.841   1.094  0.9178  1.8812  0.7019
  238MOL    C3828952   1.143   7.750   0.981  0.5920 -0.0314  0.4566
  238MOL   Cl3928953   1.227   7.815   0.841 -0.3265  0.0815  0.2688
  238MOL   Cl4028954   1.087   7.589   0.949 -0.0620 -0.1456  0.1992
  238MOL    C4128955   1.240   7.755   1.101 -0.5807  0.0933  0.0568
  238MOL    H4228956   1.264   7.859   1.126 -1.7098 -0.0868  2.0153
  238MOL    H4328957   1.168   7.731   1.179 -1.6445 -0.1889 -1.0091
  238MOL    C4428958   1.372   7.668   1.117 -0.3135  0.2604 -0.3847
  238MOL   Cl4528959   1.328   7.491   1.120 -0.4401  0.1492  0.1161
  238MOL   Cl4628960   1.438   7.705   1.275 -0.4449  0.2897  0.3508
  238MOL    C4728961   1.476   7.687   1.001 -0.3077  0.8561 -0.5566
  238MOL    H4828962   1.438   7.621   0.923  1.6078 -1.5449  0.4646
  238MOL    H4928963   1.467   7.788   0.962  0.8575  0.5496 -1.6372
  238MOL    C5028964   1.631   7.668   1.029  0.0225 -0.3662  0.3270
  238MOL   Cl5128965   1.653   7.517   1.118  0.1331  0.4645  0.1382
  238MOL   Cl5228966   1.697   7.790   1.147  0.2642 -0.0099 -0.4862
  238MOL    C5328967   1.722   7.663   0.895  0.1468  0.0600 -0.0551
  238MOL    H5428968   1.819   7.623   0.922  0.3636 -0.2599 -1.2796
  238MOL    H5528969   1.675   7.588   0.831 -1.4284 -0.6124  1.8355
  238MOL    C5628970   1.748   7.786   0.806 -0.9798 -0.4185 -0.1086
  238MOL   Cl5728971   1.838   7.914   0.891  0.0913 -0.2088 -0.4172
  238MOL   Cl5828972   1.593   7.844   0.747  0.5527  0.3705 -0.4914
  238MOL    C5928973   1.847   7.753   0.691 -0.4319  0.0444 -0.0368
  238MOL    H6028974   1.901   7.844   0.665 -0.0504 -0.3257 -0.5548
  238MOL    H6128975   1.921   7.686   0.735  0.2217 -0.0644 -1.2883
  238MOL    C6228976   1.800   7.693   0.552 -0.7692 -0.3063 -0.2474
  238MOL   Cl6328977   1.708   7.812   0.457 -0.1802  0.2825  0.0868
  238MOL   Cl6428978   1.695   7.547   0.573  0.0075  0.2159 -0.1385
  238MOL    C6528979   1.918   7.629   0.461  0.5623 -0.6175 -0.2900
  238MOL    H6628980   1.934   7.536   0.515 -0.3463 -0.8930 -0.4925
  238MOL    H6728981   1.877   7.608   0.362 -1.2208 -2.8319  0.8936
  238MOL    C6828982   2.068   7.685   0.456  0.2925 -0.1035  0.3621
  238MOL   Cl6928983   2.155   7.661   0.600  0.3314 -0.1491 -0.0282
  238MOL   Cl7028984   2.072   7.863   0.422 -0.1100  0.1450  0.4319
  238MOL    C7128985   2.145   7.625   0.336 -0.1546  0.2254  0.3993
  238MOL    H7228986   2.129   7.689   0.249 -0.2795 -0.3145  0.0258
  238MOL    H7328987   2.249   7.651   0.355  0.0574 -0.5519  0.3185
  238MOL    C7428988   2.142   7.471   0.301  0.5161  0.3703  0.3944
  238MOL   Cl7528989   1.995   7.430   0.214 -0.3295  0.1108  0.1018
  238MOL   Cl7628990   2.148   7.370   0.451  0.2800 -0.5262  0.4053
  238MOL    C7728991   2.260   7.418   0.212 -0.1544  0.3494  0.3015
  238MOL    H7828992   2.353   7.433   0.267 -0.0978  1.3365 -0.0452
  238MOL    H7928993   2.237   7.312   0.213  1.9805 -0.1743 -1.0916
  238MOL    C8028994   2.290   7.460   0.068 -1.2422  0.4578 -0.0505
  238MOL   Cl8128995   2.445   7.371   0.046  0.1240  0.1140 -0.2089
  238MOL   Cl8228996   2.333   7.630   0.074  0.0955  0.1575 -0.7010
  238MOL    C8328997   2.180   7.427   9.139  0.4723  0.6177 -0.2409
  238MOL    H8428998   2.129   7.335   9.168  0.4333  0.8403  0.3840
  238MOL    H8528999   2.107   7.506   9.158  0.7158  0.9532 -0.6942
  238MOL    C8629000   2.217   7.426   8.988 -0.1429 -0.4561 -0.6565
  238MOL   Cl8729001   2.071   7.439   8.888 -0.0829 -0.1925  0.0241
  238MOL   Cl8829002   2.292   7.265   8.957 -0.1807  0.0526 -0.0104
  238MOL    C8929003   2.319   7.537   8.952  0.0013  0.1192 -1.0261
  238MOL    H9029004   2.288   7.634   8.992  2.1314 -0.6094  2.7020
  238MOL    H9129005   2.415   7.518   9.001 -1.2964 -0.7504  1.2781
  238MOL    C9229006   2.364   7.573   8.802  0.5950  0.9442 -0.1367
  238MOL   Cl9329007   2.439   7.424   8.723  0.3930 -0.3549  0.3005
  238MOL   Cl9429008   2.493   7.696   8.814 -0.0585  0.0084 -0.6269
  238MOL    C9529009   2.260   7.629   8.706  0.3022 -0.2989 -0.1098
  238MOL    H9629010   2.197   7.543   8.684  2.3298 -1.0571 -3.2224
  238MOL    H9729011   2.203   7.707   8.757  2.3326  1.6676 -0.7335
  238MOL    C9829012   2.280   7.699   8.569  0.0345 -0.1345  0.5679
  238MOL   Cl9929013   2.333   7.870   8.585 -0.1765  0.0120 -0.5007
  238MOL  Cl10029014   2.112   7.697   8.505 -0.0419  0.3693  0.4001
  238MOL   C10129015   2.374   7.624   8.465  0.5904  0.0407 -0.2878
  238MOL   H10229016   2.475   7.617   8.505  0.6263  1.6876 -0.0536
  238MOL   H10329017   2.336   7.522   8.468 -0.8127  0.5762  0.8729
  238MOL   C10429018   2.408   7.685   8.321  0.1131  0.4837 -0.9204
  238MOL  Cl10529019   2.533   7.806   8.328  0.2519 -0.3754  0.4213
  238MOL  Cl10629020   2.269   7.764   8.239  0.2618 -0.2354 -0.1930
  238MOL   C10729021   2.456   7.577   8.217 -0.2684  0.9108  0.2054
  238MOL   H10829022   2.370   7.511   8.204 -0.4902  1.2317  0.0542
  238MOL   H10929023   2.471   7.626   8.121  0.7543  1.0516  0.4384
  238MOL   C11029024   2.579   7.488   8.245  0.0990  0.2365 -0.2130
  238MOL  Cl11129025   2.556   7.381   8.387 -0.2590  0.0833 -0.5129
  238MOL  Cl11229026   2.729   7.588   8.271  0.3568 -0.2007  0.4584
  238MOL   C11329027   2.617   7.391   8.124 -0.4396 -0.0966 -0.5303
  238MOL   H11429028   2.717   7.351   8.143  0.1680  1.0480 -1.1963
  238MOL   H11529029   2.543   7.312   8.123  0.4612 -1.0551  2.2828
  238MOL   C11629030   2.615   7.437   7.972  0.3653 -0.5944 -0.0465
  238MOL  Cl11729031   2.709   7.592   7.936 -0.5259 -0.4428 -0.0430
  238MOL  Cl11829032   2.438   7.469   7.928  0.0049 -0.1183 -0.3053
  238MOL   C11929033   2.678   7.325   7.883  0.2912 -0.6182 -0.2286
  238MOL   H12029034   2.706   7.356   7.783 -0.6379 -1.4572 -0.7509
  238MOL   H12129035   2.769   7.280   7.925  1.7540  0.3048 -2.3647
  238MOL   H12229036   2.598   7.253   7.867 -1.3841  0.9695  0.9047
  239MOL     C129037   1.956   1.248   0.188 -0.5446 -0.2667  0.0442
  239MOL    Cl229038   1.789   1.297   0.158  0.1527  0.2712 -0.0863
  239MOL    Cl329039   2.046   1.227   0.038  0.1603  0.5394 -0.1527
  239MOL     C429040   2.030   1.346   0.282  0.0928 -0.3696 -0.2135
  239MOL     H529041   2.136   1.354   0.256  0.1698  2.4643  0.7240
  239MOL     H629042   1.970   1.437   0.272  0.4987  0.0592  1.0794
  239MOL     H729043   1.957   1.149   0.233 -0.6339  1.1018  3.1518
  239MOL     C829044   2.031   1.305   0.430 -0.0267 -0.0496  0.7797
  239MOL    Cl929045   2.088   1.140   0.457  0.2523 -0.3315  0.1716
  239MOL   Cl1029046   1.861   1.298   0.499 -0.0642 -0.3837  0.0487
  239MOL    C1129047   2.124   1.395   0.529  0.2619 -0.3517  0.1824
  239MOL    H1229048   2.128   1.361   0.632  0.9084  0.8955  0.5679
  239MOL    H1329049   2.226   1.364   0.509  0.7592  1.1802  0.3247
  239MOL    C1429050   2.116   1.549   0.537 -0.2077 -0.0954  0.1555
  239MOL   Cl1529051   1.951   1.581   0.607 -0.6799 -0.2665 -0.4361
  239MOL   Cl1629052   2.103   1.638   0.381 -0.0541 -0.1167  0.0874
  239MOL    C1729053   2.205   1.628   0.639  0.0653  0.6576  0.0403
  239MOL    H1829054   2.167   1.729   0.642  0.5166  0.8290  0.1059
  239MOL    H1929055   2.196   1.577   0.735 -0.0011 -1.0350 -0.8343
  239MOL    C2029056   2.358   1.654   0.596  0.0732  0.1220 -0.4355
  239MOL   Cl2129057   2.374   1.759   0.457  0.2113 -0.2066  0.2285
  239MOL   Cl2229058   2.432   1.500   0.547 -0.3641 -0.5896  0.3392
  239MOL    C2329059   2.448   1.726   0.697 -0.5276  0.3148 -0.1225
  239MOL    H2429060   2.550   1.732   0.658 -1.0961 -0.1423 -1.7050
  239MOL    H2529061   2.431   1.833   0.710  0.5252  0.5444 -0.5947
  239MOL    C2629062   2.455   1.682   0.840  0.1419  0.2779  0.1470
  239MOL   Cl2729063   2.297   1.701   0.920  0.1736  0.2127 -0.2392
  239MOL   Cl2829064   2.572   1.788   0.928  0.1366  0.1874  0.0831
  239MOL    C2929065   2.503   1.531   0.848  0.2802 -0.5471  0.2147
  239MOL    H3029066   2.423   1.470   0.805  1.4187 -1.0941 -1.1926
  239MOL    H3129067   2.586   1.514   0.779 -2.7039 -0.4865 -3.5752
  239MOL    C3229068   2.546   1.463   0.979 -0.5098 -0.3593 -0.1347
  239MOL   Cl3329069   2.715   1.517   1.002  0.0399  0.1489 -0.3527
  239MOL   Cl3429070   2.539   1.290   0.947  0.1442  0.0548 -0.0692
  239MOL    C3529071   2.445   1.502   1.098 -0.6862 -0.4161 -0.2729
  239MOL    H3629072   2.453   1.610   1.110  2.7444 -0.6168 -0.3049
  239MOL    H3729073   2.340   1.489   1.070 -1.3454 -0.9316  2.3193
  239MOL    C3829074   2.461   1.440   1.244 -0.3586  0.3315 -0.6205
  239MOL   Cl3929075   2.406   1.272   1.254  0.0544  0.4240  0.0473
  239MOL   Cl4029076   2.341   1.541   1.345 -0.5890  0.0541  0.2611
  239MOL    C4129077   2.611   1.455   1.297  0.3942 -0.8021 -0.7879
  239MOL    H4229078   2.653   1.367   1.248  2.2651  0.2837 -1.1726
  239MOL    H4329079   2.666   1.538   1.251  0.1568 -0.4544 -0.4434
  239MOL    C4429080   2.635   1.444   1.455 -0.1239 -0.1771 -0.4152
  239MOL   Cl4529081   2.540   1.308   1.528  0.1140  0.3059 -0.1772
  239MOL   Cl4629082   2.577   1.594   1.545 -0.2936 -0.3158  0.1917
  239MOL    C4729083   2.788   1.432   1.492  0.0697  0.1512 -0.1385
  239MOL    H4829084   2.834   1.529   1.474  2.2604 -0.9166 -0.3867
  239MOL    H4929085   2.793   1.414   1.599 -0.5613  0.8712  0.0147
  239MOL    C5029086   2.883   1.330   1.420  0.5212 -0.2949  0.3420
  239MOL   Cl5129087   2.926   1.391   1.254 -0.2134  0.1742 -0.2748
  239MOL   Cl5229088   2.804   1.178   1.389  0.0917  0.2061  0.4716
  239MOL    C5329089   3.016   1.305   1.502 -0.3833 -0.8119  0.6730
  239MOL    H5429090   2.985   1.249   1.591  2.7079 -0.3352  2.1191
  239MOL    H5529091   3.084   1.251   1.437 -0.9803 -0.2144 -0.4657
  239MOL    C5629092   3.096   1.415   1.568  0.0957  0.0126 -0.6359
  239MOL   Cl5729093   3.013   1.477   1.719  0.4959 -0.1723  0.0385
  239MOL   Cl5829094   3.133   1.545   1.457  0.1147 -0.4969  0.1416
  239MOL    C5929095   3.239   1.371   1.614  0.4280 -0.3953 -0.6059
  239MOL    H6029096   3.293   1.365   1.519  2.3086  0.0581  0.4226
  239MOL    H6129097   3.272   1.451   1.680 -0.6243  0.1458 -0.7234
  239MOL    C6229098   3.276   1.240   1.694  0.3995 -0.1589 -0.9778
  239MOL   Cl6329099   3.285   1.108   1.572 -0.0515  0.2241 -0.3661
  239MOL   Cl6429100   3.144   1.210   1.811  0.4351  0.4337  0.2750
  239MOL    C6529101   3.414   1.238   1.769 -0.2077  0.5594  0.6714
  239MOL    H6629102   3.500   1.260   1.705 -1.0343  1.1488 -0.2413
  239MOL    H6729103   3.413   1.332   1.825 -1.5469  2.1166 -1.8611
  239MOL    C6829104   3.469   1.117   1.854  0.3712 -0.0868  0.4441
  239MOL   Cl6929105   3.392   1.120   2.015  0.0624 -0.2735  0.4415
  239MOL   Cl7029106   3.637   1.165   1.882 -0.1680  0.0824 -0.3598
  239MOL    C7129107   3.452   0.968   1.800 -0.3484 -0.0286 -0.1233
  239MOL    H7229108   3.349   0.934   1.810 -0.4621 -0.7327 -3.2472
  239MOL    H7329109   3.470   0.971   1.692  0.7423  0.6261  0.0700
  239MOL    C7429110   3.549   0.850   1.837  0.3197  0.0390  0.1560
  239MOL   Cl7529111   3.562   0.839   2.007 -0.1280 -0.2982 -0.1371
  239MOL   Cl7629112   3.713   0.876   1.781  0.2592 -0.4419 -0.1019
  239MOL    C7729113   3.515   0.714   1.780 -0.4772 -0.6618 -0.1073
  239MOL    H7829114   3.588   0.635   1.797  0.2309  0.1081  0.4298
  239MOL    H7929115   3.434   0.678   1.844  0.8404 -3.0041  0.2861
  239MOL    C8029116   3.448   0.696   1.637  0.4585 -0.5105  0.1041
  239MOL   Cl8129117   3.565   0.771   1.523  0.2527  0.0191  0.0243
  239MOL   Cl8229118   3.304   0.788   1.606  0.0434  0.0409  0.1795
  239MOL    C8329119   3.422   0.553   1.581  0.3944 -0.3195  0.1187
  239MOL    H8429120   3.358   0.562   1.493  1.1384 -2.7513 -0.6956
  239MOL    H8529121   3.510   0.511   1.534 -0.1009 -2.2210  0.8446
  239MOL    C8629122   3.365   0.447   1.683  0.6713 -0.0089  0.2844
  239MOL   Cl8729123   3.239   0.511   1.790  0.0320 -0.1377 -0.3809
  239MOL   Cl8829124   3.493   0.391   1.791  0.1708 -0.1142  0.1125
  239MOL    C8929125   3.296   0.330   1.605  1.0640 -0.8394 -0.6592
  239MOL    H9029126   3.245   0.265   1.676 -0.6254 -0.1457 -1.2119
  239MOL    H9129127   3.230   0.381   1.535  0.7917  0.4593  0.5117
  239MOL    C9229128   3.373   0.230   1.521 -1.1958  0.7232  0.3554
  239MOL   Cl9329129   3.458   0.314   1.390  0.0133 -0.4176 -0.5856
  239MOL   Cl9429130   3.255   0.123   1.434  0.1572  0.2389 -0.1867
  239MOL    C9529131   3.483   0.151   1.577 -0.0330  0.4953  0.6752
  239MOL    H9629132   3.527   0.093   1.495 -1.0310  0.0877  0.4299
  239MOL    H9729133   3.558   0.225   1.606  0.8967 -0.0097 -0.3621
  239MOL    C9829134   3.470   0.041   1.691 -0.3276 -0.4420  0.1236
  239MOL   Cl9929135   3.326   0.073   1.808 -0.0652 -0.2205 -0.2393
  239MOL  Cl10029136   3.623   0.028   1.779  0.1369  0.3043  0.0862
  239MOL   C10129137   3.447   9.081   1.613  0.1861 -0.4085 -0.5200
  239MOL   H10229138   3.381   9.099   1.527  1.8166 -1.2809 -1.9828
  239MOL   H10329139   3.535   9.062   1.552  1.0514  0.6813  0.3690
  239MOL   C10429140   3.396   8.951   1.690  0.4989 -0.5165 -0.0280
  239MOL  Cl10529141   3.439   8.829   1.569  0.2099 -0.2517 -0.2863
  239MOL  Cl10629142   3.216   8.955   1.699  0.1888 -0.1510 -0.1912
  239MOL   C10729143   3.455   8.919   1.827 -1.0835 -0.2885 -0.6634
  239MOL   H10829144   3.563   8.911   1.817 -0.8284  0.3615  1.4141
  239MOL   H10929145   3.442   9.012   1.883 -3.8571 -0.9147 -0.1915
  239MOL   C11029146   3.402   8.810   1.925  0.7573 -0.6801 -0.9952
  239MOL  Cl11129147   3.348   8.674   1.822 -0.1195  0.1937  0.1302
  239MOL  Cl11229148   3.256   8.861   2.020  0.0420 -0.0761  0.0300
  239MOL   C11329149   3.507   8.749   2.022 -0.4475  0.6398  0.3862
  239MOL   H11429150   3.467   8.664   2.078  2.0418 -1.2860 -0.6880
  239MOL   H11529151   3.596   8.717   1.967 -0.4978  1.7341 -0.3325
  239MOL   C11629152   3.586   8.841   2.119 -0.0282  0.3719 -0.7181
  239MOL  Cl11729153   3.700   8.947   2.042 -0.3113  0.0171 -0.2073
  239MOL  Cl11829154   3.676   8.739   2.234 -0.1717  0.6169 -0.5144
  239MOL   C11929155   3.499   8.934   2.196  0.0766 -0.1944 -0.6048
  239MOL   H12029156   3.466   9.019   2.137  1.5666 -0.1053 -1.3334
  239MOL   H12129157   3.413   8.886   2.243 -1.2688 -0.7253 -3.5251
  239MOL   H12229158   3.558   8.972   2.280 -0.6558 -0.6801  0.1399
  240MOL     C129159   6.041   0.525   5.788  0.3222  0.8987 -0.0378
  240MOL    Cl229160   6.210   0.558   5.832 -0.0296 -0.0417 -0.0231
  240MOL    Cl329161   6.047   0.393   5.664 -0.0289 -0.3249  0.0455
  240MOL     C429162   5.958   0.481   5.914  0.3571 -0.0253  0.1406
  240MOL     H529163   5.873   0.427   5.874 -0.3332  1.4988 -0.4763
  240MOL     H629164   6.011   0.402   5.967 -2.4282  0.1149  3.2441
  240MOL     H729165   6.000   0.609   5.732 -3.3447 -1.1840 -0.6495
  240MOL     C829166   5.897   0.587   6.012 -0.8382 -0.2863  0.0930
  240MOL    Cl929167   5.772   0.503   6.114  0.4143  0.1777 -0.1496
  240MOL   Cl1029168   5.811   0.700   5.900 -0.1378 -0.0458 -0.0140
  240MOL    C1129169   6.002   0.659   6.100  0.1533  0.4890 -0.3989
  240MOL    H1229170   6.057   0.733   6.041  0.7686 -0.6574 -1.2682
  240MOL    H1329171   5.937   0.722   6.162  1.6698  0.7392  0.9495
  240MOL    C1429172   6.088   0.589   6.216 -0.0244 -0.2908 -0.2461
  240MOL   Cl1529173   6.218   0.496   6.134  0.0894  0.0760 -0.0972
  240MOL   Cl1629174   6.000   0.471   6.312 -0.4673  0.6063 -0.0032
  240MOL    C1729175   6.149   0.678   6.319  0.2512  0.7511  0.2195
  240MOL    H1829176   6.190   0.620   6.401  2.6007  0.0452 -1.4122
  240MOL    H1929177   6.235   0.722   6.267  3.3130 -1.4788  3.1968
  240MOL    C2029178   6.075   0.796   6.385  0.8953 -0.5663  0.4810
  240MOL   Cl2129179   5.907   0.757   6.433 -0.0896 -0.3744  0.0388
  240MOL   Cl2229180   6.064   0.938   6.281 -0.2260  0.5317  0.0624
  240MOL    C2329181   6.140   0.840   6.518  0.1499 -0.1765 -0.1490
  240MOL    H2429182   6.076   0.919   6.560  0.6088  0.3125 -0.3592
  240MOL    H2529183   6.123   0.749   6.575  0.2283 -0.5426 -0.7045
  240MOL    C2629184   6.291   0.873   6.528 -0.5414 -0.0140  0.4321
  240MOL   Cl2729185   6.350   0.978   6.397  0.4444  0.1247 -0.5421
  240MOL   Cl2829186   6.386   0.726   6.519  0.0801 -0.0884  0.2299
  240MOL    C2929187   6.317   0.955   6.664 -0.0434  0.3913 -0.2926
  240MOL    H3029188   6.423   0.945   6.683  0.2846  1.3167 -1.5426
  240MOL    H3129189   6.307   1.063   6.647  1.3131  0.3834 -1.1878
  240MOL    C3229190   6.256   0.918   6.799  0.2010 -0.3099 -0.7006
  240MOL   Cl3329191   6.247   0.740   6.822  0.2527  0.1582 -0.0311
  240MOL   Cl3429192   6.087   0.965   6.804  0.1068 -0.3728 -0.3854
  240MOL    C3529193   6.344   0.985   6.908 -0.1620  0.1345  0.4740
  240MOL    H3629194   6.288   0.967   7.001 -2.0860  0.6394 -0.5541
  240MOL    H3729195   6.435   0.926   6.910 -1.2740 -1.6178  1.0564
  240MOL    C3829196   6.386   1.136   6.906 -0.2616 -0.7352 -0.4200
  240MOL   Cl3929197   6.257   1.227   6.832 -0.4952 -0.0214 -0.4489
  240MOL   Cl4029198   6.534   1.158   6.810 -0.3444  0.4091 -0.2478
  240MOL    C4129199   6.412   1.185   7.053  0.8734  0.5530  0.1028
  240MOL    H4229200   6.405   1.293   7.055 -1.3839  0.3941  2.0254
  240MOL    H4329201   6.320   1.162   7.107  1.7441  1.9813  2.2558
  240MOL    C4429202   6.528   1.134   7.143  1.0272 -0.1456 -0.2241
  240MOL   Cl4529203   6.672   1.221   7.088 -0.5801 -0.1200 -0.0361
  240MOL   Cl4629204   6.547   0.959   7.150  0.2932  0.5408 -0.0872
  240MOL    C4729205   6.520   1.190   7.284  0.5326 -0.7204 -0.1488
  240MOL    H4829206   6.613   1.154   7.328  0.6134 -1.1725 -0.6986
  240MOL    H4929207   6.532   1.298   7.269 -2.4747 -0.3830 -0.5042
  240MOL    C5029208   6.401   1.162   7.384  0.1851 -0.9333  0.4446
  240MOL   Cl5129209   6.372   0.991   7.414  0.2559  0.0811 -0.0789
  240MOL   Cl5229210   6.250   1.255   7.336 -0.0797  0.2373 -0.1009
  240MOL    C5329211   6.431   1.207   7.528 -0.1658 -0.1913 -0.6001
  240MOL    H5429212   6.414   1.314   7.522 -0.7804 -0.2661 -0.2709
  240MOL    H5529213   6.358   1.164   7.597  0.1250 -0.9112 -0.7293
  240MOL    C5629214   6.566   1.197   7.608 -0.5136  1.1139  0.2280
  240MOL   Cl5729215   6.684   1.314   7.530 -0.2247 -0.2088  0.0196
  240MOL   Cl5829216   6.639   1.040   7.571  0.3659 -0.2214 -0.0154
  240MOL    C5929217   6.569   1.202   7.768  0.4416  0.0667  0.1079
  240MOL    H6029218   6.505   1.124   7.811 -1.1732  1.2177 -0.1419
  240MOL    H6129219   6.668   1.169   7.797  0.6290  0.7662  0.2847
  240MOL    C6229220   6.544   1.326   7.844  0.6488 -0.2678  0.3203
  240MOL   Cl6329221   6.492   1.278   8.013 -0.0959 -0.1872  0.2954
  240MOL   Cl6429222   6.401   1.404   7.778  0.0294  0.2593 -0.0522
  240MOL    C6529223   6.663   1.436   7.845  0.4337  0.0126 -0.3990
  240MOL    H6629224   6.668   1.488   7.750 -2.4247  1.3304  0.1399
  240MOL    H6729225   6.622   1.511   7.912 -0.7935 -1.1343  0.1512
  240MOL    C6829226   6.804   1.399   7.889  0.6040 -0.2301 -0.0234
  240MOL   Cl6929227   6.890   1.554   7.886  0.2177 -0.1433  0.2007
  240MOL   Cl7029228   6.876   1.296   7.769 -0.1893  0.3466 -0.0754
  240MOL    C7129229   6.810   1.333   8.036  0.4749  0.5205  0.0057
  240MOL    H7229230   6.747   1.386   8.106 -1.6517 -0.7898 -0.8736
  240MOL    H7329231   6.769   1.232   8.038  1.0016  0.3226  2.0011
  240MOL    C7429232   6.945   1.307   8.110  0.0698 -0.1535  0.4657
  240MOL   Cl7529233   6.996   1.451   8.188  0.0370  0.0821  0.1420
  240MOL   Cl7629234   7.077   1.285   7.992 -0.4406 -0.1175  0.0623
  240MOL    C7729235   6.945   1.176   8.205 -0.1108  0.0978 -0.1797
  240MOL    H7829236   6.923   1.089   8.142  2.0055  1.1686 -2.4786
  240MOL    H7929237   7.046   1.153   8.239 -1.1161 -2.5251  1.2325
  240MOL    C8029238   6.860   1.152   8.333  0.1123 -0.7898  0.8367
  240MOL   Cl8129239   6.688   1.183   8.303 -0.3175 -0.0994  0.0065
  240MOL   Cl8229240   6.906   1.261   8.468 -0.3171  0.1784 -0.2374
  240MOL    C8329241   6.872   1.008   8.394  0.3370  0.4443 -0.6145
  240MOL    H8429242   6.969   0.996   8.442  0.7570  0.2342 -1.5067
  240MOL    H8529243   6.796   1.007   8.472 -0.2489  3.2724 -1.0681
  240MOL    C8629244   6.857   0.870   8.311  0.1465 -0.4450  0.2530
  240MOL   Cl8729245   6.842   0.758   8.449  0.0366 -0.1266 -0.0440
  240MOL   Cl8829246   7.006   0.829   8.221  0.0093 -0.0770 -0.6078
  240MOL    C8929247   6.722   0.875   8.228  0.3908  0.1441  0.5814
  240MOL    H9029248   6.643   0.905   8.297 -1.1805 -2.1370 -0.1850
  240MOL    H9129249   6.728   0.964   8.165 -0.4202  0.8460  1.4723
  240MOL    C9229250   6.654   0.761   8.154 -0.1123  0.3932  0.0049
  240MOL   Cl9329251   6.494   0.827   8.113 -0.2138 -0.0927 -0.0338
  240MOL   Cl9429252   6.607   0.627   8.265  0.2483 -0.1789  0.3080
  240MOL    C9529253   6.728   0.690   8.036 -0.2902 -0.3460 -0.7946
  240MOL    H9629254   6.830   0.674   8.069  0.3996  1.6896 -1.8590
  240MOL    H9729255   6.674   0.597   8.020 -0.4136  0.0019 -2.5489
  240MOL    C9829256   6.734   0.767   7.901 -0.4646 -0.1198  0.0145
  240MOL   Cl9929257   6.806   0.924   7.915 -0.3068 -0.3150 -0.0258
  240MOL  Cl10029258   6.575   0.805   7.822 -0.2006  0.4658 -0.2964
  240MOL   C10129259   6.809   0.688   7.787 -0.7101 -1.3198 -1.0066
  240MOL   H10229260   6.799   0.727   7.686 -0.0458 -0.7612 -0.8624
  240MOL   H10329261   6.915   0.710   7.805 -0.6230 -3.1337  0.9350
  240MOL   C10429262   6.807   0.532   7.771 -0.0699  0.2076  0.1939
  240MOL  Cl10529263   6.640   0.467   7.762 -0.0707  0.0348 -0.0579
  240MOL  Cl10629264   6.889   0.451   7.912  0.0027  0.0672 -0.1765
  240MOL   C10729265   6.868   0.494   7.641 -0.1630 -0.5595  0.1759
  240MOL   H10829266   6.799   0.533   7.567 -0.2896  1.2737  1.2286
  240MOL   H10929267   6.952   0.562   7.624 -1.0038  0.5802  0.5151
  240MOL   C11029268   6.918   0.348   7.600 -0.5445 -0.0092 -0.1545
  240MOL  Cl11129269   6.801   0.229   7.646  0.2309  0.5258 -0.1653
  240MOL  Cl11229270   7.071   0.314   7.691  0.0531 -0.2830  0.0215
  240MOL   C11329271   6.948   0.318   7.450 -0.5449  0.3667 -0.4161
  240MOL   H11429272   7.009   0.229   7.436 -1.6887 -0.6464  0.9423
  240MOL   H11529273   6.850   0.301   7.406 -0.7959 -0.1346  0.3242
  240MOL   C11629274   7.013   0.432   7.353  0.0542  0.3121 -0.8441
  240MOL  Cl11729275   6.900   0.573   7.330  0.0766  0.1484  0.2503
  240MOL  Cl11829276   7.017   0.349   7.197 -0.0042 -0.0538  0.2320
  240MOL   C11929277   7.146   0.489   7.399  0.2874 -0.2811  0.2485
  240MOL   H12029278   7.206   0.398   7.403 -1.1942 -1.3757 -1.6311
  240MOL   H12129279   7.182   0.560   7.325 -2.1609 -0.1002 -0.8286
  240MOL   H12229280   7.135   0.537   7.496 -2.7333  1.1024 -0.7330
  241MOL     C129281   0.262   1.593   2.838 -0.1313  0.8023  0.2732
  241MOL    Cl229282   0.286   1.434   2.922  0.1344 -0.2407  0.1529
  241MOL    Cl329283   0.400   1.622   2.731 -0.0188 -0.2783 -0.5665
  241MOL     C429284   0.136   1.577   2.744  0.3854 -0.1148 -0.6319
  241MOL     H529285   0.158   1.542   2.643 -2.0466  0.0808 -1.2557
  241MOL     H629286   0.071   1.501   2.788  0.7937 -0.6629 -0.9541
  241MOL     H729287   0.258   1.676   2.909  0.2096  1.6373 -0.6758
  241MOL     C829288   0.057   1.708   2.713  0.8607  0.0548 -1.1657
  241MOL    Cl929289   9.117   1.665   2.591 -0.0493 -0.4684 -0.0439
  241MOL   Cl1029290   0.154   1.829   2.632 -0.0365 -0.0235 -0.0180
  241MOL    C1129291   9.169   1.755   2.844  0.5336 -0.1343  0.2080
  241MOL    H1229292   9.126   1.663   2.883  1.3729 -1.0728 -1.0420
  241MOL    H1329293   0.061   1.798   2.913  1.2290 -1.1129  0.0866
  241MOL    C1429294   9.047   1.853   2.851 -0.1397  0.2134 -0.6101
  241MOL   Cl1529295   9.025   1.888   3.022  0.2814 -0.1205  0.2798
  241MOL   Cl1629296   8.892   1.769   2.801 -0.1942 -0.3000  0.3699
  241MOL    C1729297   9.070   1.981   2.766 -0.8080 -0.6907 -0.3803
  241MOL    H1829298   9.142   2.044   2.819 -2.5923  0.9177  0.1766
  241MOL    H1929299   9.115   1.953   2.671 -1.3584 -0.9745 -0.5578
  241MOL    C2029300   8.961   2.084   2.732  0.1334 -0.4135 -0.1606
  241MOL   Cl2129301   8.901   2.162   2.890  0.3759  0.0562 -0.3353
  241MOL   Cl2229302   8.824   2.024   2.644 -0.6746 -0.1221  0.1585
  241MOL    C2329303   9.011   2.210   2.644 -0.8489  0.0687 -0.2484
  241MOL    H2429304   8.916   2.256   2.617  0.0966  0.6690 -2.6824
  241MOL    H2529305   9.052   2.284   2.712  1.4416  0.1312 -1.6461
  241MOL    C2629306   9.101   2.191   2.520 -0.2583 -0.1012 -0.0994
  241MOL   Cl2729307   9.043   2.055   2.426  0.0414  0.0555 -0.0336
  241MOL   Cl2829308   0.086   2.173   2.576 -0.1819 -0.2192  0.0090
  241MOL    C2929309   9.075   2.318   2.434 -0.2094  0.1732 -0.0024
  241MOL    H3029310   8.969   2.333   2.412 -0.2590 -0.5107 -0.2472
  241MOL    H3129311   9.097   2.391   2.512 -2.4915  0.3116  0.5348
  241MOL    C3229312   9.154   2.359   2.304  0.3834  0.0398 -0.4142
  241MOL   Cl3329313   9.115   2.237   2.179  0.1074 -0.0145  0.3263
  241MOL   Cl3429314   0.156   2.348   2.329 -0.2642  0.2146  0.0270
  241MOL    C3529315   9.131   2.503   2.255 -0.0985 -0.2489 -0.2553
  241MOL    H3629316   0.007   2.565   2.325 -2.1246  1.6194 -0.2086
  241MOL    H3729317   9.179   2.531   2.162 -1.8900 -0.3528 -1.2479
  241MOL    C3829318   8.999   2.581   2.248  0.6426 -0.0412 -0.4485
  241MOL   Cl3929319   8.949   2.612   2.414  0.0747  0.2462 -0.2415
  241MOL   Cl4029320   8.877   2.485   2.158  0.2121  0.4199 -0.3305
  241MOL    C4129321   9.035   2.724   2.180  0.5391  0.0753  0.5698
  241MOL    H4229322   9.125   2.765   2.227  1.1857 -0.0326 -0.5527
  241MOL    H4329323   9.058   2.698   2.076 -0.7741 -3.1406  1.0274
  241MOL    C4429324   8.922   2.836   2.155  0.4496 -0.1511 -0.0063
  241MOL   Cl4529325   9.021   2.964   2.076  0.2881  0.1365 -0.0375
  241MOL   Cl4629326   8.882   2.907   2.311  0.1245 -0.1722  0.5220
  241MOL    C4729327   8.800   2.786   2.065 -0.0659 -0.1841  0.4228
  241MOL    H4829328   8.834   2.729   1.978  0.8289  2.1306 -0.7852
  241MOL    H4929329   8.751   2.718   2.135  0.1768  0.7346  1.5035
  241MOL    C5029330   8.691   2.886   2.006  0.3114  0.1318 -0.5624
  241MOL   Cl5129331   8.611   2.957   2.150  0.1572  0.0812 -0.0847
  241MOL   Cl5229332   8.556   2.796   1.926 -0.1909 -0.0415  0.0500
  241MOL    C5329333   8.733   3.013   1.921  0.3106  0.2976 -0.2794
  241MOL    H5429334   8.650   3.081   1.904  0.4776  1.1052  1.9403
  241MOL    H5529335   8.813   3.059   1.980  1.2229 -0.0579 -1.2213
  241MOL    C5629336   8.785   3.000   1.768  0.5519 -0.2740 -0.1825
  241MOL   Cl5729337   8.654   2.944   1.665 -0.0538 -0.1433  0.2981
  241MOL   Cl5829338   8.908   2.875   1.768  0.1636  0.1816 -0.0259
  241MOL    C5929339   8.862   3.123   1.699 -0.1065  0.1433 -0.1281
  241MOL    H6029340   8.957   3.131   1.752  0.1389  0.1579 -0.5661
  241MOL    H6129341   8.880   3.098   1.594 -2.5837 -0.6134 -0.4133
  241MOL    C6229342   8.797   3.273   1.704 -0.6772  0.3131 -0.2016
  241MOL   Cl6329343   8.818   3.319   1.877  0.3694  0.4179  0.2421
  241MOL   Cl6429344   8.625   3.275   1.664 -0.1466  0.1444  0.2774
  241MOL    C6529345   8.883   3.380   1.625  0.4023 -0.4422 -0.1274
  241MOL    H6629346   8.887   3.475   1.678 -1.6135 -0.3190 -0.1588
  241MOL    H6729347   8.989   3.353   1.625  0.8053  1.0936  0.4230
  241MOL    C6829348   8.847   3.406   1.478 -0.9085 -0.0867  0.1877
  241MOL   Cl6929349   8.690   3.495   1.464 -0.2096 -0.0359 -0.3703
  241MOL   Cl7029350   8.838   3.256   1.379 -0.2395  0.2706 -0.0320
  241MOL    C7129351   8.962   3.493   1.400  0.1356  0.3068 -0.1309
  241MOL    H7229352   8.999   3.574   1.463  0.8897  0.2440 -0.4858
  241MOL    H7329353   9.046   3.424   1.397 -0.1700 -0.0329 -1.5400
  241MOL    C7429354   8.932   3.564   1.263 -0.1394  0.3251 -0.3527
  241MOL   Cl7529355   8.822   3.700   1.290 -0.2151  0.1199  0.2451
  241MOL   Cl7629356   8.840   3.451   1.158  0.1640 -0.0815  0.5415
  241MOL    C7729357   9.053   3.621   1.188 -0.6253  0.2306 -0.2144
  241MOL    H7829358   9.105   3.537   1.140 -1.2090  0.6773 -1.6708
  241MOL    H7929359   9.009   3.665   1.098 -2.8733 -1.3522  0.0692
  241MOL    C8029360   9.163   3.723   1.246  0.0772  0.1133 -0.0207
  241MOL   Cl8129361   0.112   3.743   1.117 -0.1528  0.0991  0.0413
  241MOL   Cl8229362   0.058   3.632   1.378 -0.3926  0.1482  0.0965
  241MOL    C8329363   9.101   3.854   1.297 -0.3039 -0.1595 -0.2356
  241MOL    H8429364   9.034   3.891   1.220  1.1349  1.6776 -0.6397
  241MOL    H8529365   9.042   3.835   1.386  1.0943 -0.8066  0.5678
  241MOL    C8629366   0.017   3.975   1.323 -0.4870  0.3452 -0.0233
  241MOL   Cl8729367   9.106   4.103   1.409  0.2578 -0.0459  0.4001
  241MOL   Cl8829368   0.043   4.051   1.161  0.0428  0.4949 -0.0366
  241MOL    C8929369   0.149   3.938   1.395  0.1556 -0.2491  0.2962
  241MOL    H9029370   0.139   3.865   1.475  1.8197 -0.3970  0.3728
  241MOL    H9129371   0.205   3.874   1.328  0.7614  0.2638  0.3083
  241MOL    C9229372   0.238   4.046   1.456 -0.1604 -0.4829 -0.2011
  241MOL   Cl9329373   0.263   4.193   1.346 -0.3792  0.1562 -0.2025
  241MOL   Cl9429374   0.401   3.980   1.466  0.3410  0.1262 -0.0167
  241MOL    C9529375   0.204   4.112   1.600 -0.4937  0.6954  0.2719
  241MOL    H9629376   0.283   4.183   1.623  0.3739 -0.1219 -0.1311
  241MOL    H9729377   0.118   4.176   1.580 -1.6822 -0.3418  1.8812
  241MOL    C9829378   0.166   4.030   1.725 -0.0882 -0.6791 -0.5389
  241MOL   Cl9929379   0.297   3.909   1.761  0.0043  0.5175 -0.4496
  241MOL  Cl10029380   0.012   3.937   1.697  0.6884  0.5496 -0.0064
  241MOL   C10129381   0.152   4.115   1.853 -0.7760  0.5040  0.8704
  241MOL   H10229382   0.117   4.041   1.925  0.1333 -0.0418  0.7651
  241MOL   H10329383   0.251   4.144   1.886 -0.5453  0.1053  0.5355
  241MOL   C10429384   0.071   4.242   1.852  0.9277 -0.7650  0.4136
  241MOL  Cl10529385   9.094   4.221   1.769  0.1068  0.0338  0.0545
  241MOL  Cl10629386   0.146   4.376   1.762 -0.1594 -0.0686  0.2120
  241MOL   C10729387   0.061   4.308   2.000  0.6160  0.0760  0.1050
  241MOL   H10829388   0.162   4.340   2.026  0.8887 -0.2522 -0.5296
  241MOL   H10929389   0.008   4.402   1.986 -0.3540 -0.2076  1.7531
  241MOL   C11029390   9.174   4.231   2.118 -0.4905  0.5371  0.2911
  241MOL  Cl11129391   0.097   4.099   2.174 -0.1216  0.4293  0.5315
  241MOL  Cl11229392   9.023   4.151   2.053 -0.1137 -0.1306 -0.4115
  241MOL   C11329393   9.130   4.316   2.241  0.0132  0.2636  0.0490
  241MOL   H11429394   9.062   4.387   2.193  2.6081 -0.3058 -4.6982
  241MOL   H11529395   9.077   4.254   2.313 -2.3754  2.7079  0.4925
  241MOL   C11629396   0.052   4.395   2.327 -0.1055  0.8104  0.4050
  241MOL  Cl11729397   0.124   4.274   2.435 -0.0895  0.0086 -0.2716
  241MOL  Cl11829398   9.145   4.508   2.438 -0.1863  0.2915 -0.4761
  241MOL   C11929399   0.162   4.480   2.261 -0.4396 -0.4344  0.5144
  241MOL   H12029400   0.224   4.428   2.189  2.2157 -0.0832  2.4800
  241MOL   H12129401   0.117   4.558   2.199  0.1146  0.2586  0.9730
  241MOL   H12229402   0.226   4.534   2.331 -1.6072  0.6762  0.7580
  242MOL     C129403   4.974   6.562   1.904  0.3351  0.2737 -0.2474
  242MOL    Cl229404   5.090   6.657   1.999  0.3962  0.2684  0.1196
  242MOL    Cl329405   4.812   6.620   1.955  0.0643 -0.0291  0.0873
  242MOL     C429406   4.996   6.587   1.752 -0.2896  0.1298  0.3411
  242MOL     H529407   4.948   6.679   1.719 -0.0863  0.0657 -0.1378
  242MOL     H629408   5.101   6.614   1.750 -0.6360  1.4416 -0.3267
  242MOL     H729409   4.981   6.459   1.938  2.2552  0.1549 -0.9459
  242MOL     C829410   4.993   6.466   1.664  0.5201  0.3733  0.3157
  242MOL    Cl929411   4.836   6.379   1.661 -0.1211 -0.3036  0.5437
  242MOL   Cl1029412   5.109   6.343   1.722  0.2201 -0.1337  0.1325
  242MOL    C1129413   5.036   6.486   1.517  0.3608  0.6603 -0.2642
  242MOL    H1229414   5.144   6.496   1.511  0.6710 -1.9834  0.1930
  242MOL    H1329415   5.020   6.395   1.458  3.3811  0.5857 -1.0105
  242MOL    C1429416   4.978   6.601   1.421 -0.2093  0.1553 -0.3496
  242MOL   Cl1529417   5.046   6.759   1.456 -0.0232 -0.1078  0.2421
  242MOL   Cl1629418   4.803   6.619   1.427  0.2453  0.2090 -0.6907
  242MOL    C1729419   4.988   6.574   1.265 -0.1200  0.1663 -0.5493
  242MOL    H1829420   4.936   6.478   1.258  1.6272 -0.9436  1.2484
  242MOL    H1929421   4.927   6.645   1.209  1.1137  0.6522 -1.2921
  242MOL    C2029422   5.128   6.553   1.192  0.3885 -0.6366  0.1037
  242MOL   Cl2129423   5.082   6.454   1.056  0.3346  0.3826 -0.3963
  242MOL   Cl2229424   5.236   6.448   1.288 -0.0663  0.4943 -0.2995
  242MOL    C2329425   5.197   6.683   1.144  0.0428 -0.1557 -0.1057
  242MOL    H2429426   5.124   6.762   1.126 -0.5212 -0.8358 -0.8302
  242MOL    H2529427   5.236   6.712   1.242  1.4399 -0.4075 -0.5678
  242MOL    C2629428   5.316   6.681   1.035  0.1561 -0.0577  0.6460
  242MOL   Cl2729429   5.424   6.546   1.064  0.1139 -0.0877  0.1574
  242MOL   Cl2829430   5.415   6.825   1.042  0.3757 -0.3958  0.0584
  242MOL    C2929431   5.276   6.662   0.889 -0.0735  0.0769  0.5754
  242MOL    H3029432   5.359   6.660   0.818 -1.8257  0.0929 -1.5236
  242MOL    H3129433   5.229   6.564   0.887  2.9002 -1.4134 -2.0619
  242MOL    C3229434   5.170   6.758   0.822 -0.1365  0.2865  0.0069
  242MOL   Cl3329435   5.006   6.715   0.880 -0.1908  0.0765  0.1408
  242MOL   Cl3429436   5.164   6.700   0.654  0.2580  0.1217  0.0773
  242MOL    C3529437   5.206   6.912   0.842 -0.0899 -0.2073 -0.1536
  242MOL    H3629438   5.206   6.936   0.948  0.1642  0.5829 -0.3359
  242MOL    H3729439   5.305   6.925   0.799 -0.3230  0.4496 -0.4999
  242MOL    C3829440   5.128   7.028   0.766 -0.0953  0.1117 -0.1904
  242MOL   Cl3929441   5.159   7.019   0.581  0.1438  0.0517 -0.0780
  242MOL   Cl4029442   5.192   7.179   0.832  0.1201 -0.2834  0.1569
  242MOL    C4129443   4.973   7.008   0.785 -0.0570  0.8588 -0.6760
  242MOL    H4229444   4.969   6.912   0.733  3.1344 -0.5693  1.5590
  242MOL    H4329445   4.969   6.995   0.893 -0.1401  0.6563 -0.7030
  242MOL    C4429446   4.850   7.102   0.736  0.1842 -0.1429 -0.1435
  242MOL   Cl4529447   4.878   7.263   0.818  0.0657 -0.1754  0.1310
  242MOL   Cl4629448   4.692   7.024   0.771 -0.4271  0.0053  0.2286
  242MOL    C4729449   4.854   7.126   0.578 -0.1742 -0.1508  0.1031
  242MOL    H4829450   4.928   7.206   0.578 -0.7888  0.4537  2.2340
  242MOL    H4929451   4.895   7.048   0.514  0.5766 -1.0532  1.6326
  242MOL    C5029452   4.731   7.166   0.506  0.8602 -0.5662 -0.6624
  242MOL   Cl5129453   4.782   7.273   0.377 -0.2060 -0.0931  0.1068
  242MOL   Cl5229454   4.612   7.265   0.597  0.0482  0.0430  0.0631
  242MOL    C5329455   4.650   7.052   0.452 -0.5255  0.0440  0.4024
  242MOL    H5429456   4.591   7.010   0.533 -3.1795  0.5614 -1.2302
  242MOL    H5529457   4.573   7.106   0.397 -1.0638  0.0058  1.1214
  242MOL    C5629458   4.704   6.926   0.374 -0.0761 -0.3173  0.2238
  242MOL   Cl5729459   4.767   6.816   0.497  0.3214 -0.1149 -0.1478
  242MOL   Cl5829460   4.830   6.967   0.255  0.3505 -0.0982  0.2606
  242MOL    C5929461   4.588   6.853   0.291  0.5853 -0.0331  0.2293
  242MOL    H6029462   4.559   6.925   0.215  1.2852 -1.6221 -1.5762
  242MOL    H6129463   4.630   6.769   0.235 -1.7845 -2.3924  1.8711
  242MOL    C6229464   4.452   6.802   0.346  0.7126  0.8086  0.4582
  242MOL   Cl6329465   4.383   6.695   0.220 -0.1192  0.0426 -0.2378
  242MOL   Cl6429466   4.354   6.949   0.355  0.1097  0.3148  0.0135
  242MOL    C6529467   4.453   6.737   0.490 -0.0271 -0.1701 -0.3777
  242MOL    H6629468   4.524   6.655   0.494  0.0627  0.0115  3.1083
  242MOL    H6729469   4.503   6.808   0.556  0.0921 -0.6715  0.0793
  242MOL    C6829470   4.331   6.665   0.560  0.2945 -0.4132  1.2056
  242MOL   Cl6929471   4.295   6.510   0.473  0.1698 -0.4949 -0.0361
  242MOL   Cl7029472   4.190   6.766   0.549  0.2762 -0.1093 -0.5649
  242MOL    C7129473   4.358   6.634   0.712 -0.4629 -0.5092  0.3039
  242MOL    H7229474   4.356   6.734   0.756 -1.1373 -0.8028  0.9276
  242MOL    H7329475   4.267   6.590   0.751 -1.9250  2.8073  0.7937
  242MOL    C7429476   4.476   6.553   0.772  0.4623  0.8203 -0.1643
  242MOL   Cl7529477   4.634   6.615   0.725 -0.0047 -0.2987  0.2510
  242MOL   Cl7629478   4.463   6.383   0.703 -0.1572  0.2881 -0.3163
  242MOL    C7729479   4.469   6.540   0.925 -0.7737  0.1953 -0.3994
  242MOL    H7829480   4.372   6.497   0.945 -1.3292  0.0056 -3.2955
  242MOL    H7929481   4.536   6.459   0.953 -2.0138  0.3451  3.2271
  242MOL    C8029482   4.513   6.655   1.021  0.7239  0.0132  1.2364
  242MOL   Cl8129483   4.513   6.819   0.945 -0.0844  0.0340  0.1472
  242MOL   Cl8229484   4.684   6.617   1.063 -0.2103 -0.3333 -0.1591
  242MOL    C8329485   4.435   6.662   1.156 -0.2796 -0.2606 -0.2608
  242MOL    H8429486   4.420   6.557   1.181 -2.3834  0.0133 -0.3245
  242MOL    H8529487   4.500   6.686   1.240  0.1215 -1.9054 -0.0772
  242MOL    C8629488   4.297   6.736   1.179  0.2106 -0.0655  0.3394
  242MOL   Cl8729489   4.198   6.736   1.031  0.0436  0.0314  0.0124
  242MOL   Cl8829490   4.333   6.908   1.216  0.0787 -0.1773  0.2001
  242MOL    C8929491   4.216   6.657   1.290 -0.2437 -0.4035  0.1146
  242MOL    H9029492   4.232   6.549   1.290  0.3939 -0.3118  0.3907
  242MOL    H9129493   4.274   6.677   1.380  0.1871  3.4363 -0.9419
  242MOL    C9229494   4.065   6.684   1.315  0.1484 -0.4771 -0.3946
  242MOL   Cl9329495   4.031   6.604   1.464 -0.2997  0.2644  0.3932
  242MOL   Cl9429496   3.976   6.587   1.198 -0.1865  0.7705 -0.1276
  242MOL    C9529497   4.026   6.836   1.334  0.0982 -0.2351 -0.3791
  242MOL    H9629498   4.095   6.880   1.406 -1.4238  1.2102  0.2127
  242MOL    H9729499   4.062   6.895   1.250  1.0206  0.1551  0.2852
  242MOL    C9829500   3.880   6.880   1.356 -0.1206  0.1492  0.7913
  242MOL   Cl9929501   3.762   6.809   1.242  0.2136 -0.1959  0.1152
  242MOL  Cl10029502   3.860   7.052   1.332  0.0113 -0.2425  0.3262
  242MOL   C10129503   3.841   6.846   1.507 -0.4211  0.3572 -0.1334
  242MOL   H10229504   3.805   6.744   1.515  2.3981 -0.4431  3.5785
  242MOL   H10329505   3.925   6.861   1.575 -1.0219 -1.9656  1.1584
  242MOL   C10429506   3.731   6.932   1.584  0.0986 -0.6073 -0.2388
  242MOL  Cl10529507   3.587   6.959   1.481 -0.2420 -0.0372  0.4898
  242MOL  Cl10629508   3.793   7.097   1.619  0.2053 -0.1093 -0.1926
  242MOL   C10729509   3.663   6.875   1.710 -0.1623  0.4809  0.0894
  242MOL   H10829510   3.601   6.950   1.759 -1.4497 -0.3908 -0.2039
  242MOL   H10929511   3.592   6.798   1.679 -0.3934  0.5087  0.5503
  242MOL   C11029512   3.751   6.812   1.824 -0.4999 -0.7552  0.0508
  242MOL  Cl11129513   3.895   6.915   1.852 -0.1328 -0.1006 -0.2686
  242MOL  Cl11229514   3.814   6.657   1.775 -0.4020  0.3242 -0.0395
  242MOL   C11329515   3.671   6.799   1.953 -0.4849 -0.4017  0.3923
  242MOL   H11429516   3.732   6.751   2.030 -0.4711  0.9215  1.2281
  242MOL   H11529517   3.655   6.897   2.000 -0.3517  0.3807 -1.1650
  242MOL   C11629518   3.532   6.728   1.974  0.1171  0.6903  0.1722
  242MOL  Cl11729519   3.522   6.563   1.902 -0.0265 -0.2516  0.1490
  242MOL  Cl11829520   3.405   6.831   1.899  0.1426 -0.1838 -0.0130
  242MOL   C11929521   3.498   6.707   2.121 -0.3942 -0.1421 -0.6193
  242MOL   H12029522   3.487   6.803   2.171  0.7934 -0.3085 -0.0278
  242MOL   H12129523   3.408   6.645   2.129  1.0724 -2.2161  0.2076
  242MOL   H12229524   3.573   6.645   2.170 -1.8990 -3.2915 -2.1543
  243MOL     C129525   3.644   6.501   5.971  0.4940  0.4341  0.4127
  243MOL    Cl229526   3.678   6.582   5.811 -0.2585  0.1601 -0.1988
  243MOL    Cl329527   3.632   6.325   5.945 -0.3757  0.5423 -0.3740
  243MOL     C429528   3.751   6.529   6.077  0.4264  0.7035  0.0759
  243MOL     H529529   3.825   6.448   6.069  0.0480  0.4488 -0.8992
  243MOL     H629530   3.806   6.620   6.054 -0.6005  1.2533 -0.1905
  243MOL     H729531   3.550   6.545   6.005  0.2819  0.3703 -0.0930
  243MOL     C829532   3.703   6.550   6.223 -0.2852 -0.3905 -0.1926
  243MOL    Cl929533   3.605   6.409   6.278 -0.2070  0.2451 -0.1617
  243MOL   Cl1029534   3.595   6.694   6.238  0.0483  0.2122 -0.2732
  243MOL    C1129535   3.815   6.560   6.339  0.1336 -0.5395 -0.6332
  243MOL    H1229536   3.761   6.591   6.428  1.1337  3.8241 -1.4191
  243MOL    H1329537   3.848   6.461   6.369  1.5025 -0.3057 -1.2905
  243MOL    C1429538   3.951   6.633   6.312 -0.7262  0.4283  0.3918
  243MOL   Cl1529539   3.940   6.785   6.221 -0.0233  0.2498 -0.2510
  243MOL   Cl1629540   4.045   6.519   6.209  0.2197 -0.0580 -0.0288
  243MOL    C1729541   4.044   6.656   6.437 -0.2660 -0.0479  0.5186
  243MOL    H1829542   4.146   6.666   6.401 -0.6479 -0.2495 -0.6592
  243MOL    H1929543   4.016   6.746   6.492  1.0588  0.9623 -0.4326
  243MOL    C2029544   4.057   6.558   6.561  0.1757  0.8120  0.3092
  243MOL   Cl2129545   4.071   6.389   6.493 -0.2862 -0.0134  0.1150
  243MOL   Cl2229546   3.895   6.567   6.636 -0.4283  0.3947  0.4094
  243MOL    C2329547   4.172   6.595   6.656  0.0878  0.2475  0.0838
  243MOL    H2429548   4.265   6.562   6.611 -0.4092 -0.8458 -0.1524
  243MOL    H2529549   4.182   6.704   6.654 -1.6630  0.4254  0.4209
  243MOL    C2629550   4.178   6.562   6.808  0.3607 -0.6844 -0.0782
  243MOL   Cl2729551   4.057   6.651   6.905  0.4203 -0.0001  0.0669
  243MOL   Cl2829552   4.346   6.625   6.851  0.1577 -0.2286  0.3527
  243MOL    C2929553   4.165   6.406   6.825  0.0184 -0.2564  0.9501
  243MOL    H3029554   4.065   6.377   6.857 -0.6322  0.7934 -0.0950
  243MOL    H3129555   4.177   6.356   6.729 -0.6553  3.2298 -1.0475
  243MOL    C3229556   4.246   6.337   6.940 -0.8102  0.5319 -0.7781
  243MOL   Cl3329557   4.242   6.436   7.095 -0.0073  0.0527  0.0812
  243MOL   Cl3429558   4.411   6.315   6.881 -0.1843  0.1246 -0.2850
  243MOL    C3529559   4.178   6.198   6.970 -0.3015  0.0022 -0.1660
  243MOL    H3629560   4.093   6.215   7.036 -1.2829 -1.9517 -0.9016
  243MOL    H3729561   4.142   6.160   6.874 -0.3578  1.6993 -0.8397
  243MOL    C3829562   4.267   6.076   7.035  0.2558 -0.1774  0.0678
  243MOL   Cl3929563   4.155   5.966   7.106  0.1733 -0.2282 -0.2423
  243MOL   Cl4029564   4.351   6.153   7.173  0.2699 -0.2661 -0.3039
  243MOL    C4129565   4.371   5.994   6.947  0.0270 -0.6176  0.1157
  243MOL    H4229566   4.447   6.065   6.916 -2.0575  1.6058 -0.0448
  243MOL    H4329567   4.408   5.919   7.018 -0.1265 -1.1511 -0.3650
  243MOL    C4429568   4.337   5.922   6.816 -0.2369 -0.0930  0.0738
  243MOL   Cl4529569   4.288   6.037   6.689  0.0556  0.0127 -0.0584
  243MOL   Cl4629570   4.214   5.791   6.838 -0.7709  0.4457  0.2981
  243MOL    C4729571   4.471   5.847   6.771 -0.3813  0.6867 -0.1665
  243MOL    H4829572   4.554   5.914   6.748  0.1192 -0.0078 -0.3872
  243MOL    H4929573   4.507   5.790   6.857 -0.2350  0.7462 -0.1890
  243MOL    C5029574   4.471   5.729   6.664  0.8382  0.4442  0.3711
  243MOL   Cl5129575   4.435   5.571   6.745 -0.0962 -0.0285 -0.3407
  243MOL   Cl5229576   4.640   5.716   6.609  0.1915 -0.0901  0.0252
  243MOL    C5329577   4.377   5.758   6.545  0.8328  0.2123 -0.2017
  243MOL    H5429578   4.275   5.748   6.581  0.9278 -0.0925 -0.0164
  243MOL    H5529579   4.386   5.863   6.515 -2.8206  0.7764  0.4115
  243MOL    C5629580   4.401   5.686   6.410 -0.3715  0.3266 -0.2637
  243MOL   Cl5729581   4.535   5.776   6.323  0.0697  0.1839 -0.2272
  243MOL   Cl5829582   4.257   5.724   6.312  0.3124 -0.7437 -0.2085
  243MOL    C5929583   4.437   5.536   6.409  0.0613  0.4640  0.3022
  243MOL    H6029584   4.534   5.527   6.457  0.9488  1.5384 -1.2233
  243MOL    H6129585   4.366   5.487   6.475  1.0032 -1.5201 -0.0888
  243MOL    C6229586   4.426   5.446   6.285 -0.4468 -0.0266  0.3538
  243MOL   Cl6329587   4.259   5.412   6.245  0.3569 -0.1581 -0.0180
  243MOL   Cl6429588   4.502   5.292   6.341 -0.0188 -0.1001 -0.3175
  243MOL    C6529589   4.516   5.499   6.166  0.1552 -1.0887  0.6436
  243MOL    H6629590   4.480   5.601   6.152 -0.7871 -1.4034  0.7667
  243MOL    H6729591   4.615   5.516   6.209  0.9074  0.0715 -1.5096
  243MOL    C6829592   4.520   5.430   6.027  0.1214 -0.1065 -0.5597
  243MOL   Cl6929593   4.648   5.543   5.959  0.3967  0.2959 -0.2409
  243MOL   Cl7029594   4.381   5.466   5.922  0.0402 -0.0008  0.0899
  243MOL    C7129595   4.572   5.285   6.020  0.2890  1.1424 -0.6494
  243MOL    H7229596   4.676   5.293   6.050  0.2459  1.0116 -0.4612
  243MOL    H7329597   4.509   5.228   6.089  1.7244 -0.4374 -0.5924
  243MOL    C7429598   4.579   5.205   5.884  0.4384  0.0431 -0.6831
  243MOL   Cl7529599   4.637   5.310   5.761 -0.0520  0.0115  0.3260
  243MOL   Cl7629600   4.416   5.164   5.821 -0.3533 -0.1334 -0.4123
  243MOL    C7729601   4.663   5.076   5.894 -0.0079  0.6809 -0.7357
  243MOL    H7829602   4.587   5.009   5.933  0.8293  0.3926  0.4281
  243MOL    H7929603   4.686   5.051   5.790 -0.2139  1.8201 -1.0685
  243MOL    C8029604   4.793   5.058   5.979 -0.2379 -0.1827 -0.0483
  243MOL   Cl8129605   4.765   5.044   6.156 -0.0545 -0.2849 -0.0317
  243MOL   Cl8229606   4.900   5.189   5.952 -0.3990  0.1735 -0.2187
  243MOL    C8329607   4.880   4.935   5.926 -0.1165  0.0279  0.5418
  243MOL    H8429608   4.896   4.959   5.821 -1.5592 -0.6149  0.1646
  243MOL    H8529609   4.981   4.943   5.966  0.6657  0.3437 -1.4409
  243MOL    C8629610   4.836   4.786   5.936 -0.1994  0.8872 -0.1152
  243MOL   Cl8729611   4.674   4.757   5.877 -0.1902 -0.0790  0.3835
  243MOL   Cl8829612   4.842   4.736   6.107  0.4497  0.1452 -0.1737
  243MOL    C8929613   4.926   4.684   5.858  0.1835  0.1217  0.0517
  243MOL    H9029614   4.904   4.587   5.902 -1.6285  0.8855  0.8742
  243MOL    H9129615   4.888   4.673   5.757 -1.0781  1.0544  0.4127
  243MOL    C9229616   5.081   4.701   5.848  0.6656  0.4489  1.0077
  243MOL   Cl9329617   5.155   4.738   6.004 -0.0904  0.1782 -0.5088
  243MOL   Cl9429618   5.109   4.827   5.741 -0.1188 -0.6691  0.4557
  243MOL    C9529619   5.140   4.576   5.771 -0.2308  0.0549  0.7034
  243MOL    H9629620   5.113   4.487   5.829 -2.9850  1.0538  1.0498
  243MOL    H9729621   5.086   4.577   5.676 -0.4081 -1.4435  0.7749
  243MOL    C9829622   5.288   4.558   5.728 -0.5309  0.3026  0.3165
  243MOL   Cl9929623   5.399   4.581   5.873  0.0818 -0.1118  0.6085
  243MOL  Cl10029624   5.335   4.678   5.602 -0.1275  0.1153  0.0521
  243MOL   C10129625   5.314   4.418   5.667 -0.7677 -0.1695  0.5717
  243MOL   H10229626   5.259   4.350   5.733 -0.5039  1.3042  2.3252
  243MOL   H10329627   5.264   4.412   5.570 -1.1594  0.4730  0.7361
  243MOL   C10429628   5.458   4.358   5.643 -0.0896  0.3183 -0.1647
  243MOL  Cl10529629   5.425   4.207   5.558  0.2712  0.3061  0.1193
  243MOL  Cl10629630   5.534   4.302   5.802  0.4138 -0.2470  0.0052
  243MOL   C10729631   5.556   4.456   5.565  0.7440  0.2297 -0.1856
  243MOL   H10829632   5.503   4.484   5.473  1.2709 -0.1817 -0.6192
  243MOL   H10929633   5.557   4.553   5.614  0.6114 -0.3288  0.9353
  243MOL   C11029634   5.705   4.422   5.531  0.2346  0.0419  0.1133
  243MOL  Cl11129635   5.806   4.421   5.679 -0.1165  0.2157 -0.1603
  243MOL  Cl11229636   5.757   4.554   5.419  0.1774  0.1035  0.4570
  243MOL   C11329637   5.720   4.288   5.460  0.3851 -0.5199 -0.0931
  243MOL   H11429638   5.690   4.206   5.526 -1.6343  0.4250  0.1926
  243MOL   H11529639   5.644   4.280   5.382 -1.7578  3.9510  1.3820
  243MOL   C11629640   5.856   4.254   5.393  0.1528  0.5097 -0.5554
  243MOL  Cl11729641   5.883   4.334   5.243  0.1029 -0.4583  0.0175
  243MOL  Cl11829642   5.852   4.083   5.353 -0.4410  0.4247 -0.1773
  243MOL   C11929643   5.981   4.265   5.480 -0.6322 -0.1567 -0.0703
  243MOL   H12029644   5.962   4.229   5.581 -1.3018  2.4779  0.7639
  243MOL   H12129645   6.066   4.215   5.432 -0.2834  1.7805 -1.5286
  243MOL   H12229646   6.010   4.370   5.479  2.2044 -0.8770 -0.3815
  244MOL     C129647   0.484   4.189   3.821 -0.6079  0.3965  0.4842
  244MOL    Cl229648   0.648   4.236   3.876 -0.1502  0.1616  0.0753
  244MOL    Cl329649   0.480   4.036   3.732  0.1306  0.2081  0.2538
  244MOL     C429650   0.403   4.187   3.947 -0.2300 -0.0545 -0.3715
  244MOL     H529651   0.438   4.105   4.010 -1.8973 -0.2278  0.3498
  244MOL     H629652   0.429   4.276   4.003  0.7002 -2.8168  3.8329
  244MOL     H729653   0.448   4.267   3.754 -0.2158  0.4894  0.3826
  244MOL     C829654   0.247   4.183   3.943  0.6742 -0.3758 -0.1622
  244MOL    Cl929655   0.189   4.333   3.857 -0.3964  0.0814  0.2438
  244MOL   Cl1029656   0.205   4.205   4.111  0.5976  0.1057  0.0795
  244MOL    C1129657   0.174   4.068   3.872  0.3267 -0.0099  0.3974
  244MOL    H1229658   0.069   4.091   3.855  0.6735  0.5413 -1.0668
  244MOL    H1329659   0.207   4.065   3.768  0.5130  4.0749  0.2724
  244MOL    C1429660   0.169   3.922   3.934  0.1474  0.0134  0.0966
  244MOL   Cl1529661   0.063   3.921   4.085 -0.1078  0.2700  0.8724
  244MOL   Cl1629662   0.332   3.875   3.987 -0.1311  0.2519  0.1643
  244MOL    C1729663   0.114   3.819   3.819  1.3187  0.4277  0.1228
  244MOL    H1829664   0.030   3.868   3.771  2.3065 -0.8830 -3.0741
  244MOL    H1929665   0.190   3.822   3.741  0.7084  2.3579 -0.4252
  244MOL    C2029666   0.069   3.676   3.846  0.5006  0.2500  0.3606
  244MOL   Cl2129667   0.064   3.598   3.687  0.3313  0.5933  0.1496
  244MOL   Cl2229668   9.084   3.679   3.907  0.0945 -0.1916 -0.1110
  244MOL    C2329669   0.162   3.607   3.952 -0.4824  0.2420 -0.0516
  244MOL    H2429670   0.268   3.629   3.934 -0.7811  2.2578  0.4823
  244MOL    H2529671   0.148   3.671   4.039 -0.7259  1.6044 -1.0723
  244MOL    C2629672   0.159   3.453   3.981 -0.4674 -0.3724  0.3066
  244MOL   Cl2729673   0.199   3.361   3.831 -0.1943  0.1259  0.1557
  244MOL   Cl2829674   9.175   3.402   4.027  0.2975 -0.3454 -0.1666
  244MOL    C2929675   0.268   3.404   4.089 -0.3285 -0.5352  0.2060
  244MOL    H3029676   0.248   3.299   4.109  2.4340 -1.2931 -0.7386
  244MOL    H3129677   0.367   3.396   4.043 -1.0900  3.1591 -2.2816
  244MOL    C3229678   0.285   3.472   4.227 -0.5048 -0.2056  0.1175
  244MOL   Cl3329679   0.121   3.514   4.289 -0.3672 -0.2131 -0.0991
  244MOL   Cl3429680   0.382   3.621   4.203  0.1423 -0.1680  0.3110
  244MOL    C3529681   0.354   3.370   4.321 -0.0389  0.1062  0.0951
  244MOL    H3629682   0.287   3.285   4.333 -1.2033  0.8283 -1.2049
  244MOL    H3729683   0.435   3.327   4.261 -0.4610  0.2292 -0.5592
  244MOL    C3829684   0.429   3.405   4.453  0.1996 -0.1042 -0.1325
  244MOL   Cl3929685   0.331   3.520   4.539 -0.1479  0.1638  0.3281
  244MOL   Cl4029686   0.584   3.480   4.409 -0.1791  0.0302  0.1509
  244MOL    C4129687   0.451   3.284   4.546  0.1577  0.1082  0.5271
  244MOL    H4229688   0.355   3.266   4.594  0.1742  0.6701  0.7694
  244MOL    H4329689   0.462   3.193   4.487 -1.6489  0.1466  0.1025
  244MOL    C4429690   0.562   3.261   4.654 -0.4254  0.2983 -0.3136
  244MOL   Cl4529691   0.519   3.100   4.712  0.3275  0.6077  0.1207
  244MOL   Cl4629692   0.517   3.369   4.788 -0.1964  0.3369 -0.2204
  244MOL    C4729693   0.717   3.264   4.612 -0.3123 -0.1207 -0.0738
  244MOL    H4829694   0.733   3.370   4.593 -0.5958 -0.1648 -0.5751
  244MOL    H4929695   0.781   3.243   4.699 -2.7310 -2.8711  1.1516
  244MOL    C5029696   0.789   3.177   4.499 -0.7372 -0.0146 -0.7318
  244MOL   Cl5129697   0.699   3.153   4.351  0.3460  0.3890 -0.0442
  244MOL   Cl5229698   0.820   3.015   4.585 -0.2592  0.5291 -0.0863
  244MOL    C5329699   0.936   3.213   4.462  0.6845 -0.0104  0.1900
  244MOL    H5429700   1.003   3.203   4.548  2.3910 -0.3170 -1.1449
  244MOL    H5529701   0.961   3.137   4.388 -1.8188 -0.8474  0.1328
  244MOL    C5629702   0.978   3.350   4.397  0.2872 -0.2384  0.2806
  244MOL   Cl5729703   0.955   3.472   4.526  0.2184 -0.0469  0.0300
  244MOL   Cl5829704   0.876   3.394   4.259 -0.2511 -0.3106  0.1945
  244MOL    C5929705   1.131   3.352   4.342 -0.3781  0.4089  0.5816
  244MOL    H6029706   1.120   3.305   4.244  0.4201 -0.0502  0.7063
  244MOL    H6129707   1.154   3.456   4.322  0.6124  0.1086  0.1335
  244MOL    C6229708   1.249   3.281   4.411  0.5055 -0.5676 -0.6543
  244MOL   Cl6329709   1.221   3.102   4.421 -0.4163 -0.2132 -0.2670
  244MOL   Cl6429710   1.249   3.331   4.588  0.5749  0.1878  0.0702
  244MOL    C6529711   1.388   3.312   4.341  0.2416  0.5080 -0.4918
  244MOL    H6629712   1.414   3.414   4.368 -1.9825  0.2906  2.8215
  244MOL    H6729713   1.455   3.249   4.401 -1.3742  2.8043  3.9618
  244MOL    C6829714   1.410   3.298   4.192 -1.0907  0.4164 -0.5493
  244MOL   Cl6929715   1.315   3.421   4.106  0.0662  0.2402  0.1288
  244MOL   Cl7029716   1.356   3.137   4.137 -0.0534  0.3180 -0.2343
  244MOL    C7129717   1.549   3.334   4.132 -0.4204 -0.2740 -0.6749
  244MOL    H7229718   1.546   3.328   4.023 -1.2038 -1.4290 -0.5983
  244MOL    H7329719   1.556   3.443   4.134 -0.0964 -0.2739 -1.5053
  244MOL    C7429720   1.686   3.276   4.176  0.6947 -0.1354  1.1159
  244MOL   Cl7529721   1.688   3.098   4.141  0.2640 -0.0394  0.0057
  244MOL   Cl7629722   1.720   3.316   4.345  0.3739 -0.4477 -0.3807
  244MOL    C7729723   1.800   3.338   4.089  0.4434  0.7450  0.1093
  244MOL    H7829724   1.760   3.343   3.988  3.5025 -1.9243 -1.3178
  244MOL    H7929725   1.810   3.438   4.133 -0.2141  0.5869  0.6321
  244MOL    C8029726   1.944   3.281   4.074  1.2527 -0.4552 -0.1350
  244MOL   Cl8129727   1.956   3.140   3.980 -0.2277 -0.5419  0.1320
  244MOL   Cl8229728   2.016   3.234   4.232  0.4555 -0.0667 -0.0506
  244MOL    C8329729   2.045   3.383   4.018 -0.5584 -0.2554 -0.5029
  244MOL    H8429730   2.065   3.456   4.096  0.5528  1.5896 -2.4577
  244MOL    H8529731   2.128   3.318   3.990 -1.4904 -1.3131 -0.8849
  244MOL    C8629732   2.012   3.474   3.900 -0.0315 -0.3834  0.1544
  244MOL   Cl8729733   1.906   3.605   3.963  0.4396 -0.3112 -0.0678
  244MOL   Cl8829734   1.923   3.390   3.772 -0.1794 -0.4829  0.0400
  244MOL    C8929735   2.144   3.535   3.838 -0.0324  0.0713 -0.0557
  244MOL    H9029736   2.193   3.453   3.785  0.1267  0.7783 -1.0093
  244MOL    H9129737   2.101   3.608   3.770 -1.3918 -0.4712  0.2044
  244MOL    C9229738   2.252   3.596   3.927 -0.4507  0.0015 -0.0468
  244MOL   Cl9329739   2.326   3.464   4.022 -0.0199 -0.5112  0.4559
  244MOL   Cl9429740   2.186   3.722   4.031  0.0254 -0.0486  0.0012
  244MOL    C9529741   2.376   3.653   3.847 -0.2777  0.6750 -0.2599
  244MOL    H9629742   2.438   3.692   3.927 -0.1042  0.3985 -0.2580
  244MOL    H9729743   2.430   3.570   3.801  0.4960  1.0041  0.0462
  244MOL    C9829744   2.357   3.765   3.739 -0.0843  0.2846  0.4577
  244MOL   Cl9929745   2.281   3.678   3.598 -0.2507  0.0426 -0.0079
  244MOL  Cl10029746   2.524   3.813   3.695 -0.2067 -0.2441 -0.0186
  244MOL   C10129747   2.275   3.888   3.775 -0.5431 -0.1731 -0.0027
  244MOL   H10229748   2.176   3.853   3.803 -1.1554 -0.3113 -2.2662
  244MOL   H10329749   2.321   3.923   3.868  0.2645  0.5697 -0.6760
  244MOL   C10429750   2.265   4.008   3.684  0.6723 -0.2357  0.6148
  244MOL  Cl10529751   2.407   4.099   3.707  0.0217  0.0411  0.3865
  244MOL  Cl10629752   2.117   4.097   3.752  0.1689 -0.4681  0.0189
  244MOL   C10729753   2.249   3.976   3.535 -0.7661  0.4832  0.0848
  244MOL   H10829754   2.335   3.923   3.495  0.3284 -0.0546  2.9743
  244MOL   H10929755   2.167   3.903   3.530 -1.0190  0.9036 -2.4893
  244MOL   C11029756   2.205   4.087   3.433  0.2751 -0.1530 -0.4393
  244MOL  Cl11129757   2.032   4.125   3.455  0.3526 -0.1121  0.1943
  244MOL  Cl11229758   2.215   4.014   3.270  0.2022  0.1227  0.2067
  244MOL   C11329759   2.282   4.221   3.437 -0.5991  0.3839  0.4400
  244MOL   H11429760   2.228   4.302   3.387 -0.5735 -0.9209 -1.8030
  244MOL   H11529761   2.286   4.267   3.535 -2.5324 -3.4441  2.4085
  244MOL   C11629762   2.426   4.223   3.370 -0.6019  0.2022 -0.2713
  244MOL  Cl11729763   2.529   4.083   3.406  0.0306 -0.0605  0.0359
  244MOL  Cl11829764   2.507   4.363   3.433 -0.4121  0.2037 -0.0853
  244MOL   C11929765   2.420   4.225   3.213  0.4857  0.1473 -0.5245
  244MOL   H12029766   2.517   4.260   3.176  1.3480  0.3345  1.8256
  244MOL   H12129767   2.411   4.122   3.180  0.2597 -0.6279  1.8735
  244MOL   H12229768   2.329   4.275   3.181 -0.6764 -0.0711  2.3380
  245MOL     C129769   2.341   1.397   4.303 -0.2759 -0.2223 -0.0388
  245MOL    Cl229770   2.175   1.388   4.384 -0.0364  0.3163  0.1423
  245MOL    Cl329771   2.439   1.250   4.315 -0.0063  0.1698 -0.0304
  245MOL     C429772   2.324   1.422   4.152  0.1216  0.4273 -0.0952
  245MOL     H529773   2.425   1.405   4.114  0.7991 -3.3169  3.0158
  245MOL     H629774   2.254   1.352   4.107  0.0070  0.1942  0.4418
  245MOL     H729775   2.396   1.466   4.366  0.4016 -0.7323 -0.0721
  245MOL     C829776   2.283   1.561   4.113  0.0873  0.0308  0.3696
  245MOL    Cl929777   2.388   1.683   4.204  0.0426  0.1286 -0.2766
  245MOL   Cl1029778   2.112   1.595   4.143 -0.3882 -0.1986 -0.4492
  245MOL    C1129779   2.321   1.595   3.963 -0.0263  0.4384  0.2609
  245MOL    H1229780   2.305   1.701   3.942  0.2617  0.2871 -0.7286
  245MOL    H1329781   2.429   1.580   3.961  0.0228  0.9862 -1.5952
  245MOL    C1429782   2.251   1.527   3.845 -0.1953 -0.1315  0.6664
  245MOL   Cl1529783   2.289   1.356   3.859  0.1209 -0.3318  0.4378
  245MOL   Cl1629784   2.327   1.584   3.693  0.1130 -0.1965 -0.0236
  245MOL    C1729785   2.095   1.549   3.837 -0.4956 -0.3825  0.0623
  245MOL    H1829786   2.044   1.495   3.917  1.9478 -2.7748  0.0854
  245MOL    H1929787   2.086   1.652   3.870 -1.3730 -0.8975  1.4985
  245MOL    C2029788   2.014   1.520   3.704 -0.3822  0.4871 -0.1368
  245MOL   Cl2129789   1.849   1.519   3.767  0.0959  0.1587  0.0399
  245MOL   Cl2229790   2.054   1.365   3.637 -0.0173  0.2939  0.3902
  245MOL    C2329791   2.025   1.645   3.604 -0.3473  0.3458 -0.8364
  245MOL    H2429792   2.040   1.739   3.656  1.3461  0.8646 -2.2340
  245MOL    H2529793   2.118   1.614   3.556 -0.4036  0.9451 -1.3375
  245MOL    C2629794   1.916   1.655   3.490  0.0634  0.4700  0.9623
  245MOL   Cl2729795   1.860   1.495   3.417 -0.3198 -0.0753  0.3913
  245MOL   Cl2829796   2.002   1.737   3.359  0.1445 -0.1500 -0.1711
  245MOL    C2929797   1.798   1.744   3.542 -0.2254 -0.0984  0.0325
  245MOL    H3029798   1.749   1.681   3.617  0.9779 -4.4159 -2.6234
  245MOL    H3129799   1.843   1.830   3.592  0.0975  0.8447 -1.8646
  245MOL    C3229800   1.678   1.795   3.462 -0.1049  0.1372  0.0507
  245MOL   Cl3329801   1.740   1.880   3.321  0.1153 -0.0768  0.5171
  245MOL   Cl3429802   1.576   1.908   3.566  0.0096  0.6266 -0.0362
  245MOL    C3529803   1.582   1.674   3.416  0.8505  0.3612  0.4999
  245MOL    H3629804   1.639   1.624   3.337  0.0749 -0.7713  0.6417
  245MOL    H3729805   1.578   1.598   3.495  0.0765  0.1773  0.2865
  245MOL    C3829806   1.434   1.695   3.368  0.3504 -0.0232 -0.1718
  245MOL   Cl3929807   1.342   1.708   3.519 -0.1782  0.2780 -0.1553
  245MOL   Cl4029808   1.386   1.545   3.281 -0.0005  0.3392 -0.2092
  245MOL    C4129809   1.421   1.817   3.270 -0.0144 -0.8639  0.4862
  245MOL    H4229810   1.459   1.904   3.322 -0.9492 -1.0151  1.4547
  245MOL    H4329811   1.493   1.801   3.190 -1.7554 -0.4928 -1.2009
  245MOL    C4429812   1.290   1.850   3.191  0.1919  0.2590 -0.6721
  245MOL   Cl4529813   1.337   2.003   3.119 -0.1229 -0.3520  0.1685
  245MOL   Cl4629814   1.161   1.879   3.315 -0.2484  0.3290 -0.1691
  245MOL    C4729815   1.239   1.744   3.086  0.3483 -0.5486 -0.0722
  245MOL    H4829816   1.330   1.714   3.033 -0.9106  0.4274 -2.9252
  245MOL    H4929817   1.205   1.655   3.140  1.0991 -0.9277 -0.2232
  245MOL    C5029818   1.130   1.773   2.977 -0.5219 -0.6008 -0.4678
  245MOL   Cl5129819   1.193   1.896   2.866  0.2290 -0.0473  0.0752
  245MOL   Cl5229820   0.985   1.845   3.058 -0.3910 -0.4257 -0.3457
  245MOL    C5329821   1.080   1.638   2.911 -0.6084 -0.4375  0.0758
  245MOL    H5429822   1.029   1.576   2.985  0.4132 -2.0180 -0.5085
  245MOL    H5529823   1.008   1.666   2.834  0.7435 -0.4449 -1.2229
  245MOL    C5629824   1.191   1.544   2.847  0.4244  0.8783  1.1130
  245MOL   Cl5729825   1.309   1.461   2.951 -0.4316  0.1188 -0.3723
  245MOL   Cl5829826   1.294   1.640   2.736 -0.0384 -0.0343  0.1920
  245MOL    C5929827   1.120   1.435   2.758  0.9769 -0.0759  0.3925
  245MOL    H6029828   1.086   1.488   2.669  1.6516 -1.4615 -0.6960
  245MOL    H6129829   1.197   1.361   2.736 -0.8792 -1.3386 -2.0750
  245MOL    C6229830   0.997   1.354   2.809 -0.3689  1.0128 -0.3163
  245MOL   Cl6329831   0.848   1.447   2.788 -0.0974  0.0394  0.2521
  245MOL   Cl6429832   1.005   1.313   2.983  0.0372  0.0063  0.1339
  245MOL    C6529833   0.981   1.215   2.727 -0.0619  0.3040 -0.3028
  245MOL    H6629834   1.049   1.144   2.774 -0.9148 -0.3373 -0.0192
  245MOL    H6729835   0.883   1.180   2.760 -0.4416  2.4215  0.9116
  245MOL    C6829836   0.974   1.210   2.572  0.6274 -0.0604  0.3395
  245MOL   Cl6929837   0.938   1.023   2.553  0.4000 -0.1396 -0.0361
  245MOL   Cl7029838   1.132   1.233   2.503  0.0875  0.1907  0.5023
  245MOL    C7129839   0.870   1.295   2.493 -0.0461  0.4761  0.0591
  245MOL    H7229840   0.774   1.272   2.539  0.3997  1.4104  1.5013
  245MOL    H7329841   0.881   1.400   2.522  0.4722  0.6010 -0.5902
  245MOL    C7429842   0.849   1.284   2.341 -0.5711  0.6191 -0.0049
  245MOL   Cl7529843   0.989   1.358   2.265  0.3964 -0.0654  0.0473
  245MOL   Cl7629844   0.698   1.376   2.329 -0.5825  0.0955  0.3262
  245MOL    C7729845   0.822   1.146   2.289  0.6826 -0.0094  0.0662
  245MOL    H7829846   0.918   1.094   2.301  0.1248 -1.1940 -0.4776
  245MOL    H7929847   0.748   1.091   2.347 -0.0550 -0.4596 -1.2873
  245MOL    C8029848   0.796   1.116   2.138  0.2179  0.0222 -0.2456
  245MOL   Cl8129849   0.957   1.095   2.072  0.6699  0.5534 -0.4952
  245MOL   Cl8229850   0.715   1.243   2.048  0.3867 -0.0908  0.1534
  245MOL    C8329851   0.708   0.995   2.103  0.4751 -0.1187 -0.0185
  245MOL    H8429852   0.619   0.992   2.166  1.4126 -2.5842  1.2736
  245MOL    H8529853   0.663   0.997   2.004  1.4457 -2.1466 -0.5209
  245MOL    C8629854   0.754   0.848   2.132  0.0564  0.2047 -0.5001
  245MOL   Cl8729855   0.824   0.831   2.295 -0.0271 -0.2226 -0.1226
  245MOL   Cl8829856   0.871   0.808   2.006  0.1105 -0.4982  0.1632
  245MOL    C8929857   0.645   0.742   2.108  0.5771 -0.1436 -0.1414
  245MOL    H9029858   0.625   0.718   2.004  1.7377  0.5033 -0.5213
  245MOL    H9129859   0.695   0.651   2.141  3.7067  1.8286  0.7128
  245MOL    C9229860   0.505   0.763   2.173 -0.1709 -0.2493  0.2123
  245MOL   Cl9329861   0.432   0.602   2.155  0.0804  0.1372  0.1898
  245MOL   Cl9429862   0.414   0.872   2.061 -0.0603 -0.0033 -0.0285
  245MOL    C9529863   0.502   0.797   2.323 -0.3051  0.0882  0.6720
  245MOL    H9629864   0.563   0.720   2.370  0.5443  0.3775  0.0686
  245MOL    H9729865   0.561   0.889   2.333  0.3748 -0.3581  0.8043
  245MOL    C9829866   0.368   0.813   2.399  0.1792  0.7757 -0.2947
  245MOL   Cl9929867   0.281   0.662   2.431 -0.6442 -0.0473 -0.2254
  245MOL  Cl10029868   0.248   0.925   2.319  0.0730 -0.4136 -0.0783
  245MOL   C10129869   0.397   0.879   2.538 -0.4015  0.3901 -0.3288
  245MOL   H10229870   0.407   0.987   2.525 -1.3972  0.6346  0.9023
  245MOL   H10329871   0.298   0.878   2.585 -0.6825  1.1530 -0.8844
  245MOL   C10429872   0.496   0.831   2.643 -0.6118 -0.2083  0.1418
  245MOL  Cl10529873   0.663   0.851   2.580 -0.0426 -0.0844 -0.5132
  245MOL  Cl10629874   0.486   0.654   2.676  0.3536 -0.0985 -0.2004
  245MOL   C10729875   0.482   0.900   2.782 -0.2814 -0.1854  0.7821
  245MOL   H10829876   0.392   0.852   2.822 -0.4179 -0.5121  0.0959
  245MOL   H10929877   0.567   0.859   2.837  0.4996  0.5771  0.1461
  245MOL   C11029878   0.467   1.045   2.806  0.1577 -0.2460 -0.4137
  245MOL  Cl11129879   0.299   1.088   2.751 -0.0696  0.6803  0.2866
  245MOL  Cl11229880   0.578   1.135   2.698  0.5655 -0.4313  0.0277
  245MOL   C11329881   0.476   1.105   2.948 -0.0885 -0.6994  0.3572
  245MOL   H11429882   0.461   1.211   2.927  0.7800 -0.5287  0.6087
  245MOL   H11529883   0.389   1.077   3.008  0.1439 -1.0970  0.5076
  245MOL   C11629884   0.601   1.083   3.035  0.6426  0.0283 -0.4710
  245MOL  Cl11729885   0.758   1.086   2.955 -0.1574  0.0623  0.2416
  245MOL  Cl11829886   0.581   0.918   3.104  0.0545 -0.1001  0.4381
  245MOL   C11929887   0.601   1.171   3.159 -0.1399 -0.6485  0.6493
  245MOL   H12029888   0.500   1.165   3.201 -0.7918 -2.1860 -1.0671
  245MOL   H12129889   0.668   1.147   3.241  3.9626  2.7562 -1.5128
  245MOL   H12229890   0.624   1.273   3.129 -0.7216 -0.3886  1.0797
  246MOL     C129891   3.919   6.979   6.746 -0.0733  0.2284  0.0352
  246MOL    Cl229892   4.093   6.957   6.740 -0.0709 -0.4818 -0.1188
  246MOL    Cl329893   3.878   7.103   6.872  0.0720  0.1181  0.0878
  246MOL     C429894   3.879   7.025   6.603  0.3934  0.5099 -0.4390
  246MOL     H529895   3.900   7.131   6.594  2.0011  0.2475 -0.0532
  246MOL     H629896   3.932   6.968   6.527  1.4451 -0.4134  0.9548
  246MOL     H729897   3.875   6.883   6.771 -0.2340  0.4537  0.6380
  246MOL     C829898   3.728   6.998   6.565 -0.7242 -0.0981 -0.5566
  246MOL    Cl929899   3.627   7.085   6.684 -0.1600  0.7395  0.4780
  246MOL   Cl1029900   3.703   6.823   6.580  0.1109  0.3311 -0.2271
  246MOL    C1129901   3.669   7.036   6.425  0.6497 -0.8952  0.3381
  246MOL    H1229902   3.687   6.960   6.349 -0.3205 -1.2260  0.4347
  246MOL    H1329903   3.562   7.041   6.445  0.4617  1.8263 -1.1037
  246MOL    C1429904   3.693   7.171   6.351  0.1078  0.0142 -0.3091
  246MOL   Cl1529905   3.873   7.171   6.311 -0.0355 -0.1940  0.4126
  246MOL   Cl1629906   3.667   7.302   6.460  0.3345  0.4286  0.0776
  246MOL    C1729907   3.621   7.182   6.209 -0.0326 -0.5359 -0.0925
  246MOL    H1829908   3.655   7.274   6.163 -0.0999 -0.3683  0.1902
  246MOL    H1929909   3.677   7.108   6.152 -1.0060 -1.1067 -0.3258
  246MOL    C2029910   3.466   7.158   6.197 -0.0922 -0.6423 -0.4606
  246MOL   Cl2129911   3.405   6.994   6.232 -0.0380 -0.0881  0.0968
  246MOL   Cl2229912   3.429   7.188   6.021 -0.4329 -0.1840 -0.0583
  246MOL    C2329913   3.393   7.262   6.289  0.5497 -0.2975  0.8918
  246MOL    H2429914   3.404   7.217   6.387 -2.1626 -2.1387  0.4038
  246MOL    H2529915   3.455   7.351   6.281 -1.9583  1.6289  2.3597
  246MOL    C2629916   3.245   7.301   6.274  0.6665  0.2284  0.4778
  246MOL   Cl2729917   3.134   7.164   6.301  0.4970 -0.3553 -0.2510
  246MOL   Cl2829918   3.204   7.366   6.116 -0.0661 -0.0936  0.0817
  246MOL    C2929919   3.211   7.416   6.373  0.1418  0.5436  0.6789
  246MOL    H3029920   3.247   7.507   6.325  1.7231 -0.3173  0.2247
  246MOL    H3129921   3.103   7.426   6.363  0.3243  0.9561 -1.0355
  246MOL    C3229922   3.245   7.432   6.521 -0.5660  0.5510 -0.0874
  246MOL   Cl3329923   3.418   7.479   6.534  0.2085 -0.0743  0.1367
  246MOL   Cl3429924   3.233   7.266   6.599 -0.6871  0.0978 -0.0821
  246MOL    C3529925   3.143   7.530   6.587  0.4716  0.7205  0.6149
  246MOL    H3629926   3.047   7.477   6.589  0.1711  1.1447 -1.1639
  246MOL    H3729927   3.171   7.527   6.692  0.4369 -0.2090  0.6057
  246MOL    C3829928   3.120   7.678   6.541 -0.3384 -0.8169  0.0159
  246MOL   Cl3929929   3.070   7.693   6.371  0.2194  0.5482  0.4152
  246MOL   Cl4029930   3.278   7.769   6.544  0.0644 -0.0383 -0.2070
  246MOL    C4129931   3.033   7.763   6.637  0.7185  0.6942 -0.5385
  246MOL    H4229932   3.081   7.767   6.735  0.0893 -1.8857 -0.1026
  246MOL    H4329933   3.035   7.862   6.590 -0.0029  1.1723  0.4128
  246MOL    C4429934   2.878   7.738   6.649  0.0637 -0.0091 -0.2800
  246MOL   Cl4529935   2.846   7.577   6.701 -0.0420  0.1226  0.0880
  246MOL   Cl4629936   2.787   7.762   6.491 -0.1767  0.2047 -0.0944
  246MOL    C4729937   2.822   7.848   6.746  0.2676 -0.2659 -0.4590
  246MOL    H4829938   2.897   7.865   6.823 -0.8046 -0.1209  0.5735
  246MOL    H4929939   2.814   7.943   6.693 -0.6507  0.5581  1.1258
  246MOL    C5029940   2.696   7.815   6.840  0.6193  0.4528 -0.7555
  246MOL   Cl5129941   2.675   7.959   6.944  0.5482  0.2397  0.1345
  246MOL   Cl5229942   2.743   7.693   6.964 -0.4352 -0.1191  0.5333
  246MOL    C5329943   2.570   7.772   6.760 -0.2549  0.0354  0.0522
  246MOL    H5429944   2.554   7.862   6.701  1.9706 -0.7898 -1.9173
  246MOL    H5529945   2.588   7.687   6.694 -0.5136 -1.0272  1.3481
  246MOL    C5629946   2.435   7.752   6.825 -0.0239 -0.5707  0.5802
  246MOL   Cl5729947   2.325   7.707   6.684 -0.2739  0.1740 -0.0358
  246MOL   Cl5829948   2.375   7.909   6.890  0.1173 -0.0897 -0.1413
  246MOL    C5929949   2.436   7.644   6.941  0.9703  0.7814 -0.4361
  246MOL    H6029950   2.513   7.571   6.914  0.8060  1.1570 -1.9885
  246MOL    H6129951   2.466   7.680   7.040  0.8054  1.2866 -0.5646
  246MOL    C6229952   2.310   7.562   6.967  0.0183 -0.2281 -0.0319
  246MOL   Cl6329953   2.326   7.489   7.132 -0.3760 -0.0318  0.2000
  246MOL   Cl6429954   2.295   7.425   6.848  0.1385  0.1622 -0.2024
  246MOL    C6529955   2.184   7.652   6.974  0.4185  0.0307 -0.0300
  246MOL    H6629956   2.212   7.751   7.007  1.6453  0.2612 -1.7104
  246MOL    H6729957   2.152   7.669   6.871  2.0433 -0.4181 -0.6247
  246MOL    C6829958   2.051   7.618   7.053 -0.2666 -0.3284  0.7653
  246MOL   Cl6929959   1.933   7.743   6.998 -0.2301 -0.3406  0.1503
  246MOL   Cl7029960   2.079   7.653   7.230 -0.2646  0.0953 -0.4968
  246MOL    C7129961   2.000   7.472   7.025 -0.2081  0.6334  0.0037
  246MOL    H7229962   2.026   7.444   6.922 -0.3782 -0.7753  0.3268
  246MOL    H7329963   2.051   7.408   7.097 -0.5525 -1.0487 -1.2040
  246MOL    C7429964   1.852   7.425   7.038  0.9139  0.2115  0.0522
  246MOL   Cl7529965   1.859   7.247   7.033  0.0138  0.0182  0.1264
  246MOL   Cl7629966   1.752   7.471   6.887 -0.1052  0.1402  0.2618
  246MOL    C7729967   1.781   7.470   7.168 -0.8174 -0.1679  0.2194
  246MOL    H7829968   1.836   7.411   7.242  0.7905 -2.0683 -2.4307
  246MOL    H7929969   1.806   7.575   7.183 -0.4466 -0.2296  0.0378
  246MOL    C8029970   1.627   7.465   7.186 -0.2562 -0.2232  0.3666
  246MOL   Cl8129971   1.560   7.313   7.130 -0.0462 -0.3581 -0.3872
  246MOL   Cl8229972   1.557   7.597   7.088 -0.2242  0.3640 -0.0839
  246MOL    C8329973   1.580   7.485   7.332 -0.7472 -0.6273 -0.0146
  246MOL    H8429974   1.590   7.591   7.353  1.5327 -0.5038 -1.4564
  246MOL    H8529975   1.475   7.455   7.336 -1.0907  0.3555 -1.3565
  246MOL    C8629976   1.647   7.423   7.460  0.1979 -0.2528 -0.0015
  246MOL   Cl8729977   1.791   7.518   7.506 -0.0833  0.3456  0.2031
  246MOL   Cl8829978   1.699   7.259   7.427 -0.1391 -0.0118 -0.0811
  246MOL    C8929979   1.555   7.427   7.584 -0.2052  0.5405  0.2236
  246MOL    H9029980   1.498   7.334   7.577 -0.7294  0.8368  0.5389
  246MOL    H9129981   1.618   7.402   7.668 -1.1249 -3.0151 -0.0821
  246MOL    C9229982   1.467   7.552   7.622 -0.0089 -0.0543  1.1308
  246MOL   Cl9329983   1.340   7.591   7.501 -0.0197  0.0369 -0.2916
  246MOL   Cl9429984   1.565   7.696   7.643 -0.3411  0.1877 -0.0456
  246MOL    C9529985   1.388   7.519   7.748 -0.1632 -0.3017 -0.2880
  246MOL    H9629986   1.304   7.589   7.743 -1.3087 -1.7979 -3.4873
  246MOL    H9729987   1.344   7.420   7.734 -0.7161  0.0010 -0.7146
  246MOL    C9829988   1.446   7.530   7.898  0.8172 -0.3257  0.2205
  246MOL   Cl9929989   1.464   7.699   7.954  0.3683 -0.1150 -0.1089
  246MOL  Cl10029990   1.604   7.454   7.914  0.1956 -0.0363  0.1502
  246MOL   C10129991   1.355   7.466   8.009 -0.3371 -0.7634  0.6607
  246MOL   H10229992   1.420   7.441   8.093 -0.0603 -0.9481  0.3927
  246MOL   H10329993   1.289   7.549   8.037 -0.6367 -1.0098  0.6864
  246MOL   C10429994   1.267   7.346   7.991  0.3165  0.2804 -0.3208
  246MOL  Cl10529995   1.136   7.387   7.877  0.1745  0.2133  0.0911
  246MOL  Cl10629996   1.197   7.304   8.151  0.3286  0.1049  0.0738
  246MOL   C10729997   1.349   7.223   7.936 -0.1202 -0.6244  0.3956
  246MOL   H10829998   1.421   7.260   7.862  0.1068  0.1798  1.0134
  246MOL   H10929999   1.397   7.189   8.027  0.3616 -3.3217 -0.8281
  246MOL   C11030000   1.297   7.092   7.876  0.3496  0.6221 -0.8430
  246MOL  Cl11130001   1.248   7.108   7.704 -0.0773 -0.2044  0.1749
  246MOL  Cl11230002   1.142   7.055   7.957 -0.2200  0.1815  0.1143
  246MOL   C11330003   1.386   6.963   7.883 -0.6551 -0.2866 -0.2482
  246MOL   H11430004   1.377   6.931   7.987 -0.9189 -0.6590 -0.3859
  246MOL   H11530005   1.336   6.889   7.820 -0.9630  1.2608 -1.8289
  246MOL   C11630006   1.539   6.956   7.840 -1.0323  0.5407  0.8659
  246MOL  Cl11730007   1.644   7.074   7.927  0.1009  0.2877 -0.2794
  246MOL  Cl11830008   1.561   6.992   7.668  0.0264  0.6207 -0.2138
  246MOL   C11930009   1.594   6.816   7.871  0.1569 -0.1811 -0.1028
  246MOL   H12030010   1.564   6.767   7.963  1.3297 -0.0500  0.3455
  246MOL   H12130011   1.559   6.742   7.798  0.1796  0.5556 -0.8757
  246MOL   H12230012   1.703   6.815   7.873  0.1492 -2.5793  0.7831
  247MOL     C130013   1.467   3.606   5.909 -0.3908 -0.3463 -0.2839
  247MOL    Cl230014   1.509   3.770   5.960  0.0185  0.1201 -0.0614
  247MOL    Cl330015   1.314   3.556   5.990 -0.1398  0.3086  0.0006
  247MOL     C430016   1.451   3.597   5.759 -0.0765  0.2984 -0.2771
  247MOL     H530017   1.394   3.506   5.738 -1.3114  0.2142  3.1396
  247MOL     H630018   1.381   3.673   5.726  0.5576  0.6658 -0.7928
  247MOL     H730019   1.540   3.539   5.955  1.0232 -1.5741 -4.1037
  247MOL     C830020   1.573   3.604   5.660  0.5274 -0.2026 -0.1716
  247MOL    Cl930021   1.662   3.753   5.686  0.1857  0.1636 -0.3257
  247MOL   Cl1030022   1.488   3.618   5.501  0.2705 -0.0421  0.2985
  247MOL    C1130023   1.668   3.483   5.668  0.0790  0.0876  0.4414
  247MOL    H1230024   1.735   3.489   5.754  0.9800 -3.1054  0.0540
  247MOL    H1330025   1.614   3.392   5.694 -1.3561  0.8583  0.1546
  247MOL    C1430026   1.751   3.437   5.545  0.2504  0.2077 -0.5693
  247MOL   Cl1530027   1.649   3.369   5.419  0.1260 -0.2141 -0.3043
  247MOL   Cl1630028   1.858   3.305   5.602  0.2650 -0.4024  0.3334
  247MOL    C1730029   1.834   3.552   5.476  0.0189  0.1972  0.8267
  247MOL    H1830030   1.770   3.608   5.408 -0.1192 -0.5821  0.3144
  247MOL    H1930031   1.866   3.638   5.534  3.1764 -0.3324 -0.0462
  247MOL    C2030032   1.965   3.521   5.386 -0.3700  0.2078 -0.0143
  247MOL   Cl2130033   2.103   3.502   5.493 -0.4028  0.2694 -0.0389
  247MOL   Cl2230034   1.989   3.666   5.300  0.0897 -0.4115  0.0007
  247MOL    C2330035   1.953   3.401   5.285 -0.1070  0.6112  0.9285
  247MOL    H2430036   1.923   3.325   5.357  0.4174  0.7095  1.2507
  247MOL    H2530037   1.869   3.417   5.217 -0.1510  1.2206  1.1212
  247MOL    C2630038   2.065   3.327   5.206 -0.4810 -0.4597  0.2094
  247MOL   Cl2730039   2.180   3.223   5.307 -0.1285 -0.3839 -0.1476
  247MOL   Cl2830040   2.170   3.446   5.121  0.0852 -0.0318  0.1943
  247MOL    C2930041   2.006   3.232   5.096 -0.4969 -0.1163  0.6420
  247MOL    H3030042   1.981   3.289   5.006 -0.0655 -0.4993  0.2792
  247MOL    H3130043   2.086   3.161   5.079 -2.0176 -2.1239  1.7244
  247MOL    C3230044   1.889   3.136   5.129 -0.0381 -0.0505 -0.5532
  247MOL   Cl3330045   1.733   3.221   5.106  0.0207 -0.0824 -0.4840
  247MOL   Cl3430046   1.890   3.083   5.299  0.2576  0.0178 -0.1407
  247MOL    C3530047   1.874   2.997   5.059 -0.8651 -0.3688  0.3459
  247MOL    H3630048   1.962   2.939   5.087  0.3315  1.0142 -0.4567
  247MOL    H3730049   1.787   2.945   5.099 -1.0075 -1.6197 -1.5286
  247MOL    C3830050   1.872   2.991   4.901 -0.5065  0.3211  0.0921
  247MOL   Cl3930051   1.875   2.810   4.863  0.1313  0.2124 -0.2765
  247MOL   Cl4030052   2.020   3.065   4.840 -0.1573  0.4871 -0.0643
  247MOL    C4130053   1.741   3.050   4.842 -0.4172  0.2066 -0.6881
  247MOL    H4230054   1.667   3.014   4.913  0.9686  0.4196  0.9125
  247MOL    H4330055   1.766   3.156   4.853 -0.9597  0.2880 -0.2106
  247MOL    C4430056   1.694   3.017   4.695 -0.1928  0.3134  0.6576
  247MOL   Cl4530057   1.836   2.996   4.584  0.2754 -0.1841 -0.0271
  247MOL   Cl4630058   1.594   3.152   4.636 -0.2854 -0.0493 -0.1439
  247MOL    C4730059   1.605   2.894   4.680  0.2899  0.8407  0.4395
  247MOL    H4830060   1.580   2.892   4.574 -1.0330  1.5580  0.7305
  247MOL    H4930061   1.676   2.815   4.704  0.0441  0.2261 -0.8194
  247MOL    C5030062   1.482   2.866   4.775  0.7204 -0.4606  0.4580
  247MOL   Cl5130063   1.388   3.009   4.831  0.1870  0.1313 -0.1247
  247MOL   Cl5230064   1.528   2.759   4.908 -0.2811  0.0227  0.0504
  247MOL    C5330065   1.379   2.789   4.689  0.2884  0.3176  0.1063
  247MOL    H5430066   1.363   2.847   4.598 -0.4090  3.2131  2.0003
  247MOL    H5530067   1.430   2.696   4.667  2.9664  1.1482  2.4887
  247MOL    C5630068   1.235   2.742   4.728 -0.4135  0.0751 -0.3368
  247MOL   Cl5730069   1.185   2.627   4.594 -0.2782  0.0285  0.0747
  247MOL   Cl5830070   1.120   2.887   4.727 -0.2470  0.0618 -0.6176
  247MOL    C5930071   1.227   2.669   4.863 -0.1024 -0.3405 -0.0095
  247MOL    H6030072   1.305   2.593   4.866 -0.0466 -0.3383 -1.2190
  247MOL    H6130073   1.250   2.737   4.944  0.9750  1.1721 -1.5632
  247MOL    C6230074   1.099   2.589   4.907 -0.0168  0.8902  0.2372
  247MOL   Cl6330075   1.111   2.582   5.082  0.3996  0.2754  0.1972
  247MOL   Cl6430076   1.120   2.421   4.852  0.0948  0.0970 -0.1297
  247MOL    C6530077   0.956   2.644   4.869  0.2087 -0.0107 -0.2291
  247MOL    H6630078   0.949   2.744   4.912  1.2329 -0.2751  0.5892
  247MOL    H6730079   0.950   2.657   4.761  0.9852  1.9139 -0.0609
  247MOL    C6830080   0.825   2.567   4.894  0.0902 -0.2670 -0.1189
  247MOL   Cl6930081   0.805   2.422   4.784 -0.1736 -0.0075 -0.2034
  247MOL   Cl7030082   0.691   2.680   4.845 -0.2486 -0.0579  0.4526
  247MOL    C7130083   0.795   2.530   5.045 -0.5356 -0.3372 -0.1748
  247MOL    H7230084   0.886   2.476   5.072  0.8046  2.2251  0.7082
  247MOL    H7330085   0.795   2.627   5.096  0.4860 -0.4548  0.0553
  247MOL    C7430086   0.692   2.427   5.097 -0.7737  0.0821  0.7017
  247MOL   Cl7530087   0.740   2.264   5.049 -0.1195 -0.0182  0.2848
  247MOL   Cl7630088   0.532   2.446   5.023 -0.1095 -0.2032  0.5144
  247MOL    C7730089   0.673   2.420   5.251  0.0295 -0.4095 -0.3395
  247MOL    H7830090   0.612   2.507   5.274  0.4251 -0.3217  0.4054
  247MOL    H7930091   0.619   2.330   5.277 -1.9193  0.5144 -1.0853
  247MOL    C8030092   0.789   2.435   5.349 -0.4232  0.4640  0.2156
  247MOL   Cl8130093   0.848   2.605   5.356 -0.3383  0.1306 -0.2387
  247MOL   Cl8230094   0.925   2.339   5.294 -0.1003 -0.3020  0.6876
  247MOL    C8330095   0.764   2.371   5.494 -0.2549  0.2591  0.2954
  247MOL    H8430096   0.761   2.262   5.496  0.6246  0.0364 -4.0293
  247MOL    H8530097   0.855   2.389   5.551 -0.1011 -1.0380  0.4693
  247MOL    C8630098   0.641   2.402   5.580 -0.7673 -0.3394  0.1842
  247MOL   Cl8730099   0.675   2.322   5.737  0.0198 -0.2451 -0.2932
  247MOL   Cl8830100   0.502   2.316   5.502 -0.1756 -0.1368  0.2258
  247MOL    C8930101   0.625   2.555   5.592 -0.3414  0.0250  0.0714
  247MOL    H9030102   0.721   2.604   5.605 -0.2426 -0.0097 -0.4986
  247MOL    H9130103   0.584   2.577   5.493 -1.2640  1.1600  0.6859
  247MOL    C9230104   0.536   2.621   5.702  0.2500  0.0705  0.2665
  247MOL   Cl9330105   0.615   2.584   5.860 -0.2658 -0.5284 -0.1457
  247MOL   Cl9430106   0.368   2.543   5.689  0.0298  0.1422  0.0235
  247MOL    C9530107   0.522   2.778   5.695 -0.3847  0.0038  0.0838
  247MOL    H9630108   0.452   2.806   5.774 -0.3041 -1.3822  0.6601
  247MOL    H9730109   0.618   2.817   5.728  0.5300  0.0131 -2.4837
  247MOL    C9830110   0.506   2.860   5.562  0.4940 -1.0390 -0.1722
  247MOL   Cl9930111   0.392   2.775   5.456  0.5070 -0.0206 -0.1597
  247MOL  Cl10030112   0.670   2.861   5.496  0.0689  0.4612  0.0259
  247MOL   C10130113   0.456   3.013   5.591 -0.9400  0.3189 -0.7605
  247MOL   H10230114   0.381   3.005   5.670  1.3317 -2.7194  1.2224
  247MOL   H10330115   0.542   3.067   5.630 -0.6325 -0.1824 -0.7455
  247MOL   C10430116   0.403   3.106   5.479 -0.1089 -0.4203  0.4943
  247MOL  Cl10530117   0.384   3.262   5.566  0.5787 -0.1906 -0.1346
  247MOL  Cl10630118   0.245   3.047   5.420 -0.0157 -0.1187 -0.0006
  247MOL   C10730119   0.495   3.117   5.356 -0.2371 -0.5095  0.1249
  247MOL   H10830120   0.594   3.138   5.395 -0.7448 -1.4126  1.9655
  247MOL   H10930121   0.494   3.016   5.313  0.6895 -0.0655 -0.9724
  247MOL   C11030122   0.472   3.217   5.240  0.5826 -0.1920 -0.0519
  247MOL  Cl11130123   0.459   3.385   5.308 -0.1460 -0.1202  0.0723
  247MOL  Cl11230124   0.317   3.190   5.155  0.2284 -0.0679  0.0009
  247MOL   C11330125   0.589   3.215   5.146 -0.4875 -0.3158  0.3640
  247MOL   H11430126   0.552   3.285   5.071  1.1465  2.2952  1.9323
  247MOL   H11530127   0.669   3.275   5.189 -1.0118  0.0900  0.7769
  247MOL   C11630128   0.638   3.078   5.080 -0.5517 -0.4182 -0.2341
  247MOL  Cl11730129   0.734   2.985   5.197  0.2632 -0.3174 -0.1231
  247MOL  Cl11830130   0.747   3.120   4.947  0.0266  0.3452 -0.1550
  247MOL   C11930131   0.524   3.000   5.020  0.1945  0.1009  0.6638
  247MOL   H12030132   0.551   2.932   4.939 -0.8063  0.0521  0.3649
  247MOL   H12130133   0.475   2.942   5.098 -2.0592  2.0267  0.7157
  247MOL   H12230134   0.446   3.058   4.971 -1.1580  0.9737  3.7449
  248MOL     C130135   1.841   4.266   4.767 -0.0939  0.2563 -0.3086
  248MOL    Cl230136   1.921   4.247   4.923  0.2879 -0.1627  0.3289
  248MOL    Cl330137   1.676   4.196   4.788 -0.0442  0.0099 -0.3027
  248MOL     C430138   1.837   4.412   4.711 -0.2228 -0.2273  0.5738
  248MOL     H530139   1.781   4.402   4.618 -1.5474  0.3561  1.2936
  248MOL     H630140   1.767   4.473   4.769  1.3291  1.4119  0.7876
  248MOL     H730141   1.891   4.203   4.693  1.7452  1.7554 -0.3737
  248MOL     C830142   1.968   4.495   4.696  0.1637  0.1483  0.5251
  248MOL    Cl930143   2.092   4.374   4.631 -0.1322  0.2151 -0.2621
  248MOL   Cl1030144   2.025   4.543   4.861 -0.3487  0.2716  0.4925
  248MOL    C1130145   1.967   4.623   4.610 -0.4662  0.0557 -0.3183
  248MOL    H1230146   1.910   4.699   4.663 -2.7739 -2.7941  1.4065
  248MOL    H1330147   2.072   4.650   4.597 -0.7053  0.4167 -1.5924
  248MOL    C1430148   1.905   4.634   4.469 -0.1321  0.9640 -0.1461
  248MOL   Cl1530149   1.962   4.796   4.412  0.1207 -0.4153 -0.0276
  248MOL   Cl1630150   1.723   4.624   4.475  0.0246  0.2675  0.1530
  248MOL    C1730151   1.955   4.522   4.375 -0.0729 -0.3009  0.7825
  248MOL    H1830152   2.063   4.513   4.389  0.0960  0.0269 -0.2578
  248MOL    H1930153   1.915   4.428   4.414  0.1351 -0.5701  0.3513
  248MOL    C2030154   1.932   4.532   4.216 -0.7057 -0.6704 -0.5492
  248MOL   Cl2130155   2.074   4.615   4.142  0.0365 -0.0600  0.1006
  248MOL   Cl2230156   1.787   4.627   4.167  0.3816  0.1017 -0.0037
  248MOL    C2330157   1.906   4.393   4.148  0.8578 -0.0888  0.1353
  248MOL    H2430158   1.814   4.347   4.184  0.2251 -1.4329 -3.0242
  248MOL    H2530159   1.894   4.411   4.041 -1.6675 -1.2696  0.1778
  248MOL    C2630160   2.005   4.275   4.143 -0.3949  0.2720 -0.1033
  248MOL   Cl2730161   2.152   4.334   4.057 -0.0520  0.0131 -0.3200
  248MOL   Cl2830162   1.925   4.150   4.045 -0.1486 -0.2029 -0.1628
  248MOL    C2930163   2.032   4.222   4.288  0.2175 -0.4565  0.2099
  248MOL    H3030164   2.102   4.284   4.344 -0.3721 -0.2288  0.6946
  248MOL    H3130165   1.943   4.226   4.350 -0.8104  0.3318 -1.2954
  248MOL    C3230166   2.089   4.074   4.305  0.6788  0.0068 -0.1139
  248MOL   Cl3330167   2.165   4.057   4.460 -0.2495 -0.0841 -0.1210
  248MOL   Cl3430168   2.229   4.050   4.190  0.0218  0.0326  0.4051
  248MOL    C3530169   1.977   3.956   4.294  0.7620  0.1452  0.2774
  248MOL    H3630170   1.963   3.945   4.186 -0.4913  1.3140  0.3055
  248MOL    H3730171   2.035   3.874   4.337  2.4675  1.4169  0.4505
  248MOL    C3830172   1.834   3.974   4.365  0.8768 -0.5158 -0.4889
  248MOL   Cl3930173   1.727   4.109   4.293 -0.2562 -0.3745  0.0789
  248MOL   Cl4030174   1.845   4.009   4.541 -0.0983  0.2315  0.1109
  248MOL    C4130175   1.749   3.827   4.346 -0.0320 -0.1333 -0.1557
  248MOL    H4230176   1.755   3.802   4.241  1.9434  1.0079 -0.3384
  248MOL    H4330177   1.790   3.739   4.395  0.4854  0.1666 -0.0452
  248MOL    C4430178   1.597   3.822   4.383  0.2307 -0.6859 -0.2417
  248MOL   Cl4530179   1.546   3.646   4.367  0.3252  0.0173  0.0465
  248MOL   Cl4630180   1.503   3.913   4.266  0.3017  0.4682 -0.1372
  248MOL    C4730181   1.561   3.859   4.530 -0.4209 -0.0263 -0.6433
  248MOL    H4830182   1.634   3.810   4.594 -1.1244 -0.3295 -0.0655
  248MOL    H4930183   1.586   3.965   4.536  1.6834 -0.6234  2.1490
  248MOL    C5030184   1.428   3.826   4.617  0.1693 -0.4442  0.0961
  248MOL   Cl5130185   1.443   3.665   4.669 -0.2997  0.0537 -0.0178
  248MOL   Cl5230186   1.283   3.842   4.509  0.3339  0.0581  0.2737
  248MOL    C5330187   1.424   3.924   4.734 -0.0961 -0.1144  0.2785
  248MOL    H5430188   1.526   3.939   4.771  0.4208 -0.4465 -0.9720
  248MOL    H5530189   1.387   4.022   4.706 -0.5781 -0.3804 -0.0181
  248MOL    C5630190   1.347   3.893   4.868 -0.2334 -0.3909  0.2320
  248MOL   Cl5730191   1.177   3.872   4.821 -0.2046  0.3217  0.2342
  248MOL   Cl5830192   1.356   4.048   4.960  0.2815 -0.3042 -0.0398
  248MOL    C5930193   1.403   3.782   4.958  0.0577  0.9980 -0.3373
  248MOL    H6030194   1.358   3.689   4.923 -0.1178  1.0129 -0.1524
  248MOL    H6130195   1.510   3.772   4.936 -0.3503  1.7673 -2.7806
  248MOL    C6230196   1.398   3.783   5.115  0.1435  0.0042  0.1695
  248MOL   Cl6330197   1.398   3.609   5.171  0.2469 -0.3389  0.1693
  248MOL   Cl6430198   1.236   3.837   5.174  0.2872 -0.0384  0.0568
  248MOL    C6530199   1.505   3.863   5.189 -0.3324  0.3960  0.4564
  248MOL    H6630200   1.480   3.968   5.186  1.7845  1.0453  3.0901
  248MOL    H6730201   1.479   3.846   5.294 -2.4463  2.0237  0.2184
  248MOL    C6830202   1.661   3.845   5.147 -0.2464 -0.4505 -0.1173
  248MOL   Cl6930203   1.701   3.934   4.999 -0.0703 -0.0142  0.1300
  248MOL   Cl7030204   1.715   3.677   5.121 -0.0815  0.0887  0.1237
  248MOL    C7130205   1.751   3.908   5.258 -0.6163  0.1724  0.0990
  248MOL    H7230206   1.766   3.832   5.335 -1.0583 -0.6761 -0.6493
  248MOL    H7330207   1.850   3.913   5.212 -0.3522 -0.8504  0.5363
  248MOL    C7430208   1.717   4.036   5.338  0.4438 -0.1454  0.5288
  248MOL   Cl7530209   1.871   4.066   5.432 -0.2259  0.1476 -0.1202
  248MOL   Cl7630210   1.591   4.015   5.466  0.2989 -0.1083 -0.2035
  248MOL    C7730211   1.694   4.169   5.251  0.4269 -0.2538 -0.0470
  248MOL    H7830212   1.793   4.195   5.214 -0.5120  2.1382 -0.9632
  248MOL    H7930213   1.652   4.146   5.153 -1.7638 -1.4154  1.1399
  248MOL    C8030214   1.611   4.289   5.303  0.2653 -0.6948  0.3777
  248MOL   Cl8130215   1.668   4.346   5.458  0.1747 -0.1800  0.1553
  248MOL   Cl8230216   1.443   4.234   5.313 -0.1901 -0.1244  0.6762
  248MOL    C8330217   1.627   4.408   5.196 -1.2883  0.3737  0.0880
  248MOL    H8430218   1.727   4.444   5.224  0.2280 -1.7567 -2.3549
  248MOL    H8530219   1.657   4.367   5.100  0.6575  1.9432 -0.0162
  248MOL    C8630220   1.523   4.521   5.178 -0.5060 -0.2127  0.4834
  248MOL   Cl8730221   1.383   4.442   5.096 -0.6035  0.1794  0.5121
  248MOL   Cl8830222   1.605   4.637   5.077  0.3651 -0.0357 -0.0744
  248MOL    C8930223   1.482   4.586   5.310  0.2921 -0.2729  0.8492
  248MOL    H9030224   1.439   4.502   5.364 -0.4026 -0.5498 -0.1301
  248MOL    H9130225   1.570   4.619   5.366  0.2364  0.7895  0.3252
  248MOL    C9230226   1.375   4.704   5.321  0.4930 -0.4442 -0.6751
  248MOL   Cl9330227   1.234   4.690   5.214 -0.2574 -0.1979  0.0217
  248MOL   Cl9430228   1.454   4.863   5.273  0.1886  0.1977 -0.0356
  248MOL    C9530229   1.330   4.730   5.463  0.1884 -0.1094 -0.3120
  248MOL    H9630230   1.410   4.787   5.511 -0.3016  0.4396 -0.1368
  248MOL    H9730231   1.245   4.796   5.448 -0.8667 -1.0020  1.5947
  248MOL    C9830232   1.296   4.613   5.565  0.0448  0.3605  0.3012
  248MOL   Cl9930233   1.447   4.549   5.622 -0.1176 -0.3518 -0.3416
  248MOL  Cl10030234   1.191   4.483   5.483 -0.0467  0.6284  0.0844
  248MOL   C10130235   1.229   4.663   5.703 -0.3390  0.0688 -0.1143
  248MOL   H10230236   1.193   4.564   5.733 -0.9960  0.4384  0.3298
  248MOL   H10330237   1.306   4.694   5.773 -0.0777 -0.2976 -0.2416
  248MOL   C10430238   1.102   4.754   5.708  0.0375 -0.3233 -0.7724
  248MOL  Cl10530239   0.973   4.701   5.600 -0.0600 -0.2585 -0.1084
  248MOL  Cl10630240   1.158   4.919   5.663  0.0208  0.3155  0.0703
  248MOL   C10730241   1.045   4.766   5.850  0.0280  0.0901  1.0970
  248MOL   H10830242   1.110   4.824   5.915  0.3246  1.0076 -0.0107
  248MOL   H10930243   0.960   4.832   5.834 -0.4873 -0.7111  0.4646
  248MOL   C11030244   0.997   4.651   5.935 -0.6736 -0.2855 -0.6432
  248MOL  Cl11130245   1.118   4.536   5.975  0.1044 -0.1062  0.4968
  248MOL  Cl11230246   0.862   4.557   5.859 -0.2987  0.1772 -0.5817
  248MOL   C11330247   0.961   4.706   6.080  0.1298  0.4447  0.0594
  248MOL   H11430248   0.935   4.620   6.142  1.5426 -0.1609 -0.1647
  248MOL   H11530249   1.048   4.755   6.124  0.9888 -0.1118 -0.9837
  248MOL   C11630250   0.844   4.805   6.098  0.0886 -0.2859  0.4824
  248MOL  Cl11730251   0.917   4.966   6.060  0.3625  0.1547  0.5715
  248MOL  Cl11830252   0.803   4.805   6.268 -0.1525 -0.4036  0.3427
  248MOL   C11930253   0.726   4.779   6.008  0.5275 -0.0311  0.3169
  248MOL   H12030254   0.751   4.788   5.902  1.0342 -0.7959  0.3676
  248MOL   H12130255   0.676   4.683   6.023 -0.5141  0.3055 -0.9235
  248MOL   H12230256   0.652   4.855   6.034  0.7684  1.3897 -2.9721
  249MOL     C130257   2.817   4.948   2.663  0.3910  0.1584  0.2243
  249MOL    Cl230258   2.870   4.909   2.500  0.0953  0.1980  0.1594
  249MOL    Cl330259   2.674   5.068   2.664 -0.0633  0.1345  0.5057
  249MOL     C430260   2.773   4.820   2.738  0.7612  0.0070 -0.5435
  249MOL     H530261   2.721   4.848   2.830 -1.0755 -0.7093 -1.3547
  249MOL     H630262   2.682   4.782   2.692  0.2927 -0.4713  0.7434
  249MOL     H730263   2.905   4.999   2.703 -0.9949  2.4565  0.4525
  249MOL     C830264   2.866   4.706   2.792  0.7515 -0.3862  0.0456
  249MOL    Cl930265   3.021   4.779   2.845 -0.4175 -0.2464 -0.1965
  249MOL   Cl1030266   2.912   4.602   2.656  0.0057  0.2393  0.2172
  249MOL    C1130267   2.812   4.630   2.911 -0.2590  0.5225  0.3890
  249MOL    H1230268   2.887   4.574   2.966 -1.3579 -2.9745 -1.5641
  249MOL    H1330269   2.784   4.707   2.983  0.3283 -0.8647  2.1157
  249MOL    C1430270   2.705   4.524   2.902  0.1496  1.2266  0.2388
  249MOL   Cl1530271   2.567   4.598   2.818 -0.2905  0.1138  0.0945
  249MOL   Cl1630272   2.639   4.490   3.062  0.5923 -0.3081 -0.2122
  249MOL    C1730273   2.723   4.384   2.837 -0.3946  0.1553  0.1840
  249MOL    H1830274   2.633   4.328   2.863 -0.6452  1.0343  1.2794
  249MOL    H1930275   2.728   4.391   2.728 -0.9103  0.5633  0.1827
  249MOL    C2030276   2.846   4.293   2.875 -0.0861  0.6753 -0.2424
  249MOL   Cl2130277   2.871   4.262   3.053  0.1855 -0.2384  0.0780
  249MOL   Cl2230278   2.995   4.378   2.827  0.0288  0.2991  0.0183
  249MOL    C2330279   2.853   4.157   2.794  0.7940 -0.2302 -0.5164
  249MOL    H2430280   2.857   4.182   2.688  0.9242  0.5837 -0.3252
  249MOL    H2530281   2.940   4.097   2.824  1.4448  1.4620  1.0692
  249MOL    C2630282   2.748   4.049   2.817 -0.0411 -0.0113 -0.1328
  249MOL   Cl2730283   2.811   3.916   2.721  0.1003  0.2563 -0.1966
  249MOL   Cl2830284   2.598   4.093   2.732  0.0217 -0.1877  0.1735
  249MOL    C2930285   2.710   4.003   2.960 -0.4040 -0.0530  1.3280
  249MOL    H3030286   2.694   4.098   3.011 -1.2617  0.4009  0.2341
  249MOL    H3130287   2.613   3.954   2.952 -1.1277  1.4890  0.5650
  249MOL    C3230288   2.794   3.906   3.044  0.6687  0.5206 -0.8554
  249MOL   Cl3330289   2.733   3.743   2.984 -0.3840  0.2165 -0.3099
  249MOL   Cl3430290   2.741   3.932   3.212 -0.3615  0.0256  0.0909
  249MOL    C3530291   2.944   3.914   3.032 -0.8469 -0.3622 -0.2225
  249MOL    H3630292   2.966   3.894   2.927  2.5641 -1.1342  0.5769
  249MOL    H3730293   2.977   4.018   3.038  2.0877 -1.1894 -1.3305
  249MOL    C3830294   3.040   3.824   3.118 -0.0706  0.6384  0.0383
  249MOL   Cl3930295   3.035   3.879   3.287 -0.3896 -0.1159  0.0897
  249MOL   Cl4030296   3.195   3.863   3.040 -0.4074  0.0699  0.2976
  249MOL    C4130297   3.007   3.667   3.106  0.0259  0.4495 -0.6895
  249MOL    H4230298   2.911   3.668   3.158  0.9907 -0.2377  1.1306
  249MOL    H4330299   3.005   3.642   3.000 -1.5437  0.9484 -0.7972
  249MOL    C4430300   3.083   3.554   3.181  0.0813 -0.0269 -0.2717
  249MOL   Cl4530301   3.041   3.552   3.346 -0.0329  0.2375 -0.2652
  249MOL   Cl4630302   3.262   3.579   3.177 -0.2314 -0.4601 -0.4526
  249MOL    C4730303   3.049   3.410   3.118 -1.0230 -0.0401  0.2599
  249MOL    H4830304   3.062   3.429   3.011 -0.5017  2.2145  0.7011
  249MOL    H4930305   3.136   3.346   3.135 -0.4148  0.4504 -0.9720
  249MOL    C5030306   2.923   3.335   3.156 -0.9668  0.5099  0.2862
  249MOL   Cl5130307   2.775   3.439   3.172  0.2422 -0.3864 -0.3158
  249MOL   Cl5230308   2.948   3.248   3.315  0.0082  0.1504 -0.1992
  249MOL    C5330309   2.880   3.207   3.066  0.1200 -0.4750 -0.7967
  249MOL    H5430310   2.948   3.125   3.092  0.7879 -0.2328 -1.7707
  249MOL    H5530311   2.778   3.195   3.103 -0.3580  2.8649 -0.8817
  249MOL    C5630312   2.850   3.217   2.909 -0.5111 -0.0741  0.2771
  249MOL   Cl5730313   3.000   3.210   2.818 -0.1987 -0.2398  0.1417
  249MOL   Cl5830314   2.778   3.375   2.870 -0.0661  0.2362  0.0016
  249MOL    C5930315   2.752   3.106   2.863  0.2479  1.0991  0.8513
  249MOL    H6030316   2.657   3.116   2.915 -0.8702  1.0459 -1.1374
  249MOL    H6130317   2.714   3.127   2.763  0.7961 -2.5420 -0.2187
  249MOL    C6230318   2.790   2.956   2.858 -0.0842 -0.1477  0.1730
  249MOL   Cl6330319   2.635   2.884   2.820  0.3045 -0.1783 -0.1537
  249MOL   Cl6430320   2.820   2.897   3.027 -0.1233  0.1964 -0.3574
  249MOL    C6530321   2.910   2.918   2.769 -0.0118 -0.3991 -0.2007
  249MOL    H6630322   2.911   2.976   2.677  1.4934  0.3505  0.2760
  249MOL    H6730323   3.003   2.945   2.818  0.1055 -1.5784  0.2463
  249MOL    C6830324   2.924   2.772   2.706  1.0947 -0.2503  0.2231
  249MOL   Cl6930325   2.905   2.659   2.845  0.4321  0.2672 -0.1746
  249MOL   Cl7030326   3.089   2.760   2.646 -0.1271 -0.2057 -0.2830
  249MOL    C7130327   2.823   2.741   2.588 -0.2207 -0.3679  0.0793
  249MOL    H7230328   2.726   2.731   2.634  0.3077 -0.2483  1.2257
  249MOL    H7330329   2.814   2.830   2.525 -0.2682  0.6588  1.5028
  249MOL    C7430330   2.841   2.627   2.489  0.1492 -0.3115 -0.5422
  249MOL   Cl7530331   2.968   2.671   2.374 -0.1651 -0.3866  0.1290
  249MOL   Cl7630332   2.696   2.623   2.395  0.0080 -0.0286 -0.0102
  249MOL    C7730333   2.873   2.491   2.557 -0.4305  0.2069 -0.2270
  249MOL    H7830334   2.942   2.520   2.636 -2.9527  0.2553  2.0304
  249MOL    H7930335   2.783   2.449   2.601  0.3762 -0.6809  0.6005
  249MOL    C8030336   2.933   2.367   2.480 -0.2332  0.1611  0.0462
  249MOL   Cl8130337   2.944   2.245   2.604 -0.2778  0.3410 -0.3793
  249MOL   Cl8230338   3.108   2.394   2.433  0.2742 -0.2074  0.0171
  249MOL    C8330339   2.837   2.326   2.366  0.0847  0.2960 -0.5420
  249MOL    H8430340   2.735   2.332   2.405 -0.0089 -1.5467 -0.4902
  249MOL    H8530341   2.857   2.400   2.288  2.3462 -0.2622 -0.4956
  249MOL    C8630342   2.841   2.185   2.304  0.5207 -0.2449 -0.3098
  249MOL   Cl8730343   2.739   2.208   2.156  0.0203 -0.4791 -0.1401
  249MOL   Cl8830344   2.752   2.073   2.420  0.5845  0.4733 -0.1570
  249MOL    C8930345   2.978   2.130   2.258 -0.1663  0.4622 -0.2679
  249MOL    H9030346   3.029   2.213   2.211  2.0516 -1.4950 -1.3844
  249MOL    H9130347   3.027   2.100   2.351  0.6134 -0.4100 -0.9617
  249MOL    C9230348   2.997   2.016   2.154  0.3727  0.3361  0.2088
  249MOL   Cl9330349   3.163   1.956   2.179  0.1820 -0.2029  0.1881
  249MOL   Cl9430350   3.015   2.097   1.995 -0.1997  0.0759 -0.3321
  249MOL    C9530351   2.884   1.910   2.154  0.6467  0.5855  0.3629
  249MOL    H9630352   2.845   1.898   2.255  0.7209  2.1793  0.6042
  249MOL    H9730353   2.792   1.951   2.111  0.7683  0.3176 -0.1661
  249MOL    C9830354   2.897   1.765   2.089 -0.2586 -0.3422 -0.0956
  249MOL   Cl9930355   2.921   1.803   1.912 -0.1797 -0.1439 -0.1949
  249MOL  Cl10030356   2.740   1.682   2.101 -0.2420  0.1698 -0.1461
  249MOL   C10130357   3.002   1.668   2.146 -0.0031 -0.2837  0.3540
  249MOL   H10230358   3.006   1.591   2.068 -1.1720  1.9852 -2.0201
  249MOL   H10330359   3.098   1.719   2.137 -1.0257  1.5113 -0.4699
  249MOL   C10430360   2.995   1.584   2.283 -0.2100 -0.2043 -0.4167
  249MOL  Cl10530361   2.877   1.447   2.261 -0.2280 -0.1183  0.4406
  249MOL  Cl10630362   2.938   1.688   2.415  0.6506 -0.3591  0.0045
  249MOL   C10730363   3.137   1.528   2.327  0.0369  0.2369  0.2556
  249MOL   H10830364   3.204   1.614   2.331  0.8725 -0.3689 -0.5008
  249MOL   H10930365   3.121   1.498   2.431  2.3304  0.8031  0.8006
  249MOL   C11030366   3.217   1.414   2.255  0.2464 -0.7561 -0.4964
  249MOL  Cl11130367   3.219   1.429   2.083 -0.1788 -0.0692 -0.0415
  249MOL  Cl11230368   3.151   1.255   2.297 -0.1494  0.6446  0.5589
  249MOL   C11330369   3.370   1.415   2.289 -0.7567  0.5315 -0.4235
  249MOL   H11430370   3.407   1.322   2.246 -0.0934 -0.2655  1.8371
  249MOL   H11530371   3.426   1.482   2.223  0.1720 -1.1421 -1.3675
  249MOL   C11630372   3.424   1.437   2.435 -0.0137 -0.7257 -0.3861
  249MOL  Cl11730373   3.336   1.334   2.553 -0.1652 -0.1085 -0.0448
  249MOL  Cl11830374   3.407   1.613   2.472  0.1405 -0.2706 -0.4719
  249MOL   C11930375   3.576   1.406   2.441 -0.4524  0.3598 -0.2661
  249MOL   H12030376   3.639   1.478   2.389 -1.3427  0.0528 -1.7734
  249MOL   H12130377   3.612   1.409   2.544 -3.5664  0.1619  0.8728
  249MOL   H12230378   3.603   1.309   2.400  1.0164  0.8075 -0.4063
  250MOL     C130379   3.773   8.125   5.145  0.4642  0.3179  0.0241
  250MOL    Cl230380   3.862   8.188   5.005  0.3506  0.0971  0.2959
  250MOL    Cl330381   3.653   8.245   5.207 -0.1239  0.1025 -0.0213
  250MOL     C430382   3.697   7.994   5.103  0.3694 -0.5704 -0.3316
  250MOL     H530383   3.618   7.977   5.175  0.9037  0.0792  0.4090
  250MOL     H630384   3.640   8.017   5.013 -0.3444 -1.7265 -0.1778
  250MOL     H730385   3.844   8.111   5.226  0.2846  0.9046  0.2898
  250MOL     C830386   3.774   7.859   5.089 -0.2687 -0.5799 -0.3884
  250MOL    Cl930387   3.892   7.847   5.219 -0.1329 -0.1718 -0.1512
  250MOL   Cl1030388   3.864   7.854   4.933 -0.0633  0.2401  0.0409
  250MOL    C1130389   3.674   7.746   5.086  0.6894  0.6001  0.1415
  250MOL    H1230390   3.597   7.756   5.162  1.3070 -1.4557  1.0937
  250MOL    H1330391   3.616   7.761   4.995 -0.6520  4.8919  1.5925
  250MOL    C1430392   3.718   7.596   5.099  0.2815  0.6362 -0.0629
  250MOL   Cl1530393   3.556   7.526   5.065 -0.0302 -0.1150  0.3706
  250MOL   Cl1630394   3.769   7.562   5.265 -0.0543 -0.0951 -0.0038
  250MOL    C1730395   3.827   7.540   5.000  0.5456 -0.1370 -0.4339
  250MOL    H1830396   3.805   7.579   4.901  0.7728  0.2989 -0.3137
  250MOL    H1930397   3.921   7.590   5.023 -0.1913  0.3469  1.6730
  250MOL    C2030398   3.864   7.390   4.984 -0.3706 -0.6618 -1.2422
  250MOL   Cl2130399   3.730   7.281   5.019 -0.2143  0.3822 -0.0730
  250MOL   Cl2230400   3.984   7.347   5.109  0.0967 -0.0161  0.2246
  250MOL    C2330401   3.918   7.354   4.844  0.1348 -0.5984  0.5855
  250MOL    H2430402   3.898   7.248   4.827 -1.9889 -0.2209  0.6220
  250MOL    H2530403   3.847   7.408   4.783  1.1329  1.2826  1.0402
  250MOL    C2630404   4.066   7.383   4.801 -0.4723 -0.1175  0.2463
  250MOL   Cl2730405   4.184   7.283   4.892  0.1440  0.6205 -0.0791
  250MOL   Cl2830406   4.099   7.555   4.832  0.1443  0.1827 -0.0986
  250MOL    C2930407   4.097   7.358   4.650  0.0821  0.0138 -0.1931
  250MOL    H3030408   4.197   7.393   4.625  0.7372  0.0986  2.4325
  250MOL    H3130409   4.124   7.253   4.637  0.2861  0.2656 -2.0234
  250MOL    C3230410   4.002   7.397   4.530  0.1132 -0.1513  0.3625
  250MOL   Cl3330411   3.867   7.288   4.536  0.0323  0.0993 -0.2928
  250MOL   Cl3430412   4.084   7.373   4.373 -0.0361  0.0552  0.2845
  250MOL    C3530413   3.942   7.540   4.536  0.2431 -0.6846 -0.7644
  250MOL    H3630414   3.837   7.555   4.509  0.4708  1.4568 -0.5636
  250MOL    H3730415   3.916   7.561   4.640  0.0666  1.2275 -1.1659
  250MOL    C3830416   4.026   7.669   4.497  1.0915  0.1682  0.9142
  250MOL   Cl3930417   4.197   7.658   4.552  0.1446  0.3375 -0.4843
  250MOL   Cl4030418   3.963   7.798   4.596  0.2863 -0.1860 -0.0112
  250MOL    C4130419   4.032   7.707   4.348  0.0829 -0.2636 -0.6333
  250MOL    H4230420   4.091   7.799   4.345  1.6605 -1.2535 -0.2226
  250MOL    H4330421   4.088   7.641   4.282 -1.6914 -1.4971 -0.9454
  250MOL    C4430422   3.906   7.737   4.266 -0.2652 -0.0356  0.9082
  250MOL   Cl4530423   3.830   7.589   4.212 -0.1338  0.2035 -0.2126
  250MOL   Cl4630424   3.967   7.808   4.113 -0.7230 -0.5375  0.2486
  250MOL    C4730425   3.813   7.842   4.342 -0.1788  0.1601 -0.0238
  250MOL    H4830426   3.770   7.798   4.433  0.4311 -1.5615 -0.5582
  250MOL    H4930427   3.881   7.922   4.369 -1.1807  1.1880 -0.4958
  250MOL    C5030428   3.689   7.915   4.277 -0.6690  0.0495  0.0065
  250MOL   Cl5130429   3.567   7.795   4.219 -0.3601  0.1195 -0.2394
  250MOL   Cl5230430   3.741   8.008   4.135 -0.3450 -0.5782 -0.6713
  250MOL    C5330431   3.609   8.010   4.371  0.1341 -0.4914  0.0371
  250MOL    H5430432   3.523   8.057   4.323  0.7564 -1.2386 -1.8373
  250MOL    H5530433   3.558   7.946   4.444 -1.1699 -1.2736 -1.5307
  250MOL    C5630434   3.662   8.129   4.455 -0.5027  0.8643  0.0991
  250MOL   Cl5730435   3.717   8.262   4.344  0.0351  0.2368 -0.4082
  250MOL   Cl5830436   3.811   8.091   4.548  0.0431  0.5444 -0.3155
  250MOL    C5930437   3.558   8.188   4.552  0.2391  0.5497 -0.6495
  250MOL    H6030438   3.613   8.261   4.611 -0.4193 -0.3583  1.1077
  250MOL    H6130439   3.502   8.255   4.488  0.2052  0.4458 -0.7282
  250MOL    C6230440   3.477   8.114   4.664  0.1860 -0.0503  0.1667
  250MOL   Cl6330441   3.585   7.994   4.729 -0.1702  0.0695 -0.1444
  250MOL   Cl6430442   3.336   8.029   4.596  0.1372 -0.2984  0.2434
  250MOL    C6530443   3.439   8.216   4.777  0.1077 -0.4805 -0.1989
  250MOL    H6630444   3.406   8.145   4.853  1.4990 -1.1932 -0.2649
  250MOL    H6730445   3.530   8.258   4.819 -0.9388 -0.8137  2.5061
  250MOL    C6830446   3.303   8.300   4.753  0.6786 -0.2853 -1.0038
  250MOL   Cl6930447   3.153   8.200   4.804 -0.2844  0.2092 -0.2019
  250MOL   Cl7030448   3.273   8.329   4.580  0.4066 -0.2647 -0.1130
  250MOL    C7130449   3.313   8.438   4.821 -0.3166  0.1421  0.0364
  250MOL    H7230450   3.407   8.482   4.788 -1.1545  2.9341  1.2259
  250MOL    H7330451   3.242   8.504   4.771  0.5121  1.0836  0.0782
  250MOL    C7430452   3.282   8.443   4.980 -0.3230 -0.4172 -0.0589
  250MOL   Cl7530453   3.357   8.313   5.077  0.3413 -0.0579 -0.3568
  250MOL   Cl7630454   3.110   8.434   5.003 -0.0326  0.2748 -0.1877
  250MOL    C7730455   3.312   8.592   5.024 -0.1441 -0.4324  0.1185
  250MOL    H7830456   3.288   8.645   4.932 -0.9132  0.1938  0.6690
  250MOL    H7930457   3.238   8.630   5.095  0.6619  0.5611  0.4513
  250MOL    C8030458   3.456   8.627   5.075  0.2017  0.5008  0.1750
  250MOL   Cl8130459   3.469   8.801   5.046 -0.0518 -0.0730  0.3560
  250MOL   Cl8230460   3.575   8.533   4.982 -0.2446 -0.1058 -0.1934
  250MOL    C8330461   3.473   8.610   5.230 -0.4159 -0.1624  0.0583
  250MOL    H8430462   3.510   8.511   5.257  2.0239  1.1407  1.6316
  250MOL    H8530463   3.562   8.665   5.262 -1.4047  0.6399  1.4685
  250MOL    C8630464   3.368   8.647   5.335  0.8648  0.6530 -0.4415
  250MOL   Cl8730465   3.250   8.522   5.334  0.4067 -0.2632  0.0321
  250MOL   Cl8830466   3.283   8.794   5.308  0.0191 -0.0669 -0.1264
  250MOL    C8930467   3.426   8.661   5.482  0.5213  0.5409  0.6152
  250MOL    H9030468   3.474   8.759   5.477  2.1044 -0.2947 -1.4134
  250MOL    H9130469   3.334   8.652   5.540 -0.1817 -2.6134 -0.8976
  250MOL    C9230470   3.536   8.567   5.536 -0.0580  0.0191 -0.8080
  250MOL   Cl9330471   3.691   8.582   5.467  0.1301  0.0658 -0.2379
  250MOL   Cl9430472   3.500   8.395   5.511  0.1413  0.0622 -0.2784
  250MOL    C9530473   3.537   8.587   5.692  0.4647 -1.3316 -0.1573
  250MOL    H9630474   3.437   8.559   5.723  0.1706  0.1060  0.2160
  250MOL    H9730475   3.614   8.518   5.725  0.5339  0.5727  3.9522
  250MOL    C9830476   3.556   8.725   5.763  0.0700 -0.2808  0.5639
  250MOL   Cl9930477   3.435   8.842   5.716 -0.0039 -0.0020 -0.0477
  250MOL  Cl10030478   3.709   8.798   5.722  0.0189 -0.0778  0.0676
  250MOL   C10130479   3.548   8.711   5.918  0.1444  0.4053 -0.1945
  250MOL   H10230480   3.597   8.801   5.954 -1.1471  1.6002 -1.3456
  250MOL   H10330481   3.440   8.722   5.933  0.2471  1.6063 -0.3023
  250MOL   C10430482   3.609   8.586   5.988  0.3671 -0.3960 -0.0416
  250MOL  Cl10530483   3.777   8.559   5.931 -0.2018  0.1081 -0.0224
  250MOL  Cl10630484   3.509   8.436   5.949 -0.4222  0.0591 -0.1377
  250MOL   C10730485   3.604   8.588   6.143  0.6391 -0.2882  0.2314
  250MOL   H10830486   3.500   8.585   6.174 -0.4811  0.6391 -3.2009
  250MOL   H10930487   3.654   8.496   6.173  0.2234 -1.3837 -2.2874
  250MOL   C11030488   3.661   8.705   6.227 -0.4732  0.2523  0.0665
  250MOL  Cl11130489   3.646   8.628   6.392  0.2138  0.4462 -0.0411
  250MOL  Cl11230490   3.550   8.846   6.226 -0.4277 -0.2904 -0.1653
  250MOL   C11330491   3.811   8.742   6.194  0.1138  0.1111  0.0283
  250MOL   H11430492   3.863   8.647   6.180 -2.4101 -1.0066 -2.2140
  250MOL   H11530493   3.807   8.790   6.096  0.3228  2.1472  1.0019
  250MOL   C11630494   3.906   8.833   6.278  0.6364  0.6300 -0.3469
  250MOL  Cl11730495   3.857   9.004   6.268  0.1548  0.2647 -0.1858
  250MOL  Cl11830496   4.060   8.827   6.197  0.1687 -0.0324 -0.0551
  250MOL   C11930497   3.915   8.796   6.421  0.6672  0.2750 -0.1792
  250MOL   H12030498   3.991   8.856   6.471  0.6944 -0.2909  0.4723
  250MOL   H12130499   3.818   8.815   6.468  1.2885  1.4806  0.6618
  250MOL   H12230500   3.954   8.696   6.436  1.0708  0.2357 -1.4420
  251MOL     C130501   5.400   5.094   3.770 -0.0333  0.3033  0.5043
  251MOL    Cl230502   5.503   4.999   3.878  0.1095 -0.4751 -0.4684
  251MOL    Cl330503   5.231   5.031   3.776  0.2024 -0.2293 -0.4025
  251MOL     C430504   5.433   5.242   3.800 -0.3053 -0.4032 -0.1174
  251MOL     H530505   5.383   5.260   3.895 -1.4348 -1.5209 -0.4776
  251MOL     H630506   5.539   5.262   3.812 -0.0226 -1.1921 -1.2104
  251MOL     H730507   5.428   5.065   3.669 -2.4619  1.1070 -0.4502
  251MOL     C830508   5.397   5.353   3.705 -0.1977 -0.1509  0.2611
  251MOL    Cl930509   5.501   5.321   3.559 -0.0948  0.0614  0.1662
  251MOL   Cl1030510   5.451   5.509   3.792  0.3992 -0.2493  0.0975
  251MOL    C1130511   5.259   5.361   3.654  0.2801  0.2302  0.4039
  251MOL    H1230512   5.270   5.437   3.576 -0.0397  0.0640  0.1960
  251MOL    H1330513   5.232   5.270   3.601 -0.7573  0.4979  0.4530
  251MOL    C1430514   5.134   5.413   3.734  0.1155  0.4149 -0.2597
  251MOL   Cl1530515   5.139   5.587   3.769 -0.0170  0.0648  0.3312
  251MOL   Cl1630516   5.128   5.320   3.888  0.0167 -0.0714 -0.0471
  251MOL    C1730517   5.002   5.380   3.654  0.3733 -0.0617  0.4457
  251MOL    H1830518   5.009   5.276   3.622 -1.8774 -0.1457  0.1303
  251MOL    H1930519   4.925   5.384   3.732  0.5832 -1.0857  0.7174
  251MOL    C2030520   4.943   5.457   3.529  0.0375  0.9514  0.1909
  251MOL   Cl2130521   5.074   5.447   3.408  0.2840 -0.2387  0.2427
  251MOL   Cl2230522   4.905   5.621   3.581  0.4370 -0.2510  0.2183
  251MOL    C2330523   4.810   5.388   3.478  0.0494 -0.1348 -0.2085
  251MOL    H2430524   4.833   5.285   3.503 -3.0516 -0.4896  1.4461
  251MOL    H2530525   4.731   5.418   3.547  2.1314 -0.3259  2.3535
  251MOL    C2630526   4.765   5.400   3.327 -0.0462  0.5592  0.2728
  251MOL   Cl2730527   4.868   5.298   3.221 -0.0221 -0.0055  0.1101
  251MOL   Cl2830528   4.785   5.572   3.274 -0.0941 -0.3435 -0.1693
  251MOL    C2930529   4.618   5.339   3.305  0.6163  0.2091  0.5092
  251MOL    H3030530   4.549   5.413   3.347 -0.4988 -0.9217  0.7096
  251MOL    H3130531   4.593   5.355   3.200  1.6254  3.7591  0.7436
  251MOL    C3230532   4.566   5.200   3.349 -0.0660  0.0917  0.1450
  251MOL   Cl3330533   4.568   5.197   3.526 -0.2159 -0.0019 -0.1843
  251MOL   Cl3430534   4.663   5.057   3.288  0.1827  0.3452 -0.5702
  251MOL    C3530535   4.431   5.149   3.298  0.7265 -0.1868  0.2994
  251MOL    H3630536   4.442   5.112   3.197 -2.4664 -0.2421 -0.0862
  251MOL    H3730537   4.409   5.065   3.364 -0.4585 -1.0768 -1.2161
  251MOL    C3830538   4.305   5.247   3.295  0.3990  0.5376  0.3542
  251MOL   Cl3930539   4.325   5.377   3.176 -0.0416 -0.1683  0.4651
  251MOL   Cl4030540   4.272   5.320   3.449  0.7502  0.0794  0.1707
  251MOL    C4130541   4.167   5.179   3.264 -0.2294  0.2162 -0.2242
  251MOL    H4230542   4.142   5.117   3.351 -1.8928  0.2428 -0.6600
  251MOL    H4330543   4.097   5.261   3.252 -0.5933  0.0728  0.8551
  251MOL    C4430544   4.147   5.086   3.140  0.2197 -0.5127 -0.6070
  251MOL   Cl4530545   3.969   5.056   3.136 -0.0189  0.0460 -0.0686
  251MOL   Cl4630546   4.228   4.933   3.175  0.2839  0.1921 -0.1343
  251MOL    C4730547   4.193   5.145   3.008 -0.8228 -1.2871  0.0204
  251MOL    H4830548   4.155   5.246   2.997  1.3685 -0.3805  0.4722
  251MOL    H4930549   4.299   5.168   3.020 -1.0466 -0.1347 -0.1296
  251MOL    C5030550   4.168   5.076   2.865 -0.1492 -0.1320  0.0843
  251MOL   Cl5130551   4.262   5.173   2.756  0.0808  0.0618 -0.2347
  251MOL   Cl5230552   3.991   5.109   2.818 -0.7170  0.0649  0.2335
  251MOL    C5330553   4.215   4.929   2.862  0.0237  0.4750 -0.5941
  251MOL    H5430554   4.315   4.930   2.905 -0.2775 -3.0283  0.3939
  251MOL    H5530555   4.144   4.887   2.934 -1.3214  1.0262 -1.5863
  251MOL    C5630556   4.227   4.847   2.732 -0.2645  0.1461 -0.1989
  251MOL   Cl5730557   4.348   4.898   2.619 -0.2843  0.1628  0.6738
  251MOL   Cl5830558   4.073   4.861   2.636 -0.5924  0.2056  0.0542
  251MOL    C5930559   4.248   4.692   2.749  0.7553 -0.3727 -0.0099
  251MOL    H6030560   4.152   4.655   2.785 -0.7749  0.2657 -3.2212
  251MOL    H6130561   4.240   4.650   2.649 -2.1511  0.9549 -0.3954
  251MOL    C6230562   4.348   4.634   2.850  0.8808 -0.4285  0.0340
  251MOL   Cl6330563   4.353   4.460   2.822 -0.4020 -0.0491  0.3064
  251MOL   Cl6430564   4.271   4.654   3.012 -0.1268  0.4071  0.0073
  251MOL    C6530565   4.497   4.685   2.842 -0.1826 -0.6487 -0.2220
  251MOL    H6630566   4.547   4.652   2.751 -0.7162 -0.3762 -0.6131
  251MOL    H6730567   4.502   4.792   2.821  0.9553 -1.0065 -1.8055
  251MOL    C6830568   4.599   4.659   2.957 -1.0782  1.0820  0.4857
  251MOL   Cl6930569   4.556   4.785   3.078  0.2533  0.1481  0.0442
  251MOL   Cl7030570   4.754   4.720   2.889  0.2179 -0.1848  0.2753
  251MOL    C7130571   4.601   4.513   3.020 -1.1556 -0.1147  0.7325
  251MOL    H7230572   4.506   4.500   3.071 -2.0931  2.3457 -0.3277
  251MOL    H7330573   4.590   4.436   2.943 -0.4130 -0.1922  0.7021
  251MOL    C7430574   4.716   4.460   3.117  0.5129  0.1617  0.0473
  251MOL   Cl7530575   4.725   4.567   3.259  0.3291  0.0592 -0.2287
  251MOL   Cl7630576   4.869   4.467   3.036  0.0347 -0.2028 -0.1182
  251MOL    C7730577   4.703   4.316   3.174  1.0424 -0.2577  0.4448
  251MOL    H7830578   4.716   4.244   3.093 -1.9351 -0.5545  0.1730
  251MOL    H7930579   4.783   4.304   3.247 -1.5469  0.1925  3.4252
  251MOL    C8030580   4.574   4.259   3.238 -0.1903  0.1669  0.2953
  251MOL   Cl8130581   4.460   4.198   3.116 -0.2490  0.3889  0.0527
  251MOL   Cl8230582   4.486   4.379   3.334 -0.0903 -0.0972  0.0746
  251MOL    C8330583   4.595   4.150   3.343  0.8178 -0.0322  0.3204
  251MOL    H8430584   4.640   4.209   3.422  1.3090 -0.3497  0.2800
  251MOL    H8530585   4.496   4.130   3.386 -0.1928  0.7669 -1.5858
  251MOL    C8630586   4.644   4.003   3.319  0.6886  0.1341 -0.3078
  251MOL   Cl8730587   4.785   4.010   3.214 -0.2171  0.5129 -0.2135
  251MOL   Cl8830588   4.517   3.916   3.230  0.0418 -0.2267  0.0802
  251MOL    C8930589   4.668   3.928   3.451 -0.8498 -0.1203 -0.1117
  251MOL    H9030590   4.589   3.946   3.524  0.0679  0.1828  0.8301
  251MOL    H9130591   4.669   3.823   3.421 -2.4064 -0.9642  2.6094
  251MOL    C9230592   4.801   3.945   3.533  0.6296  0.5349  0.6644
  251MOL   Cl9330593   4.827   4.118   3.575  0.0144  0.0343 -0.3914
  251MOL   Cl9430594   4.943   3.893   3.444 -0.0181  0.0348  0.3082
  251MOL    C9530595   4.800   3.881   3.680  0.4002  0.3424 -0.5507
  251MOL    H9630596   4.889   3.907   3.737  0.5451 -0.0202 -0.6132
  251MOL    H9730597   4.728   3.933   3.744  0.7677  1.8397 -1.3148
  251MOL    C9830598   4.780   3.732   3.711  1.0914  0.1158  0.1409
  251MOL   Cl9930599   4.923   3.657   3.647  0.3697 -0.1307  0.1833
  251MOL  Cl10030600   4.632   3.670   3.624  0.2256  0.0913 -0.2035
  251MOL   C10130601   4.775   3.709   3.865 -0.1051 -0.1074  0.0314
  251MOL   H10230602   4.869   3.735   3.914  0.0931 -0.8102  0.0274
  251MOL   H10330603   4.692   3.770   3.901  0.6147  0.2348  1.1599
  251MOL   C10430604   4.744   3.567   3.919 -0.5181 -1.1764  0.3114
  251MOL  Cl10530605   4.862   3.437   3.874  0.0437  0.3846 -0.1873
  251MOL  Cl10630606   4.581   3.500   3.885 -0.3143  0.2199  0.2249
  251MOL   C10730607   4.768   3.560   4.072  0.2430 -0.1995 -0.0937
  251MOL   H10830608   4.735   3.461   4.104  0.2023  0.1071  0.8209
  251MOL   H10930609   4.875   3.575   4.085  0.4458  0.8176 -2.5552
  251MOL   C11030610   4.700   3.660   4.175  0.3187 -0.6148 -0.1090
  251MOL  Cl11130611   4.522   3.665   4.142  0.3109 -0.2065 -0.0497
  251MOL  Cl11230612   4.759   3.834   4.154  0.3410 -0.0073 -0.3086
  251MOL   C11330613   4.717   3.611   4.319 -0.1230  0.4379 -0.5028
  251MOL   H11430614   4.658   3.683   4.376 -0.8568  1.3184 -2.3247
  251MOL   H11530615   4.658   3.522   4.340 -1.4395  1.0538 -1.5186
  251MOL   C11630616   4.855   3.596   4.372  0.4233  0.4149  0.5378
  251MOL  Cl11730617   4.948   3.461   4.295 -0.3817 -0.1561 -0.1678
  251MOL  Cl11830618   4.849   3.549   4.544 -0.4014  0.1790 -0.2802
  251MOL   C11930619   4.942   3.726   4.364 -0.4171  0.0568  0.4400
  251MOL   H12030620   4.952   3.728   4.255 -1.2035 -2.0028  0.3009
  251MOL   H12130621   4.899   3.813   4.413  0.4931  0.2040  0.9833
  251MOL   H12230622   5.039   3.710   4.410 -0.4338  0.5466  0.6452
  252MOL     C130623   2.372   2.989   3.046  0.7089 -0.0401  0.8103
  252MOL    Cl230624   2.471   3.095   3.146  0.5206  0.3013 -0.1879
  252MOL    Cl330625   2.406   2.813   3.089 -0.2662  0.0885  0.4762
  252MOL     C430626   2.226   3.030   3.085 -0.6192 -0.5998  0.3849
  252MOL     H530627   2.197   2.998   3.185 -0.1157 -0.5697  0.5423
  252MOL     H630628   2.229   3.137   3.105  3.2009 -0.6920  0.7592
  252MOL     H730629   2.385   3.007   2.940 -2.1638  0.3147  0.4787
  252MOL     C830630   2.114   2.996   2.987  0.6720 -0.5937  0.3390
  252MOL    Cl930631   2.173   3.033   2.820  0.1484 -0.1363  0.1819
  252MOL   Cl1030632   1.964   3.094   3.030  0.1788 -0.1110  0.2795
  252MOL    C1130633   2.062   2.848   3.006  0.8075  0.2402  0.3877
  252MOL    H1230634   2.141   2.776   3.025  0.4878 -0.2008  0.0486
  252MOL    H1330635   2.012   2.848   3.103 -0.8099 -0.6633 -0.4281
  252MOL    C1430636   1.976   2.777   2.905  0.3762 -0.5694 -0.1728
  252MOL   Cl1530637   1.911   2.649   2.992 -0.4104  0.1925  0.3680
  252MOL   Cl1630638   2.088   2.713   2.771 -0.1304  0.5647 -0.0841
  252MOL    C1730639   1.863   2.862   2.841  0.0919  0.0180  0.3950
  252MOL    H1830640   1.808   2.907   2.924  2.8433  0.6500  1.9317
  252MOL    H1930641   1.917   2.947   2.799  1.3067 -1.0780 -0.2846
  252MOL    C2030642   1.763   2.818   2.732  0.4562  0.7370  0.0084
  252MOL   Cl2130643   1.689   2.661   2.774 -0.1354 -0.0540  0.2439
  252MOL   Cl2230644   1.852   2.788   2.581  0.3244 -0.0693  0.2927
  252MOL    C2330645   1.647   2.920   2.706 -0.9445  0.4252 -0.0490
  252MOL    H2430646   1.561   2.867   2.664  0.3345 -1.5726 -0.2079
  252MOL    H2530647   1.611   2.943   2.807  1.0580  0.4711  0.6685
  252MOL    C2630648   1.657   3.056   2.626 -0.0867  0.0138 -0.0927
  252MOL   Cl2730649   1.703   3.027   2.454 -0.1986  0.3650  0.5571
  252MOL   Cl2830650   1.776   3.167   2.699 -0.2505 -0.5306 -0.6605
  252MOL    C2930651   1.515   3.125   2.632 -0.0623 -0.1113  0.2706
  252MOL    H3030652   1.433   3.055   2.640  1.0012 -1.0737  3.0324
  252MOL    H3130653   1.522   3.177   2.727 -1.4725  0.5757  0.0037
  252MOL    C3230654   1.469   3.242   2.537  1.2328  0.2446 -0.2173
  252MOL   Cl3330655   1.329   3.309   2.626 -0.0009  0.1786  0.1893
  252MOL   Cl3430656   1.406   3.168   2.387 -0.4490  0.3351 -0.1832
  252MOL    C3530657   1.577   3.350   2.490  0.0623 -0.3358 -0.4540
  252MOL    H3630658   1.634   3.373   2.580  1.1635 -0.9246 -0.9842
  252MOL    H3730659   1.650   3.306   2.423  0.6707  0.5127 -0.3578
  252MOL    C3830660   1.535   3.487   2.420  0.5318  0.0114  0.0034
  252MOL   Cl3930661   1.687   3.562   2.382 -0.2582 -0.5603 -0.1491
  252MOL   Cl4030662   1.456   3.588   2.543  0.4243 -0.3370 -0.0127
  252MOL    C4130663   1.436   3.479   2.295 -0.0173 -0.8265  0.1769
  252MOL    H4230664   1.470   3.397   2.230  0.3798  1.1314 -2.1723
  252MOL    H4330665   1.340   3.453   2.339 -0.3532  0.1310  0.0087
  252MOL    C4430666   1.417   3.608   2.207 -0.4076 -0.0463 -0.0282
  252MOL   Cl4530667   1.271   3.565   2.109 -0.2592 -0.3478 -0.2008
  252MOL   Cl4630668   1.568   3.635   2.104 -0.1942  0.2640  0.0021
  252MOL    C4730669   1.377   3.741   2.270  0.5468 -0.1145  0.4775
  252MOL    H4830670   1.279   3.730   2.317  1.0193  0.9524  1.7476
  252MOL    H4930671   1.450   3.759   2.349  0.8863  0.7602 -0.0290
  252MOL    C5030672   1.384   3.872   2.188  0.1919  0.1419  0.7954
  252MOL   Cl5130673   1.553   3.936   2.189 -0.0114 -0.1586  0.3765
  252MOL   Cl5230674   1.291   3.989   2.277 -0.0570  0.3295 -0.3267
  252MOL    C5330675   1.324   3.853   2.043  0.6530  0.2073  0.4810
  252MOL    H5430676   1.364   3.763   1.997 -0.5875  0.6696 -1.5905
  252MOL    H5530677   1.217   3.835   2.055 -0.0902  4.8451  1.7938
  252MOL    C5630678   1.352   3.965   1.936  0.5914 -0.3906  0.5364
  252MOL   Cl5730679   1.248   3.920   1.798  0.0495  0.2666  0.0705
  252MOL   Cl5830680   1.516   3.940   1.882 -0.1083  0.3613  0.0694
  252MOL    C5930681   1.333   4.112   1.986 -0.3519 -0.0514  0.1774
  252MOL    H6030682   1.236   4.112   2.034  0.1840  0.6152  1.2659
  252MOL    H6130683   1.415   4.129   2.055 -0.1070  0.0784 -0.1440
  252MOL    C6230684   1.337   4.235   1.887 -0.2574 -0.6220 -0.2592
  252MOL   Cl6330685   1.372   4.371   1.998  0.4705  0.2687  0.2715
  252MOL   Cl6430686   1.164   4.249   1.822 -0.0261  0.1422 -0.4463
  252MOL    C6530687   1.447   4.231   1.774 -0.1135 -0.0504 -0.1903
  252MOL    H6630688   1.535   4.209   1.834 -0.2279  1.0397  0.3864
  252MOL    H6730689   1.421   4.144   1.713  0.5783 -2.0634  2.3195
  252MOL    C6830690   1.473   4.353   1.671 -0.6920 -0.2273 -1.1350
  252MOL   Cl6930691   1.322   4.436   1.618 -0.0963 -0.3880  0.3726
  252MOL   Cl7030692   1.554   4.278   1.532  0.1563  0.5225 -0.0999
  252MOL    C7130693   1.571   4.460   1.742  0.1277  0.6932 -0.8605
  252MOL    H7230694   1.534   4.492   1.839  1.3565 -0.3745 -0.0141
  252MOL    H7330695   1.665   4.411   1.768 -0.7733  0.2087  1.6579
  252MOL    C7430696   1.601   4.594   1.668  0.1201  0.3428  0.3178
  252MOL   Cl7530697   1.746   4.654   1.753 -0.4866 -0.1871 -0.1658
  252MOL   Cl7630698   1.462   4.704   1.706  0.0843 -0.1152  0.0881
  252MOL    C7730699   1.621   4.577   1.518  0.3054 -0.2955  0.5070
  252MOL    H7830700   1.707   4.512   1.504  0.4465  0.0052 -0.0321
  252MOL    H7930701   1.533   4.528   1.477  1.3867 -0.4731 -1.6618
  252MOL    C8030702   1.651   4.694   1.420 -0.0808  0.5919 -0.6453
  252MOL   Cl8130703   1.667   4.621   1.252  0.1163  0.1065  0.1245
  252MOL   Cl8230704   1.808   4.762   1.467  0.2153  0.0487 -0.0129
  252MOL    C8330705   1.553   4.812   1.425 -0.4730 -1.0293 -0.0735
  252MOL    H8430706   1.454   4.772   1.448 -0.5182 -0.7800  0.1813
  252MOL    H8530707   1.561   4.868   1.519 -0.9886  1.6310 -1.5770
  252MOL    C8630708   1.543   4.915   1.310 -0.0139  0.0346 -0.2531
  252MOL   Cl8730709   1.456   5.057   1.373 -0.0348 -0.1664  0.1264
  252MOL   Cl8830710   1.432   4.849   1.177  0.1053  0.2147  0.2199
  252MOL    C8930711   1.686   4.962   1.264  0.3661 -0.1487  0.1016
  252MOL    H9030712   1.721   5.029   1.342  1.7607  2.6416 -2.8152
  252MOL    H9130713   1.756   4.878   1.259  2.6938  1.6679  1.4728
  252MOL    C9230714   1.709   5.031   1.128  0.7278  0.3202 -0.6364
  252MOL   Cl9330715   1.592   5.167   1.103 -0.1543  0.1209 -0.1574
  252MOL   Cl9430716   1.687   4.900   1.000  0.4195 -0.1796  0.1010
  252MOL    C9530717   1.854   5.071   1.104 -0.6505 -0.1701  0.3249
  252MOL    H9630718   1.906   4.975   1.102  1.4858  0.9704 -1.3522
  252MOL    H9730719   1.859   5.115   1.005  2.9203 -0.0219  0.4905
  252MOL    C9830720   1.930   5.162   1.205  0.9684 -0.6844  0.1335
  252MOL   Cl9930721   1.971   5.067   1.348  0.2978  0.1300  0.5411
  252MOL  Cl10030722   1.821   5.292   1.262 -0.2424 -0.0613 -0.2885
  252MOL   C10130723   2.071   5.221   1.161 -0.3092 -0.3387  0.3166
  252MOL   H10230724   2.119   5.258   1.251 -0.6860 -0.0507  0.3969
  252MOL   H10330725   2.131   5.132   1.138  1.4606  0.7697  0.5843
  252MOL   C10430726   2.104   5.317   1.045  0.3475  0.6387  0.1930
  252MOL  Cl10530727   2.081   5.224   0.888 -0.0839  0.2620  0.3943
  252MOL  Cl10630728   2.287   5.340   1.051 -0.3108  0.3488  0.4618
  252MOL   C10730729   2.032   5.451   1.050 -0.0944  0.1327 -0.4214
  252MOL   H10830730   1.929   5.419   1.031 -1.1050  2.1339  1.4944
  252MOL   H10930731   2.018   5.474   1.155  0.7974 -0.6581 -0.1201
  252MOL   C11030732   2.075   5.580   0.976  0.1582  0.3101 -0.2728
  252MOL  Cl11130733   1.926   5.674   0.957 -0.3901  0.4349 -0.1032
  252MOL  Cl11230734   2.136   5.535   0.815  0.4726 -0.0962 -0.0053
  252MOL   C11330735   2.182   5.659   1.055 -0.2398  0.7928 -0.8202
  252MOL   H11430736   2.163   5.659   1.163  5.7047  0.3199  0.3996
  252MOL   H11530737   2.275   5.602   1.052 -0.9234 -0.4884  1.2315
  252MOL   C11630738   2.218   5.807   1.019  0.2847 -0.2477  0.3006
  252MOL  Cl11730739   2.376   5.838   1.097 -0.1531  0.2682 -0.0762
  252MOL  Cl11830740   2.094   5.921   1.088  0.0950 -0.6006  0.5045
  252MOL   C11930741   2.238   5.838   0.874  0.0340  0.1347 -0.0776
  252MOL   H12030742   2.282   5.936   0.858  1.2449 -0.4579 -0.4593
  252MOL   H12130743   2.302   5.758   0.836  1.0642 -0.3598  2.5252
  252MOL   H12230744   2.142   5.840   0.823  0.0550 -1.9114 -0.2640
  253MOL     C130745   1.106   8.550   6.996 -0.3096  0.0206 -0.1410
  253MOL    Cl230746   1.227   8.570   6.870 -0.2388  0.0883  0.2498
  253MOL    Cl330747   0.976   8.440   6.944 -0.0863 -0.1486 -0.1503
  253MOL     C430748   1.169   8.491   7.130 -0.7090 -0.1702 -0.1712
  253MOL     H530749   1.216   8.396   7.105  1.6280  0.4907  1.5785
  253MOL     H630750   1.253   8.557   7.154 -0.6012 -0.2291 -0.3879
  253MOL     H730751   1.070   8.649   7.024 -1.3253 -0.3058 -0.2782
  253MOL     C830752   1.085   8.463   7.259 -0.0838  0.5936  0.4919
  253MOL    Cl930753   0.980   8.326   7.236 -0.0053  0.0031  0.1824
  253MOL   Cl1030754   0.980   8.610   7.275  0.1629  0.2142 -0.2036
  253MOL    C1130755   1.159   8.429   7.395 -0.2577  0.3913  0.0635
  253MOL    H1230756   1.183   8.525   7.441 -1.7063  1.3795 -1.2142
  253MOL    H1330757   1.087   8.396   7.470 -2.2735 -0.9437 -2.3916
  253MOL    C1430758   1.283   8.332   7.394 -0.4352 -0.3452 -0.4073
  253MOL   Cl1530759   1.419   8.418   7.319  0.3489 -0.0424  0.1186
  253MOL   Cl1630760   1.250   8.184   7.300 -0.7444  0.1937 -0.0459
  253MOL    C1730761   1.322   8.276   7.533 -0.7174 -0.2662 -0.3582
  253MOL    H1830762   1.246   8.209   7.573  0.0754 -1.2361 -0.4625
  253MOL    H1930763   1.416   8.222   7.518 -0.9492 -1.0148  0.7989
  253MOL    C2030764   1.349   8.381   7.651  0.0958  0.2082 -0.2848
  253MOL   Cl2130765   1.198   8.442   7.735  0.3598  0.5588  0.0861
  253MOL   Cl2230766   1.448   8.520   7.598  0.6844 -0.0041  0.1232
  253MOL    C2330767   1.439   8.307   7.760  0.0142 -0.8770  0.0141
  253MOL    H2430768   1.545   8.299   7.734 -0.2511  2.1921 -2.3143
  253MOL    H2530769   1.434   8.367   7.851 -1.3085 -0.6664 -0.1828
  253MOL    C2630770   1.393   8.173   7.825 -0.4565  0.2624 -0.3636
  253MOL   Cl2730771   1.407   8.033   7.718  0.0275  0.0249  0.3636
  253MOL   Cl2830772   1.223   8.171   7.893 -0.0568  0.3050  0.1071
  253MOL    C2930773   1.482   8.130   7.944 -0.7231 -0.3973 -0.4127
  253MOL    H3030774   1.441   8.036   7.981  2.2296 -1.8177 -0.5893
  253MOL    H3130775   1.571   8.094   7.891 -0.2680 -1.1291  0.8159
  253MOL    C3230776   1.545   8.219   8.062  0.1270  0.1942 -0.2603
  253MOL   Cl3330777   1.425   8.318   8.154  0.2981 -0.3494 -0.2778
  253MOL   Cl3430778   1.649   8.347   7.985 -0.7262 -0.1464 -0.4057
  253MOL    C3530779   1.627   8.149   8.165  0.3697 -0.3028  0.0465
  253MOL    H3630780   1.726   8.126   8.124 -0.1404 -1.0892 -0.7505
  253MOL    H3730781   1.651   8.229   8.236  0.9991 -0.0061 -0.4875
  253MOL    C3830782   1.578   8.020   8.222 -0.4817 -0.5414  0.4563
  253MOL   Cl3930783   1.637   7.899   8.107 -0.1988  0.1818  0.1087
  253MOL   Cl4030784   1.405   8.018   8.241 -0.0066  0.0463 -0.2977
  253MOL    C4130785   1.660   7.999   8.357  0.9023 -0.4844  0.5530
  253MOL    H4230786   1.762   7.977   8.325  1.7772  1.0013  2.2076
  253MOL    H4330787   1.663   8.093   8.414 -0.9028  0.5577 -1.0199
  253MOL    C4430788   1.635   7.881   8.459  0.2911  0.6637 -0.2507
  253MOL   Cl4530789   1.467   7.854   8.511 -0.3484 -0.1141  0.4212
  253MOL   Cl4630790   1.712   7.950   8.608  0.2031 -0.5315 -0.4713
  253MOL    C4730791   1.709   7.748   8.417  0.4021 -0.3767  0.0902
  253MOL    H4830792   1.669   7.714   8.321  2.1133  1.0451 -1.1676
  253MOL    H4930793   1.812   7.778   8.401  1.9792 -2.9990  4.4221
  253MOL    C5030794   1.719   7.619   8.506  0.1496 -0.3963  0.3892
  253MOL   Cl5130795   1.781   7.656   8.667  0.3911 -0.1209 -0.5459
  253MOL   Cl5230796   1.851   7.509   8.435 -0.4499 -0.0784 -0.2476
  253MOL    C5330797   1.579   7.549   8.527 -0.0630 -0.2015 -0.1176
  253MOL    H5430798   1.597   7.476   8.606  2.3228  1.4693  0.9205
  253MOL    H5530799   1.519   7.612   8.593  0.6916  1.2045 -0.7537
  253MOL    C5630800   1.486   7.485   8.418  0.1590 -0.1315  0.7378
  253MOL   Cl5730801   1.586   7.369   8.331  0.1020  0.3620  0.3236
  253MOL   Cl5830802   1.417   7.609   8.306  0.0294  0.0576  0.0553
  253MOL    C5930803   1.375   7.389   8.469 -0.5472  0.4767  0.0584
  253MOL    H6030804   1.334   7.324   8.391  1.1049  0.3193 -0.6822
  253MOL    H6130805   1.430   7.314   8.526  0.9329 -1.0547 -3.2750
  253MOL    C6230806   1.251   7.430   8.556  0.4016  0.6186 -1.2053
  253MOL   Cl6330807   1.307   7.511   8.702  0.3079  0.3207  0.1835
  253MOL   Cl6430808   1.164   7.275   8.591 -0.0280 -0.3719 -0.1483
  253MOL    C6530809   1.160   7.532   8.477  1.0105 -0.1720  0.4889
  253MOL    H6630810   1.200   7.632   8.495  3.1128 -1.0838  0.9737
  253MOL    H6730811   1.168   7.520   8.369 -0.3495  1.5942  0.1662
  253MOL    C6830812   1.006   7.534   8.494  0.5725  0.3133 -0.3395
  253MOL   Cl6930813   0.967   7.522   8.669  0.0519  0.1148 -0.0391
  253MOL   Cl7030814   0.942   7.383   8.413  0.4036  0.1283  0.1498
  253MOL    C7130815   0.941   7.663   8.452  0.6086  0.4136  0.2830
  253MOL    H7230816   0.835   7.640   8.448  0.4051  1.5130 -0.7148
  253MOL    H7330817   0.949   7.737   8.532 -3.6551  3.5734 -1.9778
  253MOL    C7430818   0.978   7.725   8.315  0.0617  0.3126  0.4060
  253MOL   Cl7530819   0.980   7.598   8.184  0.1684 -0.4148  0.2685
  253MOL   Cl7630820   1.134   7.804   8.320 -0.4970 -0.3055 -0.4366
  253MOL    C7730821   0.872   7.834   8.273  0.5514  0.4954 -0.1814
  253MOL    H7830822   0.927   7.866   8.184  0.3219  2.5180  0.3818
  253MOL    H7930823   0.783   7.777   8.247  0.3086  0.3160  1.0120
  253MOL    C8030824   0.835   7.953   8.365  0.3981  0.0296  0.8252
  253MOL   Cl8130825   0.964   8.008   8.470  0.0730  0.4114  0.0391
  253MOL   Cl8230826   0.707   7.889   8.474  0.1292  0.2184  0.0652
  253MOL    C8330827   0.804   8.083   8.285  0.3951 -0.3616  0.3069
  253MOL    H8430828   0.901   8.133   8.272 -0.9456  1.9776 -1.0678
  253MOL    H8530829   0.765   8.056   8.186  0.4649  2.7252 -0.6188
  253MOL    C8630830   0.708   8.190   8.340  0.2556 -0.3704 -0.5911
  253MOL   Cl8730831   0.742   8.317   8.220  0.1292 -0.1058  0.2403
  253MOL   Cl8830832   0.738   8.247   8.502  0.0490 -0.0450 -0.4497
  253MOL    C8930833   0.557   8.170   8.333  0.7310  0.1037  0.3108
  253MOL    H9030834   0.539   8.113   8.424  0.4581  0.5838  0.5568
  253MOL    H9130835   0.504   8.262   8.355  0.8097 -0.1575  1.6067
  253MOL    C9230836   0.482   8.103   8.220  0.1238  0.4333 -0.1084
  253MOL   Cl9330837   0.490   7.927   8.242 -0.0237 -0.1552  0.0387
  253MOL   Cl9430838   0.547   8.139   8.055 -0.0971  0.5958 -0.4246
  253MOL    C9530839   0.332   8.147   8.223 -0.1937 -0.0616  0.2835
  253MOL    H9630840   0.327   8.255   8.231  0.9336 -0.1404  2.2456
  253MOL    H9730841   0.296   8.129   8.122  0.4834 -0.7740  0.1675
  253MOL    C9830842   0.225   8.090   8.331 -0.6667  0.2100 -0.4197
  253MOL   Cl9930843   0.294   8.116   8.494 -0.1742 -0.1512  0.1888
  253MOL  Cl10030844   0.196   7.912   8.326 -0.2998  0.0640 -0.4363
  253MOL   C10130845   0.091   8.169   8.336  0.1561  0.3530  0.1789
  253MOL   H10230846   0.045   8.130   8.427 -0.4142 -0.2527 -0.3631
  253MOL   H10330847   0.122   8.272   8.354  0.7690  0.2580 -0.3103
  253MOL   C10430848   9.170   8.176   8.217  0.1010  0.5860  0.1342
  253MOL  Cl10530849   9.126   8.015   8.164  0.1772  0.2463  0.0287
  253MOL  Cl10630850   0.058   8.260   8.086  0.1761 -0.2164  0.0897
  253MOL   C10730851   9.035   8.243   8.252 -0.7303  0.1440  0.3850
  253MOL   H10830852   8.990   8.255   8.153  0.7350  2.5247 -0.0416
  253MOL   H10930853   8.974   8.177   8.314  0.5425 -2.9891 -1.5687
  253MOL   C11030854   9.023   8.386   8.320  1.1233  0.2626  0.1001
  253MOL  Cl11130855   9.113   8.508   8.224  0.2309 -0.6199  0.0007
  253MOL  Cl11230856   9.101   8.384   8.474  0.4198 -0.1125 -0.3747
  253MOL   C11330857   8.879   8.444   8.341 -0.1869 -0.3472 -0.0090
  253MOL   H11430858   8.841   8.397   8.431  0.1405  0.8366  0.7661
  253MOL   H11530859   8.891   8.548   8.372  0.0067  0.4368 -2.5383
  253MOL   C11630860   8.788   8.442   8.215  0.0060 -0.6572 -0.1167
  253MOL  Cl11730861   8.656   8.559   8.244 -0.2579  0.1034 -0.4537
  253MOL  Cl11830862   8.712   8.290   8.180 -0.4338 -0.5109  0.1304
  253MOL   C11930863   8.848   8.486   8.084 -0.0075  0.2606 -0.1373
  253MOL   H12030864   8.885   8.588   8.089 -0.3009  0.3460  0.2866
  253MOL   H12130865   8.929   8.423   8.046  0.3428 -0.0201  1.0398
  253MOL   H12230866   8.768   8.485   8.010  0.6129  0.3337 -0.8165
  254MOL     C130867   1.955   8.553   0.491  0.9723 -0.0118 -0.0859
  254MOL    Cl230868   2.093   8.463   0.420  0.0838 -0.4919  0.3395
  254MOL    Cl330869   1.976   8.723   0.454 -0.1838  0.3374  0.2598
  254MOL     C430870   1.813   8.496   0.450 -0.7937 -0.4876 -0.3317
  254MOL     H530871   1.797   8.540   0.352 -1.1416 -0.9909 -0.5014
  254MOL     H630872   1.830   8.391   0.428  0.0782 -0.7142  1.3654
  254MOL     H730873   1.966   8.542   0.598 -0.3394  1.7481  0.2590
  254MOL     C830874   1.692   8.518   0.534  0.3713  0.4006 -0.1045
  254MOL    Cl930875   1.560   8.458   0.433  0.3254  0.2071  0.0674
  254MOL   Cl1030876   1.659   8.692   0.568  0.1266  0.3181 -0.0777
  254MOL    C1130877   1.683   8.442   0.669  0.2227  0.1150 -0.1256
  254MOL    H1230878   1.739   8.509   0.733 -1.5015  1.7095 -0.2355
  254MOL    H1330879   1.581   8.452   0.707 -0.9432  0.5237 -3.2075
  254MOL    C1430880   1.742   8.299   0.690 -0.6311 -0.1745 -0.4763
  254MOL   Cl1530881   1.922   8.285   0.671 -0.0796 -0.0875  0.1523
  254MOL   Cl1630882   1.663   8.194   0.571  0.1772  0.1168 -0.1626
  254MOL    C1730883   1.702   8.250   0.828  0.5837  0.2233 -0.3476
  254MOL    H1830884   1.597   8.225   0.814  0.7712 -0.9264  0.2552
  254MOL    H1930885   1.754   8.155   0.840  0.3109  0.0872 -0.2347
  254MOL    C2030886   1.729   8.322   0.968 -0.2973  0.2564  0.3880
  254MOL   Cl2130887   1.647   8.480   0.977 -0.4705 -0.0899  0.0903
  254MOL   Cl2230888   1.899   8.358   0.993  0.2844 -0.1783 -0.0652
  254MOL    C2330889   1.686   8.229   1.093 -0.1500  0.0437  0.1873
  254MOL    H2430890   1.756   8.146   1.102  2.0983  1.6568 -1.7743
  254MOL    H2530891   1.709   8.280   1.187  0.1180  0.6633 -0.2110
  254MOL    C2630892   1.536   8.184   1.123  0.0037 -0.3522 -0.5602
  254MOL   Cl2730893   1.532   8.132   1.295  0.0789 -0.6038 -0.0987
  254MOL   Cl2830894   1.510   8.047   1.017 -0.1963 -0.0664  0.6386
  254MOL    C2930895   1.428   8.299   1.101  0.3603 -0.1200  0.4460
  254MOL    H3030896   1.475   8.388   1.142 -0.8148  0.3720  0.7427
  254MOL    H3130897   1.411   8.317   0.995  0.1584 -1.6961  0.1963
  254MOL    C3230898   1.280   8.307   1.164 -0.0826  0.0977  0.2205
  254MOL   Cl3330899   1.304   8.347   1.332 -0.0199 -0.0649 -0.1773
  254MOL   Cl3430900   1.184   8.158   1.156 -0.1878  0.1791 -0.0183
  254MOL    C3530901   1.200   8.431   1.109 -0.1205 -0.1348  0.4407
  254MOL    H3630902   1.127   8.452   1.187 -1.9633 -2.0344 -0.7110
  254MOL    H3730903   1.275   8.509   1.106  0.5554 -0.7670  0.5784
  254MOL    C3830904   1.114   8.412   0.975  0.1311  0.2943  0.1125
  254MOL   Cl3930905   0.951   8.352   1.027  0.2435 -0.4842 -0.1402
  254MOL   Cl4030906   1.194   8.295   0.860 -0.0002 -0.3606 -0.3293
  254MOL    C4130907   1.090   8.537   0.886 -0.7087 -0.2467 -0.2122
  254MOL    H4230908   1.045   8.495   0.796 -0.7922 -0.4622 -0.0722
  254MOL    H4330909   1.014   8.603   0.928 -0.3813 -0.7816  1.2709
  254MOL    C4430910   1.200   8.645   0.860 -0.6484  0.5484  0.0115
  254MOL   Cl4530911   1.356   8.565   0.826  0.0751  0.1336  0.1853
  254MOL   Cl4630912   1.215   8.747   1.003 -0.2949 -0.0609  0.1746
  254MOL    C4730913   1.192   8.728   0.729  0.5898 -0.1001 -0.8948
  254MOL    H4830914   1.270   8.803   0.727  1.9409 -1.4690 -0.3647
  254MOL    H4930915   1.204   8.652   0.651 -1.5518  0.2722 -1.6224
  254MOL    C5030916   1.057   8.796   0.687  0.8058  0.9290 -0.7211
  254MOL   Cl5130917   0.999   8.901   0.809 -0.0049 -0.0974 -0.3292
  254MOL   Cl5230918   0.922   8.681   0.669 -0.1203  0.0149 -0.3818
  254MOL    C5330919   1.066   8.871   0.554  0.4244 -0.0453  0.0724
  254MOL    H5430920   1.074   8.814   0.462  3.1749  0.6535 -0.1504
  254MOL    H5530921   0.975   8.932   0.548  2.3708  2.7344 -2.4921
  254MOL    C5630922   1.182   8.971   0.521 -0.6049  0.1869 -0.0213
  254MOL   Cl5730923   1.322   8.872   0.467 -0.2378  0.2890  0.2281
  254MOL   Cl5830924   1.237   9.060   0.659  0.0125 -0.0714 -0.0852
  254MOL    C5930925   1.148   9.070   0.404  0.3818 -0.2927  0.0034
  254MOL    H6030926   1.125   9.003   0.320  0.2524  0.2061 -0.3611
  254MOL    H6130927   1.056   9.124   0.427  0.1551 -2.0385  3.5561
  254MOL    C6230928   1.243   0.004   0.362  0.5329 -0.0845  0.1042
  254MOL   Cl6330929   1.399   9.115   0.293  0.1994  0.2052  0.1999
  254MOL   Cl6430930   1.293   0.121   0.487 -0.1168  0.0412 -0.0526
  254MOL    C6530931   1.185   0.091   0.244 -0.9417 -0.0413  0.5830
  254MOL    H6630932   1.276   0.141   0.209 -0.7405 -0.3335  0.6845
  254MOL    H6730933   1.153   0.025   0.163 -0.6549  1.2648 -0.6215
  254MOL    C6830934   1.079   0.210   0.251 -0.4841 -0.5178 -0.5453
  254MOL   Cl6930935   0.922   0.144   0.302 -0.4600 -0.0410  0.3499
  254MOL   Cl7030936   1.065   0.262   0.087  0.2059 -0.1309  0.3021
  254MOL    C7130937   1.123   0.328   0.336  0.5499  0.2236 -0.4312
  254MOL    H7230938   1.115   0.296   0.440  0.3350 -1.0507 -0.8330
  254MOL    H7330939   1.232   0.335   0.328  0.7348 -2.1977 -0.1744
  254MOL    C7430940   1.065   0.478   0.339 -1.0486 -1.0397  0.5886
  254MOL   Cl7530941   1.105   0.556   0.186 -0.1454  0.1243  0.1777
  254MOL   Cl7630942   1.171   0.563   0.451 -0.2088  0.2215  0.0772
  254MOL    C7730943   0.916   0.488   0.390 -0.3304 -0.7331 -0.1343
  254MOL    H7830944   0.861   0.402   0.352  0.4698 -0.3682 -2.1569
  254MOL    H7930945   0.929   0.452   0.492  1.7347 -0.5931 -0.3158
  254MOL    C8030946   0.829   0.619   0.381 -0.3903 -0.7780  0.0956
  254MOL   Cl8130947   0.822   0.670   0.207 -0.4227 -0.4375 -0.4060
  254MOL   Cl8230948   0.909   0.755   0.472  0.0757  0.3489  0.5392
  254MOL    C8330949   0.688   0.600   0.448 -0.4048  0.0889 -0.4623
  254MOL    H8430950   0.648   0.503   0.419  1.1810 -0.1117 -2.0724
  254MOL    H8530951   0.708   0.594   0.555  0.3764  0.3360 -0.5857
  254MOL    C8630952   0.573   0.705   0.426 -0.9155  0.5955 -0.0907
  254MOL   Cl8730953   0.443   0.652   0.539 -0.1698 -0.0866  0.1076
  254MOL   Cl8830954   0.520   0.683   0.252  0.1134 -0.0708 -0.7893
  254MOL    C8930955   0.613   0.854   0.440  0.6903  0.0179  0.1193
  254MOL    H9030956   0.683   0.858   0.524  2.6047 -0.8090 -1.3850
  254MOL    H9130957   0.672   0.882   0.353 -0.7150 -1.5228 -1.3769
  254MOL    C9230958   0.503   0.959   0.467  0.3846  0.2393 -0.1483
  254MOL   Cl9330959   0.575   1.123   0.438  0.3139  0.0624  0.1973
  254MOL   Cl9430960   0.469   0.960   0.644  0.1138  0.2865  0.2864
  254MOL    C9530961   0.382   0.945   0.374 -0.3966 -0.0586  0.3477
  254MOL    H9630962   0.424   0.931   0.274  3.2144 -2.2757  2.0513
  254MOL    H9730963   0.337   0.847   0.392  0.8204 -0.6628  0.2182
  254MOL    C9830964   0.277   1.056   0.359 -0.2690 -0.1300  1.0152
  254MOL   Cl9930965   0.331   1.197   0.258 -0.2530 -0.4426  0.4200
  254MOL  Cl10030966   0.248   1.137   0.511 -0.0596  0.2989  0.0394
  254MOL   C10130967   0.140   1.004   0.309 -0.1891  0.8072  0.5244
  254MOL   H10230968   0.093   0.942   0.385 -1.6166  1.8401  0.4989
  254MOL   H10330969   0.071   1.087   0.300  0.5530  1.2686 -1.3203
  254MOL   C10430970   0.125   0.911   0.185 -1.0620 -0.1080  0.4507
  254MOL  Cl10530971   0.157   0.742   0.229 -0.0743  0.0687  0.0133
  254MOL  Cl10630972   0.232   0.970   0.060  0.2066  0.0766  0.3303
  254MOL   C10730973   9.164   0.918   0.117 -0.2276  0.3678 -0.4881
  254MOL   H10830974   9.138   1.022   0.095 -1.1415  0.5966  1.5427
  254MOL   H10930975   9.174   0.882   0.015 -2.0043  1.4550 -1.0646
  254MOL   C11030976   9.035   0.847   0.178  0.0713 -0.0251 -0.3735
  254MOL  Cl11130977   9.033   0.850   0.361 -0.1584  0.3410 -0.1618
  254MOL  Cl11230978   9.036   0.675   0.145  0.1154 -0.4524 -0.2368
  254MOL   C11330979   8.892   0.902   0.139 -0.6474 -0.6953 -0.0442
  254MOL   H11430980   8.813   0.835   0.175 -0.9914 -0.6031 -0.6130
  254MOL   H11530981   8.867   0.987   0.203  1.0772 -1.5756  1.8309
  254MOL   C11630982   8.863   0.942   9.168  0.3655  0.0874 -0.8096
  254MOL  Cl11730983   8.917   0.825   9.037  0.5508  0.1444 -0.3147
  254MOL  Cl11830984   8.942   1.091   9.124  0.1946 -0.7906 -0.3166
  254MOL   C11930985   8.715   0.971   9.146  0.1246 -0.1519 -0.9909
  254MOL   H12030986   8.680   1.046   0.037 -1.4260 -1.9422  0.1999
  254MOL   H12130987   8.691   1.018   9.051 -1.9135  0.5530 -0.1530
  254MOL   H12230988   8.643   0.890   9.161  0.1334 -0.1417 -0.8955
  255MOL     C130989   2.584   3.225   3.622 -0.5193  0.5012  0.2813
  255MOL    Cl230990   2.700   3.321   3.522  0.0235  0.1814  0.1789
  255MOL    Cl330991   2.442   3.327   3.664 -0.2981  0.0902  0.0619
  255MOL     C430992   2.540   3.091   3.555  0.5129 -0.3377 -0.5415
  255MOL     H530993   2.449   3.058   3.605 -0.0074  2.1837  0.2557
  255MOL     H630994   2.515   3.112   3.451 -2.1549  0.2384  0.1864
  255MOL     H730995   2.625   3.207   3.722  1.3228 -1.2341 -0.7549
  255MOL     C830996   2.637   2.969   3.582  0.0340  0.9286  0.1849
  255MOL    Cl930997   2.658   2.952   3.757 -0.0812 -0.1413  0.0918
  255MOL   Cl1030998   2.797   2.991   3.515  0.2550 -0.4913 -0.2687
  255MOL    C1130999   2.593   2.838   3.527  0.3211 -0.3328  0.3593
  255MOL    H1231000   2.611   2.840   3.419 -0.7247 -0.4683  0.1678
  255MOL    H1331001   2.662   2.767   3.571 -1.5282 -2.4005  0.0561
  255MOL    C1431002   2.448   2.773   3.543  0.0178  0.2603 -0.0359
  255MOL   Cl1531003   2.333   2.885   3.457  0.3303  0.2013 -0.1224
  255MOL   Cl1631004   2.404   2.749   3.710 -0.0529  0.0954  0.2648
  255MOL    C1731005   2.450   2.632   3.471 -0.0388  0.0182 -0.3332
  255MOL    H1831006   2.487   2.654   3.371  1.6454 -0.4028  0.1929
  255MOL    H1931007   2.526   2.569   3.516 -1.0394 -0.8444  0.1568
  255MOL    C2031008   2.313   2.543   3.448 -0.5034 -0.1287 -0.2569
  255MOL   Cl2131009   2.374   2.388   3.388 -0.2409  0.3584  0.5103
  255MOL   Cl2231010   2.215   2.627   3.316 -0.0806 -0.4912  0.0713
  255MOL    C2331011   2.235   2.527   3.583  0.4013  0.0339 -0.1624
  255MOL    H2431012   2.306   2.511   3.664  0.5883  1.7240  0.0252
  255MOL    H2531013   2.200   2.629   3.603  0.0370  0.2830 -1.9354
  255MOL    C2631014   2.116   2.425   3.595 -0.4677  0.1654 -0.6009
  255MOL   Cl2731015   2.007   2.445   3.461 -0.4797  0.6375  0.2266
  255MOL   Cl2831016   2.033   2.475   3.748  0.1894  0.0919 -0.3325
  255MOL    C2931017   2.153   2.272   3.593  0.1623  0.1044  0.0501
  255MOL    H3031018   2.140   2.238   3.491 -0.8627  1.9238 -0.4462
  255MOL    H3131019   2.255   2.259   3.631  0.1090  1.1503  0.5707
  255MOL    C3231020   2.061   2.161   3.664  0.4576  0.2704  0.4287
  255MOL   Cl3331021   2.116   2.000   3.608 -0.3345 -0.0314 -0.4159
  255MOL   Cl3431022   1.892   2.178   3.611  0.5276 -0.3458  0.1363
  255MOL    C3531023   2.067   2.165   3.821  0.4657 -0.2162  0.1351
  255MOL    H3631024   2.159   2.210   3.859  0.4039 -0.8044  0.9966
  255MOL    H3731025   1.993   2.238   3.855  1.3085  0.5538  0.3463
  255MOL    C3831026   2.035   2.037   3.915  0.5212 -0.5397  0.1934
  255MOL   Cl3931027   2.187   1.947   3.919 -0.2194 -0.0556 -0.0803
  255MOL   Cl4031028   1.932   1.920   3.845 -0.3829 -0.7608 -0.0704
  255MOL    C4131029   1.999   2.068   4.065 -0.2457  0.0193 -0.0601
  255MOL    H4231030   2.037   1.986   4.126 -1.8355  0.9023  2.2205
  255MOL    H4331031   2.076   2.142   4.088 -0.6566  0.5604 -0.4003
  255MOL    C4431032   1.856   2.102   4.111 -0.4027  0.2083  0.0564
  255MOL   Cl4531033   1.780   2.224   4.007 -0.2697  0.0602  0.2606
  255MOL   Cl4631034   1.875   2.171   4.271 -0.1969  0.2800  0.1537
  255MOL    C4731035   1.767   1.972   4.115  0.3193  0.0075 -0.7909
  255MOL    H4831036   1.728   1.963   4.014  0.8926  0.1718 -1.0282
  255MOL    H4931037   1.839   1.891   4.125 -0.3391 -0.4294  0.5279
  255MOL    C5031038   1.647   1.945   4.221 -0.6005  0.3143 -0.6861
  255MOL   Cl5131039   1.531   2.082   4.221 -0.3846  0.2896 -0.0946
  255MOL   Cl5231040   1.721   1.929   4.381 -0.3129 -0.1661 -0.0602
  255MOL    C5331041   1.562   1.817   4.203 -0.3038  1.1023 -0.6890
  255MOL    H5431042   1.504   1.797   4.293 -1.7092  1.6027 -1.4668
  255MOL    H5531043   1.488   1.851   4.130 -1.4415 -1.6113 -0.8534
  255MOL    C5631044   1.617   1.674   4.151  0.8936 -0.2877 -0.1275
  255MOL   Cl5731045   1.761   1.641   4.254  0.3171  0.0156  0.4817
  255MOL   Cl5831046   1.684   1.686   3.985 -0.0099 -0.0702  0.2862
  255MOL    C5931047   1.510   1.563   4.153 -0.2273 -0.4540 -0.6400
  255MOL    H6031048   1.566   1.483   4.105  0.6677  0.1482 -0.5993
  255MOL    H6131049   1.493   1.528   4.255 -0.7352  0.3206 -0.4498
  255MOL    C6231050   1.369   1.581   4.092 -0.3846  0.6705  0.2424
  255MOL   Cl6331051   1.380   1.649   3.930  0.2929 -0.2631  0.0462
  255MOL   Cl6431052   1.276   1.701   4.196  0.2800 -0.0199 -0.2852
  255MOL    C6531053   1.289   1.439   4.072 -0.1544  0.5993  0.0315
  255MOL    H6631054   1.187   1.468   4.047 -0.0128  3.4697  2.4757
  255MOL    H6731055   1.316   1.388   3.980 -0.7766 -3.1166  1.8164
  255MOL    C6831056   1.294   1.327   4.188  0.1443  0.5307  0.1448
  255MOL   Cl6931057   1.261   1.401   4.349 -0.1505  0.3912 -0.0251
  255MOL   Cl7031058   1.455   1.251   4.179  0.0283  0.2584  0.3039
  255MOL    C7131059   1.195   1.220   4.157  0.9201  0.1747  0.0921
  255MOL    H7231060   1.093   1.257   4.174  1.6380  1.2978  2.0793
  255MOL    H7331061   1.191   1.202   4.050 -1.8494  0.6499  0.0631
  255MOL    C7431062   1.201   1.079   4.225  0.2132  0.1288 -0.5793
  255MOL   Cl7531063   1.038   1.014   4.183  0.0617 -0.1713 -0.0468
  255MOL   Cl7631064   1.224   1.085   4.400  0.0430 -0.5771 -0.0721
  255MOL    C7731065   1.308   0.987   4.162  1.1010  0.0413 -0.0938
  255MOL    H7831066   1.331   1.016   4.060  2.5429 -1.8287 -0.3397
  255MOL    H7931067   1.395   1.012   4.223  0.4293  3.1449 -0.3468
  255MOL    C8031068   1.309   0.825   4.169  0.4971 -0.4273 -0.6741
  255MOL   Cl8131069   1.264   0.755   4.327 -0.3397 -0.0601  0.2343
  255MOL   Cl8231070   1.476   0.785   4.136  0.2141 -0.4041  0.1054
  255MOL    C8331071   1.211   0.768   4.064 -0.3513 -0.4067  0.3905
  255MOL    H8431072   1.116   0.764   4.116 -0.2065 -0.0375  0.6809
  255MOL    H8531073   1.190   0.842   3.986 -0.3307 -2.0977 -1.2764
  255MOL    C8631074   1.225   0.632   3.988 -0.1055  0.1144  0.0957
  255MOL   Cl8731075   1.355   0.646   3.870  0.4279 -0.2752 -0.4382
  255MOL   Cl8831076   1.083   0.618   3.884 -0.1923  0.0568 -0.2349
  255MOL    C8931077   1.256   0.511   4.085 -0.3027  0.2878 -0.2824
  255MOL    H9031078   1.337   0.543   4.151 -0.1338 -0.2864 -0.2064
  255MOL    H9131079   1.164   0.512   4.143 -0.4128  0.0179 -0.4492
  255MOL    C9231080   1.294   0.364   4.047  0.0183 -0.9344 -0.1412
  255MOL   Cl9331081   1.462   0.355   3.992  0.3853 -0.1769 -0.2200
  255MOL   Cl9431082   1.177   0.313   3.927 -0.5679  0.5014 -0.2060
  255MOL    C9531083   1.262   0.273   4.173 -0.0873  0.2558  0.5314
  255MOL    H9631084   1.283   0.327   4.265  0.0963  1.1369 -0.0244
  255MOL    H9731085   1.154   0.260   4.169 -0.1007 -0.4341  2.4335
  255MOL    C9831086   1.318   0.133   4.188 -0.0400  0.6107  0.0241
  255MOL   Cl9931087   1.288   0.042   4.033 -0.0764 -0.3373  0.0734
  255MOL  Cl10031088   1.217   0.061   4.316  0.0510 -0.1958 -0.1262
  255MOL   C10131089   1.469   0.125   4.219 -0.8604 -0.4410  0.0257
  255MOL   H10231090   1.532   0.140   4.132  0.4916 -0.3908  1.0098
  255MOL   H10331091   1.496   0.208   4.285  1.2650 -0.8789 -0.2631
  255MOL   C10431092   1.531   9.180   4.288 -0.1512 -0.2413  0.1246
  255MOL  Cl10531093   1.482   0.020   4.458  0.5874  0.2042 -0.1209
  255MOL  Cl10631094   1.704   0.019   4.270 -0.0880 -0.1413 -0.0806
  255MOL   C10731095   1.472   9.041   4.246  0.0587 -1.2044  0.5566
  255MOL   H10831096   1.363   9.044   4.240 -0.1155  0.6382  3.5363
  255MOL   H10931097   1.504   9.034   4.142  1.3244 -0.5768  0.8980
  255MOL   C11031098   1.504   8.911   4.333 -0.2873  0.5394 -0.1583
  255MOL  Cl11131099   1.378   8.879   4.456  0.1848  0.0451 -0.3981
  255MOL  Cl11231100   1.662   8.933   4.421  0.2121  0.2587  0.2974
  255MOL   C11331101   1.521   8.788   4.237  0.1614 -0.6565  0.1676
  255MOL   H11431102   1.614   8.799   4.181  0.8083 -1.2039  1.1092
  255MOL   H11531103   1.548   8.698   4.293  0.2390 -0.8290 -0.1452
  255MOL   C11631104   1.403   8.744   4.149  0.4245  0.3053 -0.0051
  255MOL  Cl11731105   1.449   8.582   4.091 -0.0871  0.0638 -0.4672
  255MOL  Cl11831106   1.399   8.853   4.009  0.4152  0.2109 -0.3443
  255MOL   C11931107   1.261   8.744   4.199  0.2216  0.2414  0.2880
  255MOL   H12031108   1.226   8.834   4.248 -1.8065 -0.8650  0.9086
  255MOL   H12131109   1.184   8.726   4.124  0.0635  2.3462 -0.0897
  255MOL   H12231110   1.265   8.671   4.279  1.0590  1.5258  1.4352
  256MOL     C131111   0.707   0.395   2.847 -0.3763 -1.1654 -0.6136
  256MOL    Cl231112   0.532   0.389   2.884  0.6174 -0.2321 -0.1360
  256MOL    Cl331113   0.745   0.386   2.671  0.3802  0.1559 -0.3818
  256MOL     C431114   0.764   0.528   2.896  0.3209 -0.0842  0.7523
  256MOL     H531115   0.844   0.553   2.826 -0.1422 -1.7594 -0.4041
  256MOL     H631116   0.689   0.603   2.871 -0.7880 -1.7739 -1.0916
  256MOL     H731117   0.746   0.307   2.898  0.9896  0.9994  2.2771
  256MOL     C831118   0.818   0.534   3.035  0.1566  0.8340  0.1203
  256MOL    Cl931119   0.947   0.405   3.074 -0.4666 -0.3799 -0.1003
  256MOL   Cl1031120   0.692   0.507   3.149  0.1320 -0.2157  0.0135
  256MOL    C1131121   0.880   0.676   3.064  0.4540 -0.5900 -0.6070
  256MOL    H1231122   0.793   0.740   3.065  0.3393 -0.7486  0.2826
  256MOL    H1331123   0.902   0.666   3.170  0.8370 -1.2336 -0.7384
  256MOL    C1431124   1.006   0.735   2.996  1.0232 -0.4838  0.0399
  256MOL   Cl1531125   1.057   0.888   3.075 -0.0340  0.1036 -0.2433
  256MOL   Cl1631126   0.959   0.776   2.821  0.1566  0.0933 -0.3706
  256MOL    C1731127   1.135   0.640   2.986  0.4264 -0.4175  0.0033
  256MOL    H1831128   1.142   0.579   3.076 -0.8871 -1.4149 -0.5536
  256MOL    H1931129   1.094   0.572   2.912  1.4954 -2.3659  1.1518
  256MOL    C2031130   1.280   0.692   2.952  0.0662  0.4542  0.0994
  256MOL   Cl2131131   1.355   0.535   2.904 -0.0267  0.6325 -0.2821
  256MOL   Cl2231132   1.359   0.760   3.100 -0.1377 -0.0635 -0.0370
  256MOL    C2331133   1.299   0.783   2.828 -0.2404  0.8976 -0.0519
  256MOL    H2431134   1.260   0.732   2.740  1.0034  1.0097 -0.6766
  256MOL    H2531135   1.234   0.869   2.842  0.5673  1.7906 -1.6143
  256MOL    C2631136   1.435   0.839   2.777  0.1191 -0.1378  0.0763
  256MOL   Cl2731137   1.402   0.889   2.614  0.3760  0.1329 -0.0588
  256MOL   Cl2831138   1.554   0.706   2.736  0.6910 -0.4210  0.1234
  256MOL    C2931139   1.515   0.947   2.857  0.0732  0.7464  0.3224
  256MOL    H3031140   1.538   0.902   2.954 -0.2201  0.3711  0.2192
  256MOL    H3131141   1.610   0.956   2.805 -0.7269 -0.9674 -1.4896
  256MOL    C3231142   1.462   1.083   2.891  0.6403 -0.2955  0.2029
  256MOL   Cl3331143   1.306   1.080   2.980 -0.0377  0.2600 -0.2960
  256MOL   Cl3431144   1.419   1.166   2.748  0.0656  0.2162  0.0100
  256MOL    C3531145   1.557   1.174   2.962  0.8426 -0.6155  0.0441
  256MOL    H3631146   1.638   1.204   2.896  1.0451 -0.7178  0.2477
  256MOL    H3731147   1.491   1.261   2.972  2.0869  0.2063  1.3266
  256MOL    C3831148   1.623   1.149   3.102  0.1730  0.1133 -0.6922
  256MOL   Cl3931149   1.713   1.290   3.143 -0.6914 -0.0273 -0.1510
  256MOL   Cl4031150   1.736   1.016   3.092 -0.1156 -0.2756  0.0690
  256MOL    C4131151   1.517   1.118   3.211  0.3033 -0.0555 -0.3253
  256MOL    H4231152   1.430   1.180   3.191 -0.2635 -0.4810  0.7699
  256MOL    H4331153   1.488   1.016   3.184 -1.7788 -0.1681  2.2173
  256MOL    C4431154   1.538   1.129   3.365 -0.4708 -0.6796  0.3951
  256MOL   Cl4531155   1.379   1.066   3.425  0.2237  0.0773  0.3419
  256MOL   Cl4631156   1.560   1.293   3.410  0.3592 -0.2352  0.1320
  256MOL    C4731157   1.654   1.035   3.424  0.2425 -0.3215 -0.5058
  256MOL    H4831158   1.651   0.941   3.370 -1.4439 -0.4945 -0.1614
  256MOL    H4931159   1.747   1.085   3.398  0.7158 -0.1133  1.4450
  256MOL    C5031160   1.663   1.003   3.574  0.0062  0.3684 -0.4608
  256MOL   Cl5131161   1.834   0.946   3.592  0.2691  0.1729 -0.0090
  256MOL   Cl5231162   1.563   0.863   3.613 -0.1295 -0.0737  0.0286
  256MOL    C5331163   1.645   1.130   3.671 -0.2050 -0.4351  0.0709
  256MOL    H5431164   1.707   1.212   3.636 -0.7005 -0.4672 -0.8976
  256MOL    H5531165   1.548   1.168   3.640 -1.7442 -2.7659  1.9058
  256MOL    C5631166   1.660   1.124   3.829 -0.2775  1.0075  0.0287
  256MOL   Cl5731167   1.601   0.971   3.897  0.1631  0.3755  0.3668
  256MOL   Cl5831168   1.572   1.264   3.888  0.0875 -0.0923  0.1940
  256MOL    C5931169   1.807   1.134   3.862 -0.1634 -0.6251  0.3178
  256MOL    H6031170   1.845   1.035   3.841  0.9979  0.3120 -2.1755
  256MOL    H6131171   1.865   1.195   3.793  1.4933 -1.9913  0.4722
  256MOL    C6231172   1.855   1.167   4.003 -0.1559 -0.3022 -0.6176
  256MOL   Cl6331173   1.848   1.347   4.043  0.1710 -0.1665 -0.1643
  256MOL   Cl6431174   2.034   1.140   4.012  0.3833 -0.2072  0.5190
  256MOL    C6531175   1.783   1.087   4.115  0.3975  0.2306  0.2991
  256MOL    H6631176   1.679   1.120   4.103  1.1243  1.8057 -2.0029
  256MOL    H6731177   1.772   0.980   4.095 -0.7979  0.3121  0.4403
  256MOL    C6831178   1.805   1.093   4.269 -0.0150 -0.1040  0.4359
  256MOL   Cl6931179   1.698   0.958   4.334  0.1573 -0.4649 -0.1346
  256MOL   Cl7031180   1.755   1.246   4.354 -0.6076  0.1267 -0.1082
  256MOL    C7131181   1.952   1.058   4.303  0.0077 -0.0855 -0.0259
  256MOL    H7231182   1.984   0.979   4.235 -1.5207  0.3339 -1.2580
  256MOL    H7331183   2.013   1.141   4.270  0.2617 -0.7880 -1.3381
  256MOL    C7431184   2.007   1.021   4.443 -0.2877  0.6626  0.5058
  256MOL   Cl7531185   2.184   1.035   4.431  0.2668 -0.0912  0.1359
  256MOL   Cl7631186   1.961   0.848   4.449  0.0293  0.4935 -0.2630
  256MOL    C7731187   1.948   1.103   4.565 -0.7996  1.0218  0.9213
  256MOL    H7831188   1.944   1.204   4.525  0.3484  0.2246 -1.3444
  256MOL    H7931189   1.842   1.078   4.559 -0.8461  0.6538  2.9093
  256MOL    C8031190   1.984   1.090   4.717  0.1252  0.0235 -0.4866
  256MOL   Cl8131191   1.998   0.918   4.767 -0.1090 -0.0111 -0.0118
  256MOL   Cl8231192   1.848   1.168   4.795 -0.4517  0.3316  0.1056
  256MOL    C8331193   2.104   1.173   4.761  0.2721  0.1700  0.3524
  256MOL    H8431194   2.183   1.177   4.686  0.2959 -0.5783  0.3361
  256MOL    H8531195   2.062   1.274   4.760  1.7629  0.8395  1.7586
  256MOL    C8631196   2.176   1.140   4.897 -0.3381  0.5642 -0.1985
  256MOL   Cl8731197   2.061   1.125   5.034  0.2293  0.1009  0.0863
  256MOL   Cl8831198   2.281   1.284   4.920 -0.0226 -0.0471 -0.4362
  256MOL    C8931199   2.282   1.020   4.879 -0.2586  0.7437 -0.9462
  256MOL    H9031200   2.259   0.950   4.799  0.6132 -0.9353  0.2278
  256MOL    H9131201   2.366   1.067   4.828 -0.6393  0.3188 -1.9890
  256MOL    C9231202   2.330   0.936   5.007 -0.0180  0.2964  0.3806
  256MOL   Cl9331203   2.451   0.810   4.948 -0.2554  0.1296 -0.2163
  256MOL   Cl9431204   2.182   0.846   5.061  0.2501  0.0483  0.4675
  256MOL    C9531205   2.376   1.023   5.121 -0.7180 -0.0224 -0.3222
  256MOL    H9631206   2.445   1.096   5.079 -1.0630  0.1384 -0.6170
  256MOL    H9731207   2.289   1.081   5.153 -1.3017 -0.8399 -0.3818
  256MOL    C9831208   2.453   0.980   5.247 -0.4167  0.0218 -0.2848
  256MOL   Cl9931209   2.461   1.124   5.353 -0.1918 -0.7460 -0.1914
  256MOL  Cl10031210   2.616   0.937   5.191 -0.1939 -0.0606  0.0266
  256MOL   C10131211   2.385   0.871   5.325  0.4701  0.2320  0.1184
  256MOL   H10231212   2.290   0.912   5.358  0.8555 -0.2935  1.9372
  256MOL   H10331213   2.356   0.796   5.253  2.0984  1.2443 -1.6442
  256MOL   C10431214   2.452   0.801   5.445 -0.4704 -0.6303  0.1447
  256MOL  Cl10531215   2.326   0.715   5.533 -0.2475  0.2609  0.2337
  256MOL  Cl10631216   2.515   0.910   5.570 -0.0982  0.1698 -0.2321
  256MOL   C10731217   2.574   0.705   5.422  0.7235  0.0257 -0.8810
  256MOL   H10831218   2.662   0.749   5.375  1.7940  0.0181  1.1097
  256MOL   H10931219   2.616   0.689   5.521  0.7887  0.5125 -0.8301
  256MOL   C11031220   2.569   0.563   5.357 -0.1883  0.0045 -0.0585
  256MOL  Cl11131221   2.731   0.533   5.301 -0.6521  0.2790  0.1144
  256MOL  Cl11231222   2.466   0.569   5.208  0.1065 -0.0956  0.0660
  256MOL   C11331223   2.535   0.458   5.456 -0.3347  0.0668  0.1458
  256MOL   H11431224   2.611   0.465   5.533  1.8284 -1.1019 -1.8412
  256MOL   H11531225   2.433   0.473   5.492 -0.1612 -0.3219  0.7971
  256MOL   C11631226   2.536   0.312   5.410 -0.7223 -0.8497 -0.5600
  256MOL  Cl11731227   2.496   0.223   5.555 -0.3030  0.0126 -0.2687
  256MOL  Cl11831228   2.684   0.244   5.346  0.2914  0.1801 -0.2186
  256MOL   C11931229   2.423   0.273   5.310  0.1796 -0.0768 -0.3347
  256MOL   H12031230   2.442   0.318   5.213 -1.1940 -1.1200 -1.1175
  256MOL   H12131231   2.414   0.165   5.294 -1.8396  0.0824 -0.4394
  256MOL   H12231232   2.325   0.305   5.345  0.5760 -0.6647  1.3379
  257MOL     C131233   0.836   7.014   6.139  0.1633 -0.0059 -0.6242
  257MOL    Cl231234   0.960   6.993   6.022 -0.0820 -0.0254 -0.2577
  257MOL    Cl331235   0.814   6.859   6.221 -0.0446  0.1354 -0.1648
  257MOL     C431236   0.880   7.124   6.235 -0.4114 -0.8356 -0.5542
  257MOL     H531237   0.975   7.104   6.285 -0.0609 -0.1204 -0.9161
  257MOL     H631238   0.900   7.209   6.169 -1.8036  0.4694  0.6829
  257MOL     H731239   0.748   7.035   6.078  0.2615 -2.5725 -1.6925
  257MOL     C831240   0.775   7.194   6.316 -0.9882 -0.2720 -0.3268
  257MOL    Cl931241   0.647   7.245   6.211  0.0580 -0.2740 -0.3714
  257MOL   Cl1031242   0.855   7.344   6.369  0.3823 -0.6375 -0.2621
  257MOL    C1131243   0.707   7.111   6.432 -1.0910 -0.7898  0.4565
  257MOL    H1231244   0.620   7.169   6.462 -0.6787  1.1377 -1.8577
  257MOL    H1331245   0.651   7.030   6.385  0.6852 -1.4855 -0.5318
  257MOL    C1431246   0.782   7.070   6.559  0.1544  0.0342 -0.8662
  257MOL   Cl1531247   0.821   7.220   6.655 -0.1306  0.0145  0.0282
  257MOL   Cl1631248   0.935   6.984   6.509 -0.1024  0.5114  0.1938
  257MOL    C1731249   0.691   6.977   6.647  0.4772  0.3361  0.2033
  257MOL    H1831250   0.596   7.029   6.656  0.0257 -0.4141 -0.1355
  257MOL    H1931251   0.672   6.896   6.576 -1.4814 -0.1522  1.2235
  257MOL    C2031252   0.733   6.906   6.779  0.4455 -0.3155 -0.1242
  257MOL   Cl2131253   0.756   7.022   6.911  0.0744 -0.3540  0.1952
  257MOL   Cl2231254   0.894   6.836   6.764 -0.4461  0.2409 -0.1669
  257MOL    C2331255   0.645   6.788   6.835 -0.6751  0.0087 -0.7580
  257MOL    H2431256   0.677   6.694   6.789 -0.3968  0.2595 -1.0815
  257MOL    H2531257   0.681   6.759   6.934  0.1336 -1.1806 -1.3866
  257MOL    C2631258   0.495   6.779   6.826  0.8647  0.6858 -0.3125
  257MOL   Cl2731259   0.448   6.761   6.652 -0.1394  0.0540  0.0402
  257MOL   Cl2831260   0.438   6.939   6.884 -0.0966  0.1281 -0.4119
  257MOL    C2931261   0.437   6.652   6.902 -0.7308 -0.5975 -0.4597
  257MOL    H3031262   0.459   6.561   6.845  1.5627 -0.0235 -0.5018
  257MOL    H3131263   0.498   6.636   6.991  0.8357  0.7525 -1.2798
  257MOL    C3231264   0.291   6.637   6.943  0.2572  0.4457 -0.2045
  257MOL   Cl3331265   0.266   6.463   6.993  0.1718 -0.0207 -0.3774
  257MOL   Cl3431266   0.173   6.667   6.800  0.2652 -0.3546  0.1907
  257MOL    C3531267   0.241   6.741   7.047 -0.1156  0.3125 -0.9193
  257MOL    H3631268   0.224   6.835   6.995  1.4980  0.5382 -1.0733
  257MOL    H3731269   0.143   6.696   7.059 -0.3237  0.5794 -1.6048
  257MOL    C3831270   0.298   6.751   7.195 -1.0544 -0.7007  0.0810
  257MOL   Cl3931271   0.466   6.805   7.196  0.1597  0.1268 -0.2099
  257MOL   Cl4031272   0.308   6.599   7.278 -0.3036 -0.4621  0.1536
  257MOL    C4131273   0.203   6.843   7.293 -0.2460  0.0661  0.1650
  257MOL    H4231274   0.124   6.773   7.318  1.3009 -1.8287 -0.1137
  257MOL    H4331275   0.278   6.857   7.371  1.4815 -2.1568 -1.0190
  257MOL    C4431276   0.159   6.980   7.244 -0.1018  0.3185 -0.4030
  257MOL   Cl4531277   0.023   6.961   7.131 -0.0411 -0.1498  0.2165
  257MOL   Cl4631278   0.284   7.063   7.155 -0.3219  0.1787  0.5625
  257MOL    C4731279   0.109   7.067   7.361 -0.1069 -0.3732  0.5741
  257MOL    H4831280   0.201   7.115   7.396 -1.1644  2.1414  0.0539
  257MOL    H4931281   0.066   7.155   7.312  0.7054  0.5408  1.4776
  257MOL    C5031282   0.015   7.016   7.479 -1.1381 -0.2331 -0.4718
  257MOL   Cl5131283   0.101   6.893   7.577  0.0210 -0.0539  0.2050
  257MOL   Cl5231284   9.046   6.941   7.412 -0.4260 -0.4306 -0.0597
  257MOL    C5331285   9.175   7.138   7.567  0.5637  0.3814  0.2555
  257MOL    H5431286   0.090   7.180   7.600  0.2528  0.4401  1.1106
  257MOL    H5531287   9.123   7.203   7.497 -1.4594  0.8569  2.1370
  257MOL    C5631288   9.093   7.121   7.704  0.1870 -0.2365 -0.0398
  257MOL   Cl5731289   8.941   7.015   7.695  0.2517  0.0297 -0.0594
  257MOL   Cl5831290   9.038   7.290   7.735  0.1851  0.3030 -0.2745
  257MOL    C5931291   0.002   7.085   7.827 -0.3961 -0.2499  0.4872
  257MOL    H6031292   0.093   7.034   7.795 -0.0451 -1.4100  3.1971
  257MOL    H6131293   0.040   7.177   7.870 -1.2435  0.5500 -0.4367
  257MOL    C6231294   9.125   7.000   7.948  0.1855  0.4311  0.8020
  257MOL   Cl6331295   0.080   6.998   8.055 -0.2494 -0.1835 -0.1995
  257MOL   Cl6431296   9.102   6.834   7.889 -0.1299 -0.1525  0.2064
  257MOL    C6531297   9.006   7.054   8.032  0.7671 -1.0835 -0.3710
  257MOL    H6631298   9.041   7.145   8.081 -1.1796 -1.2749  1.4664
  257MOL    H6731299   8.931   7.090   7.962  0.1167 -3.9074 -1.1693
  257MOL    C6831300   8.944   6.949   8.135  0.7268 -0.1280 -0.4159
  257MOL   Cl6931301   9.071   6.862   8.241  0.3543  0.1468  0.6046
  257MOL   Cl7031302   8.850   6.822   8.045  0.1131  0.2151 -0.4843
  257MOL    C7131303   8.836   7.016   8.236  0.3051  0.0145 -0.3493
  257MOL    H7231304   8.749   7.043   8.176  0.8001 -1.1557 -1.6169
  257MOL    H7331305   8.801   6.935   8.300 -1.6888 -1.4020 -3.1281
  257MOL    C7431306   8.874   7.145   8.320 -0.0771 -0.5897 -0.1253
  257MOL   Cl7531307   8.762   7.159   8.459  0.2533  0.3653  0.3272
  257MOL   Cl7631308   8.864   7.280   8.213  0.0791 -0.2409  0.0514
  257MOL    C7731309   9.012   7.134   8.392 -0.1956 -0.0141  0.4223
  257MOL    H7831310   9.003   7.036   8.439  1.2253  0.2711  1.2899
  257MOL    H7931311   9.078   7.109   8.309 -1.7283  0.4738 -0.9874
  257MOL    C8031312   9.084   7.238   8.479 -0.4250  0.4487  0.4138
  257MOL   Cl8131313   0.069   7.185   8.484  0.1232  0.1016  0.1065
  257MOL   Cl8231314   9.009   7.229   8.640 -0.2730  0.1903  0.1711
  257MOL    C8331315   9.070   7.382   8.426 -0.0446  0.1219  0.2183
  257MOL    H8431316   9.079   7.376   8.317 -0.7649 -0.5436  0.1903
  257MOL    H8531317   8.965   7.403   8.445 -0.0373 -0.1484  0.5444
  257MOL    C8631318   9.161   7.499   8.456  0.3469  0.1773  0.3175
  257MOL   Cl8731319   0.024   7.498   8.631 -0.0784 -0.1686 -0.1860
  257MOL   Cl8831320   9.069   7.648   8.416 -0.2115 -0.2427  0.0953
  257MOL    C8931321   0.120   7.495   8.381  0.7776  0.0546  0.0076
  257MOL    H9031322   0.174   7.588   8.400  0.4838  0.3530 -0.5948
  257MOL    H9131323   0.183   7.412   8.412  2.0221  1.4426  1.2717
  257MOL    C9231324   0.132   7.487   8.227  1.1226 -0.2977 -0.3968
  257MOL   Cl9331325   0.090   7.319   8.172  0.2831  0.3318 -0.2009
  257MOL   Cl9431326   0.303   7.518   8.206  0.5564 -0.4172  0.1334
  257MOL    C9531327   0.051   7.591   8.146 -0.2849 -0.6423 -0.3098
  257MOL    H9631328   9.125   7.571   8.155 -0.5627  0.8195 -0.1238
  257MOL    H9731329   0.048   7.683   8.205 -0.1782 -0.2530 -0.9024
  257MOL    C9831330   0.077   7.629   7.995  0.2632  0.1504 -0.2514
  257MOL   Cl9931331   9.101   7.667   7.934  0.0714 -0.1232  0.6383
  257MOL  Cl10031332   0.137   7.495   7.891 -0.1779 -0.3718 -0.1429
  257MOL   C10131333   0.187   7.745   7.983  0.5124  0.9552  0.0355
  257MOL   H10231334   0.180   7.815   8.067 -0.6249 -1.7180  2.2213
  257MOL   H10331335   0.280   7.692   8.003 -1.4072 -1.8116  1.9608
  257MOL   C10431336   0.199   7.832   7.864  0.3089  0.0913  0.4436
  257MOL  Cl10531337   0.345   7.937   7.877  0.0819  0.2739  0.2502
  257MOL  Cl10631338   0.062   7.944   7.859 -0.3513 -0.2341  0.0556
  257MOL   C10731339   0.189   7.759   7.729  0.3693  0.4712  0.4701
  257MOL   H10831340   0.258   7.674   7.733 -0.3683 -0.1476  0.2017
  257MOL   H10931341   0.090   7.717   7.716  0.4003  0.7458 -0.6290
  257MOL   C11031342   0.228   7.835   7.599 -0.6040  0.1660 -0.7784
  257MOL  Cl11131343   0.404   7.843   7.577  0.0145 -0.1631 -0.1276
  257MOL  Cl11231344   0.148   7.992   7.572 -0.1394 -0.1900  0.0522
  257MOL   C11331345   0.171   7.763   7.481 -0.1331 -0.0521 -0.4186
  257MOL   H11431346   0.062   7.775   7.483 -0.1298 -0.1149  0.1740
  257MOL   H11531347   0.213   7.823   7.400  0.3874  0.3370  0.1434
  257MOL   C11631348   0.198   7.611   7.458 -0.3214 -0.0549 -0.2660
  257MOL  Cl11731349   0.135   7.582   7.290  0.1570 -0.0430  0.0890
  257MOL  Cl11831350   0.096   7.507   7.562  0.0157  0.1282  0.2963
  257MOL   C11931351   0.348   7.551   7.458  0.1731 -0.0853 -0.3004
  257MOL   H12031352   0.384   7.549   7.561  0.7919 -0.7452 -0.5268
  257MOL   H12131353   0.353   7.447   7.426  1.1597 -0.4221  0.8841
  257MOL   H12231354   0.402   7.611   7.385  2.2540  0.5278  1.6781
  258MOL     C131355   8.647   4.102   4.507 -0.5957  0.8173  0.1939
  258MOL    Cl231356   8.703   3.990   4.635  0.3168 -0.0304  0.1562
  258MOL    Cl331357   8.505   4.048   4.415  0.2585 -0.4039  0.1933
  258MOL     C431358   8.615   4.244   4.567  0.2930  0.7211  0.5870
  258MOL     H531359   8.507   4.246   4.584 -0.3929 -2.2264 -2.8065
  258MOL     H631360   8.665   4.244   4.663  2.4793 -0.7921 -0.5153
  258MOL     H731361   8.725   4.113   4.432 -1.4728  1.9835 -0.5657
  258MOL     C831362   8.659   4.373   4.492  0.1303 -0.5463  0.1271
  258MOL    Cl931363   8.592   4.362   4.318 -0.0257  0.5695  0.0124
  258MOL   Cl1031364   8.838   4.367   4.492 -0.1670  0.1366  0.0302
  258MOL    C1131365   8.610   4.502   4.566  0.1129  0.6189  0.2561
  258MOL    H1231366   8.508   4.497   4.604  0.3151  2.6191  1.0921
  258MOL    H1331367   8.661   4.513   4.662 -0.3271 -1.5930  0.7802
  258MOL    C1431368   8.622   4.643   4.497  0.1550  0.3049  0.0330
  258MOL   Cl1531369   8.783   4.669   4.424  0.2531  0.5036 -0.1274
  258MOL   Cl1631370   8.612   4.751   4.632 -0.4959 -0.0860 -0.4490
  258MOL    C1731371   8.506   4.679   4.403  0.4130  1.3112  1.1082
  258MOL    H1831372   8.457   4.583   4.385  4.5094 -0.8246  0.7256
  258MOL    H1931373   8.423   4.723   4.459  0.1843  3.6409 -0.9833
  258MOL    C2031374   8.521   4.770   4.274 -0.2537  0.5075  0.0446
  258MOL   Cl2131375   8.617   4.917   4.321 -0.2007  0.0060 -0.0103
  258MOL   Cl2231376   8.352   4.817   4.228 -0.4175 -0.3624  0.5227
  258MOL    C2331377   8.595   4.689   4.161 -0.4702 -0.6417 -0.8436
  258MOL    H2431378   8.698   4.684   4.195 -0.5973  0.7370 -0.2348
  258MOL    H2531379   8.557   4.587   4.174  0.9181 -1.1339 -0.5728
  258MOL    C2631380   8.583   4.721   4.009 -0.3153 -0.4526  0.3386
  258MOL   Cl2731381   8.600   4.896   4.000  0.2159  0.4494 -0.1154
  258MOL   Cl2831382   8.422   4.674   3.940 -0.0061 -0.1379  0.4074
  258MOL    C2931383   8.694   4.664   3.919  0.7728  0.4919 -0.2384
  258MOL    H3031384   8.667   4.686   3.816  0.3566 -3.5997 -1.1074
  258MOL    H3131385   8.787   4.720   3.931  0.5347  0.8897 -0.2662
  258MOL    C3231386   8.724   4.509   3.929 -0.3537  0.4700  0.5215
  258MOL   Cl3331387   8.567   4.418   3.931  0.1923  0.4618  0.2771
  258MOL   Cl3431388   8.821   4.470   4.079  0.2477 -0.0100  0.0178
  258MOL    C3531389   8.805   4.474   3.802 -0.4713  0.3997 -0.3707
  258MOL    H3631390   8.736   4.474   3.717  0.0912  3.1113 -0.8736
  258MOL    H3731391   8.878   4.554   3.784  0.3925  0.0766  1.6509
  258MOL    C3831392   8.887   4.345   3.791  0.6700  0.6577 -0.3430
  258MOL   Cl3931393   9.033   4.354   3.893 -0.8559 -0.2798  0.1417
  258MOL   Cl4031394   8.949   4.354   3.625  0.3327 -0.3947  0.0890
  258MOL    C4131395   8.808   4.214   3.812 -0.7177  0.2446  0.9064
  258MOL    H4231396   8.744   4.229   3.899 -1.6854 -0.2627  0.2908
  258MOL    H4331397   8.743   4.204   3.725 -0.4439 -0.1620  0.7468
  258MOL    C4431398   8.870   4.077   3.824  0.8285  0.0705  0.2990
  258MOL   Cl4531399   9.006   4.055   3.712  0.0175 -0.0320  0.0475
  258MOL   Cl4631400   8.747   3.965   3.769  0.1863 -0.3789 -0.0754
  258MOL    C4731401   8.919   4.036   3.964  0.0410  0.1522  0.1553
  258MOL    H4831402   8.993   3.959   3.947 -2.2436 -1.9428 -0.6014
  258MOL    H4931403   8.957   4.126   4.012 -0.2018 -0.8357  2.2701
  258MOL    C5031404   8.820   3.978   4.072  0.1361 -0.0277  0.2588
  258MOL   Cl5131405   8.684   4.094   4.107  0.1421 -0.1853  0.0758
  258MOL   Cl5231406   8.913   3.978   4.220 -0.4050  0.0199  0.0580
  258MOL    C5331407   8.762   3.840   4.038  0.1143 -0.2648 -1.0009
  258MOL    H5431408   8.674   3.862   3.979 -0.0525 -0.3623 -0.7898
  258MOL    H5531409   8.839   3.801   3.971  0.8987  1.4351 -1.1061
  258MOL    C5631410   8.745   3.727   4.144  0.9375 -0.6160 -0.0464
  258MOL   Cl5731411   8.903   3.663   4.217  0.0322  0.3232  0.0604
  258MOL   Cl5831412   8.678   3.590   4.048  0.0205  0.9539 -0.0361
  258MOL    C5931413   8.653   3.752   4.262  0.1067 -0.1833  0.4749
  258MOL    H6031414   8.720   3.798   4.334 -0.9629  1.7526  0.2759
  258MOL    H6131415   8.584   3.830   4.230  0.8703  0.2296 -0.1975
  258MOL    C6231416   8.571   3.635   4.325  0.2248 -0.4629  1.1118
  258MOL   Cl6331417   8.430   3.591   4.235 -0.0430  0.1279  0.0921
  258MOL   Cl6431418   8.519   3.704   4.476  0.4223  0.0661  0.1645
  258MOL    C6531419   8.657   3.509   4.368 -0.5428 -0.7481 -0.4774
  258MOL    H6631420   8.721   3.484   4.283  0.6337  2.4248 -0.6080
  258MOL    H6731421   8.725   3.539   4.447 -1.9424  0.2379  0.3636
  258MOL    C6831422   8.592   3.376   4.413 -0.0165  0.6007  0.6957
  258MOL   Cl6931423   8.715   3.275   4.477  0.0432 -0.2727 -0.4190
  258MOL   Cl7031424   8.547   3.289   4.267  0.2621  0.3267 -0.0913
  258MOL    C7131425   8.472   3.393   4.508  0.4344 -0.2778  0.3764
  258MOL    H7231426   8.508   3.447   4.596  1.8497  0.2536 -0.5058
  258MOL    H7331427   8.394   3.449   4.458 -0.3450 -0.8359  0.9546
  258MOL    C7431428   8.399   3.272   4.567  0.3676 -0.3543  0.0284
  258MOL   Cl7531429   8.502   3.160   4.659 -0.4816 -0.1034  0.0672
  258MOL   Cl7631430   8.331   3.164   4.438 -0.1838 -0.4658 -0.1139
  258MOL    C7731431   8.277   3.314   4.652  0.4411  1.4923  0.0497
  258MOL    H7831432   8.210   3.352   4.575  0.8695 -1.8588 -2.1003
  258MOL    H7931433   8.237   3.228   4.705 -3.2185  3.3263  0.3994
  258MOL    C8031434   8.267   3.419   4.768  0.0950  0.2231 -0.0136
  258MOL   Cl8131435   8.318   3.583   4.723  0.1257 -0.0454 -0.7646
  258MOL   Cl8231436   8.398   3.363   4.876  0.0648 -0.3081  0.4305
  258MOL    C8331437   8.123   3.415   4.835 -0.6356  0.2688 -0.0901
  258MOL    H8431438   8.120   3.326   4.897 -1.4092  0.0898 -0.3776
  258MOL    H8531439   8.131   3.492   4.911 -3.0522 -1.0501  1.5567
  258MOL    C8631440   7.992   3.433   4.753 -0.4017  0.5248  0.5241
  258MOL   Cl8731441   7.962   3.295   4.643 -0.3688  0.0883  0.4134
  258MOL   Cl8831442   8.001   3.583   4.663  0.4028 -0.2464 -0.3968
  258MOL    C8931443   7.858   3.444   4.835  0.1658 -0.1263  0.3555
  258MOL    H9031444   7.782   3.478   4.765  0.9555 -2.8269 -1.8801
  258MOL    H9131445   7.829   3.340   4.847 -0.6630  0.1145  0.4470
  258MOL    C9231446   7.855   3.509   4.980 -0.0341 -0.5139 -0.6158
  258MOL   Cl9331447   7.912   3.675   4.969 -0.0336 -0.1864  0.0946
  258MOL   Cl9431448   7.946   3.412   5.101  0.1213  0.5120  0.2468
  258MOL    C9531449   7.709   3.519   5.035 -0.3015 -0.0457 -0.5452
  258MOL    H9631450   7.705   3.547   5.140  1.0427  0.1520 -0.5432
  258MOL    H9731451   7.665   3.610   4.993  1.0581  1.6882  1.6940
  258MOL    C9831452   7.606   3.408   5.011 -0.0245 -0.0629  0.3300
  258MOL   Cl9931453   7.678   3.250   5.056  0.1282 -0.2622  0.1293
  258MOL  Cl10031454   7.557   3.421   4.839 -0.4441  0.0538  0.0198
  258MOL   C10131455   7.479   3.430   5.096  0.3109  0.1651 -0.2457
  258MOL   H10231456   7.515   3.414   5.198  3.1817 -0.1168 -1.2319
  258MOL   H10331457   7.467   3.538   5.099  2.8582  0.6180 -3.2440
  258MOL   C10431458   7.338   3.367   5.065  0.5086  0.5916 -0.4881
  258MOL  Cl10531459   7.355   3.209   4.971  0.2813 -0.0289  0.1719
  258MOL  Cl10631460   7.242   3.481   4.958 -0.1555  0.0743  0.0266
  258MOL   C10731461   7.250   3.343   5.191 -0.3323 -0.3149  0.8644
  258MOL   H10831462   7.150   3.319   5.155 -0.7219  0.6902  1.2608
  258MOL   H10931463   7.275   3.247   5.234  1.7171  0.2221  0.9456
  258MOL   C11031464   7.240   3.445   5.307  0.1162  0.1868  0.1819
  258MOL  Cl11131465   7.226   3.616   5.250 -0.2588  0.2842  0.2225
  258MOL  Cl11231466   7.376   3.446   5.435  0.0434 -0.1859  0.0818
  258MOL   C11331467   7.114   3.410   5.391  0.6472 -0.5071  0.3189
  258MOL   H11431468   7.118   3.466   5.484 -0.1591  0.4431 -0.2049
  258MOL   H11531469   7.030   3.452   5.335 -1.8460 -2.0326  2.7637
  258MOL   C11631470   7.072   3.263   5.430  0.3147 -0.2165 -0.2080
  258MOL  Cl11731471   7.198   3.169   5.505 -0.2477 -0.0105 -0.5233
  258MOL  Cl11831472   7.012   3.165   5.292  0.0566 -0.4835  0.6093
  258MOL   C11931473   6.953   3.276   5.531  0.0844  0.6286 -0.5646
  258MOL   H12031474   6.918   3.182   5.574  1.6975  0.3620  0.2384
  258MOL   H12131475   6.993   3.338   5.612  0.8712  0.4631 -0.8179
  258MOL   H12231476   6.864   3.324   5.491 -0.3194 -1.4930 -2.2674
  259MOL     C131477   5.617   4.643   3.869  1.0320  0.7219 -0.3725
  259MOL    Cl231478   5.659   4.473   3.830 -0.1526  0.1983 -0.2602
  259MOL    Cl331479   5.520   4.697   3.726 -0.7773  0.1056  0.0329
  259MOL     C431480   5.542   4.666   3.994  0.2019 -0.4615 -0.0622
  259MOL     H531481   5.475   4.748   3.966  1.1042 -0.2516 -1.6559
  259MOL     H631482   5.479   4.580   4.015  0.0491  0.0392  1.5842
  259MOL     H731483   5.705   4.707   3.860 -0.9704  3.6527  0.0746
  259MOL     C831484   5.628   4.700   4.126  0.1580 -0.6154 -0.3350
  259MOL    Cl931485   5.738   4.843   4.095 -0.0219 -0.1895  0.0247
  259MOL   Cl1031486   5.719   4.556   4.171  0.7068 -0.1294 -0.1669
  259MOL    C1131487   5.537   4.748   4.242 -0.9488  0.6989 -0.1845
  259MOL    H1231488   5.486   4.841   4.216  1.8584  2.9034  1.8996
  259MOL    H1331489   5.446   4.688   4.252 -1.1752  1.4962  2.8726
  259MOL    C1431490   5.594   4.766   4.389 -0.3779  0.2204 -0.0931
  259MOL   Cl1531491   5.620   4.604   4.455 -0.2365  0.3893  0.4359
  259MOL   Cl1631492   5.485   4.841   4.502 -0.2060 -0.3344  0.4115
  259MOL    C1731493   5.730   4.844   4.404 -0.0668 -0.0933  0.6813
  259MOL    H1831494   5.763   4.820   4.505  0.0255 -0.7061  0.5118
  259MOL    H1931495   5.806   4.806   4.335  0.1655  1.7620 -0.1262
  259MOL    C2031496   5.732   5.000   4.406 -0.0376  0.3191  0.5878
  259MOL   Cl2131497   5.608   5.071   4.306  0.5648  0.0870  0.0804
  259MOL   Cl2231498   5.884   5.040   4.328 -0.4717 -0.0171  0.0828
  259MOL    C2331499   5.733   5.064   4.552 -0.1451  0.5639 -0.1329
  259MOL    H2431500   5.654   5.016   4.610  2.2232 -0.3046  2.4384
  259MOL    H2531501   5.823   5.023   4.598 -0.2023  0.4107 -0.1551
  259MOL    C2631502   5.715   5.217   4.572 -0.7175  0.8165 -0.0118
  259MOL   Cl2731503   5.739   5.257   4.745 -0.2327 -0.3240  0.1010
  259MOL   Cl2831504   5.546   5.255   4.540 -0.0711 -0.1738  0.0335
  259MOL    C2931505   5.795   5.316   4.475 -0.1556 -0.0402  0.4456
  259MOL    H3031506   5.897   5.281   4.486 -0.7745 -1.7532  0.8368
  259MOL    H3131507   5.773   5.288   4.372  0.3252  1.7950 -0.1819
  259MOL    C3231508   5.790   5.473   4.497 -0.4889  0.4396  0.4015
  259MOL   Cl3331509   5.898   5.540   4.368 -0.2782 -0.1507 -0.5547
  259MOL   Cl3431510   5.872   5.516   4.649  0.0320  0.2384 -0.1769
  259MOL    C3531511   5.655   5.555   4.496  0.2155  0.3180 -0.2351
  259MOL    H3631512   5.583   5.518   4.569 -0.4960  1.9046 -0.1100
  259MOL    H3731513   5.671   5.657   4.532  0.0092  0.0157  0.7367
  259MOL    C3831514   5.563   5.565   4.365 -0.4361  0.9604  0.2795
  259MOL   Cl3931515   5.404   5.607   4.425  0.2428  0.1302 -0.1598
  259MOL   Cl4031516   5.555   5.418   4.270 -0.0630  0.0192  0.0813
  259MOL    C4131517   5.615   5.671   4.266  0.4707 -0.6509  1.0780
  259MOL    H4231518   5.652   5.760   4.317 -2.0529  0.5403  0.8636
  259MOL    H4331519   5.710   5.632   4.228  1.0575  0.3730  1.4564
  259MOL    C4431520   5.533   5.736   4.152  0.7020 -0.1111 -0.1596
  259MOL   Cl4531521   5.490   5.905   4.211 -0.1474  0.0137  0.0254
  259MOL   Cl4631522   5.386   5.643   4.109 -0.0701  0.3932  0.4160
  259MOL    C4731523   5.618   5.745   4.017  0.1336  0.7936 -0.0197
  259MOL    H4831524   5.719   5.764   4.053 -0.7652  0.3227  2.8163
  259MOL    H4931525   5.621   5.644   3.977 -0.2780  0.8558 -0.2115
  259MOL    C5031526   5.596   5.842   3.897 -0.0015 -0.8761  0.5964
  259MOL   Cl5131527   5.658   5.766   3.745 -0.0676  0.3828  0.0810
  259MOL   Cl5231528   5.701   5.976   3.931  0.1753 -0.0010  0.0875
  259MOL    C5331529   5.443   5.878   3.880 -0.5464  0.1655  0.1853
  259MOL    H5431530   5.396   5.781   3.896 -0.6437  0.1117 -0.3941
  259MOL    H5531531   5.430   5.945   3.964  2.7902  1.2727 -0.0956
  259MOL    C5631532   5.390   5.945   3.747  0.7365 -0.3325 -0.5355
  259MOL   Cl5731533   5.366   5.838   3.615 -0.1222 -0.0153 -0.0829
  259MOL   Cl5831534   5.515   6.072   3.694 -0.4312  0.5967 -0.1068
  259MOL    C5931535   5.263   6.020   3.785  0.2037 -0.5472  0.1450
  259MOL    H6031536   5.203   5.951   3.845 -0.7852  0.8974  0.8427
  259MOL    H6131537   5.273   6.103   3.855  1.0314 -0.8866  0.4230
  259MOL    C6231538   5.160   6.081   3.684  0.8378  0.0213  0.1850
  259MOL   Cl6331539   5.074   5.941   3.610 -0.1084  0.1422  0.5865
  259MOL   Cl6431540   5.249   6.173   3.562  0.0515  0.0811 -0.1253
  259MOL    C6531541   5.051   6.166   3.772 -0.3426  0.6740 -0.3372
  259MOL    H6631542   5.027   6.124   3.870  1.2518 -0.1125 -0.2715
  259MOL    H6731543   5.111   6.256   3.792  1.0609 -0.8505  2.8173
  259MOL    C6831544   4.906   6.193   3.723  1.1922  0.6115  0.6328
  259MOL   Cl6931545   4.814   6.040   3.735  0.1745  0.2141 -0.2440
  259MOL   Cl7031546   4.902   6.241   3.550 -0.3887 -0.2631  0.1653
  259MOL    C7131547   4.835   6.312   3.802  0.5521  0.0674  0.4054
  259MOL    H7231548   4.852   6.296   3.908 -1.3116  1.0044  0.8729
  259MOL    H7331549   4.875   6.412   3.783  0.1222  0.2740  0.5781
  259MOL    C7431550   4.684   6.340   3.796 -0.2292 -0.0976 -0.6541
  259MOL   Cl7531551   4.661   6.495   3.893 -0.6953  0.1929  0.2800
  259MOL   Cl7631552   4.597   6.210   3.883  0.3414  0.0369 -0.1296
  259MOL    C7731553   4.631   6.362   3.653 -0.2840  0.0295 -0.6744
  259MOL    H7831554   4.695   6.435   3.605  1.8884 -1.9834 -0.9612
  259MOL    H7931555   4.643   6.272   3.593 -3.2915 -1.2695  0.5416
  259MOL    C8031556   4.482   6.408   3.627 -0.7368  0.6097 -0.5180
  259MOL   Cl8131557   4.442   6.358   3.457  0.4766 -0.5598 -0.0207
  259MOL   Cl8231558   4.491   6.588   3.638  0.0181  0.3096  0.3020
  259MOL    C8331559   4.369   6.345   3.721 -0.3597 -0.7244  0.1159
  259MOL    H8431560   4.380   6.237   3.734 -0.7338 -1.0374 -2.0080
  259MOL    H8531561   4.402   6.372   3.822 -0.7120  0.2701 -0.0328
  259MOL    C8631562   4.214   6.367   3.699 -0.1879 -0.9251 -0.2803
  259MOL   Cl8731563   4.149   6.270   3.839  0.1474 -0.4499 -0.1256
  259MOL   Cl8831564   4.157   6.290   3.551  0.1104 -0.0453 -0.1509
  259MOL    C8931565   4.168   6.512   3.709 -0.3756  0.4909  0.7194
  259MOL    H9031566   4.242   6.554   3.777  0.1419  1.2912 -0.3338
  259MOL    H9131567   4.196   6.551   3.611 -0.8811 -0.6969  0.0829
  259MOL    C9231568   4.026   6.550   3.751  0.3914 -0.5295  0.1864
  259MOL   Cl9331569   4.000   6.717   3.705  0.1179  0.3760  0.0920
  259MOL   Cl9431570   4.002   6.535   3.920 -0.4243  0.1041  0.6182
  259MOL    C9531571   3.916   6.464   3.672  0.2197 -0.3140  0.0552
  259MOL    H9631572   3.958   6.453   3.572  1.4296  1.1374  0.3889
  259MOL    H9731573   3.902   6.367   3.719 -3.6839  1.2598  2.3922
  259MOL    C9831574   3.773   6.522   3.651 -0.4267  1.1054 -0.2697
  259MOL   Cl9931575   3.774   6.663   3.532  0.0510 -0.0648  0.3822
  259MOL  Cl10031576   3.710   6.586   3.815 -0.1008 -0.1562 -0.2398
  259MOL   C10131577   3.670   6.416   3.605  0.1988 -0.0238 -0.0986
  259MOL   H10231578   3.638   6.361   3.694  1.2392  0.0405  0.3257
  259MOL   H10331579   3.590   6.485   3.576 -0.0980 -1.1420 -1.9666
  259MOL   C10431580   3.690   6.316   3.492 -0.4969  0.2984  0.2283
  259MOL  Cl10531581   3.778   6.398   3.359  0.4797  0.1831  0.3295
  259MOL  Cl10631582   3.533   6.277   3.412  0.1065 -0.0847  0.1050
  259MOL   C10731583   3.754   6.175   3.547  0.0869 -0.3408 -0.6962
  259MOL   H10831584   3.861   6.191   3.558 -0.0408  2.0502 -2.3010
  259MOL   H10931585   3.705   6.142   3.638 -2.7459  1.5204 -1.4590
  259MOL   C11031586   3.757   6.049   3.448 -0.0042 -0.4941  0.1638
  259MOL  Cl11131587   3.743   6.084   3.269  0.2731 -0.2117 -0.1085
  259MOL  Cl11231588   3.614   5.955   3.490  0.0731  0.2406  0.3154
  259MOL   C11331589   3.884   5.964   3.462 -0.1921 -0.2381 -0.1644
  259MOL   H11431590   3.884   5.895   3.377 -1.9606 -0.7098  0.2090
  259MOL   H11531591   3.971   6.030   3.456  0.7909 -1.3903  1.1163
  259MOL   C11631592   3.911   5.874   3.582 -0.2118 -0.7898  0.3397
  259MOL  Cl11731593   3.824   5.719   3.577  0.0928 -0.2945  0.0575
  259MOL  Cl11831594   3.879   5.957   3.735 -0.1988  0.3457 -0.3822
  259MOL   C11931595   4.063   5.832   3.588 -0.2180  0.1971  0.2514
  259MOL   H12031596   4.074   5.755   3.664  1.6415  0.3645  0.1637
  259MOL   H12131597   4.091   5.776   3.498 -0.6365  0.2230  0.1026
  259MOL   H12231598   4.136   5.912   3.596 -0.6789  0.7032 -0.4600
  260MOL     C131599   3.583   7.278   8.353  0.4016  0.5233 -0.3257
  260MOL    Cl231600   3.690   7.208   8.231 -0.1843  0.0019  0.1897
  260MOL    Cl331601   3.455   7.156   8.387  0.3934  0.1395  0.0534
  260MOL     C431602   3.656   7.319   8.479 -0.1367  0.3378  0.1327
  260MOL     H531603   3.679   7.232   8.540 -2.1301 -0.2734  0.0280
  260MOL     H631604   3.757   7.350   8.450 -0.0740  1.1756  1.1922
  260MOL     H731605   3.534   7.356   8.294 -1.2785 -0.2277  0.0327
  260MOL     C831606   3.587   7.423   8.568  0.1040  0.2414 -0.1184
  260MOL    Cl931607   3.437   7.352   8.638 -0.4726 -0.0181  0.0377
  260MOL   Cl1031608   3.542   7.555   8.460  0.3802  0.0002 -0.0520
  260MOL    C1131609   3.669   7.460   8.692  0.3284  0.4851 -0.2285
  260MOL    H1231610   3.616   7.529   8.757  1.5740  1.4080 -0.1881
  260MOL    H1331611   3.656   7.368   8.749 -1.1071  0.1843 -1.0130
  260MOL    C1431612   3.819   7.504   8.688  0.1934 -0.5244 -0.3752
  260MOL   Cl1531613   3.844   7.615   8.542 -0.0681  0.0031 -0.3899
  260MOL   Cl1631614   3.913   7.354   8.658  0.5378 -0.1719 -0.5898
  260MOL    C1731615   3.862   7.569   8.831  0.0068 -0.0222  0.3775
  260MOL    H1831616   3.783   7.636   8.866 -0.7632 -0.5430 -0.3257
  260MOL    H1931617   3.855   7.500   8.915  1.2739  0.1400  0.6170
  260MOL    C2031618   3.988   7.659   8.846 -0.1571  0.3530 -0.0761
  260MOL   Cl2131619   3.964   7.818   8.769  0.3358 -0.3349 -0.0736
  260MOL   Cl2231620   4.125   7.573   8.764  0.1404 -0.2042 -0.1720
  260MOL    C2331621   4.022   7.680   8.998  0.6422  0.5028 -1.0997
  260MOL    H2431622   4.049   7.579   9.027  1.0146  0.8696 -0.1345
  260MOL    H2531623   4.116   7.736   9.002  2.3662 -2.4457  1.0118
  260MOL    C2631624   3.938   7.737   9.115  0.1348  0.0119  0.3424
  260MOL   Cl2731625   4.036   7.729   0.073  0.1241 -0.2884 -0.2707
  260MOL   Cl2831626   3.795   7.639   9.134 -0.2378  0.4825 -0.2875
  260MOL    C2931627   3.884   7.881   9.082  0.4050 -0.0393 -0.1135
  260MOL    H3031628   3.966   7.941   9.043  1.5753 -2.9101 -2.1621
  260MOL    H3131629   3.824   7.872   8.992  0.0807  1.4984 -0.0650
  260MOL    C3231630   3.807   7.966   0.014  0.4927  0.0171 -0.0126
  260MOL   Cl3331631   3.917   8.029   0.141  0.2062 -0.1287 -0.0882
  260MOL   Cl3431632   3.668   7.885   0.088 -0.0252  0.6466 -0.1945
  260MOL    C3531633   3.751   8.096   9.130 -0.0829 -0.2668  0.1118
  260MOL    H3631634   3.688   8.148   0.022  0.1766 -1.1994  1.0252
  260MOL    H3731635   3.839   8.155   9.106  0.5111 -1.4460 -0.7106
  260MOL    C3831636   3.669   8.103   8.995 -0.0742  0.0369  0.6453
  260MOL   Cl3931637   3.534   7.993   8.996 -0.1992 -0.0195 -0.0810
  260MOL   Cl4031638   3.775   8.066   8.857  0.0484  0.0613 -0.1256
  260MOL    C4131639   3.598   8.241   8.970  0.0519 -0.9088  0.1519
  260MOL    H4231640   3.556   8.235   8.870  0.7652 -1.2732 -0.1256
  260MOL    H4331641   3.504   8.243   9.025  0.9309 -1.0523  1.6979
  260MOL    C4431642   3.666   8.372   8.995  0.1310 -0.0652 -0.9463
  260MOL   Cl4531643   3.816   8.382   8.903 -0.0748  0.1795  0.4014
  260MOL   Cl4631644   3.715   8.404   9.167 -0.3078  0.0444  0.0517
  260MOL    C4731645   3.571   8.490   8.952  0.6559 -0.6358 -0.1412
  260MOL    H4831646   3.628   8.583   8.958 -1.4711  0.5519  2.5371
  260MOL    H4931647   3.579   8.482   8.843  0.6558  0.5950 -0.2415
  260MOL    C5031648   3.418   8.500   8.991  0.2150 -0.0953  0.3962
  260MOL   Cl5131649   3.401   8.473   9.167 -0.2170 -0.0295  0.3338
  260MOL   Cl5231650   3.320   8.378   8.905 -0.3417  0.2184 -0.1882
  260MOL    C5331651   3.375   8.640   8.935  0.1043 -0.7689 -0.1706
  260MOL    H5431652   3.439   8.712   8.986 -0.9624  0.8239 -1.0352
  260MOL    H5531653   3.398   8.654   8.829 -1.2448  1.3261 -0.2175
  260MOL    C5631654   3.223   8.693   8.941 -0.0745 -0.2078 -0.5419
  260MOL   Cl5731655   3.113   8.606   8.824  0.3131 -0.5291 -0.4868
  260MOL   Cl5831656   3.242   8.858   8.879 -0.3460 -0.9215 -0.0717
  260MOL    C5931657   3.162   8.687   9.090 -0.4079 -0.3103  0.5401
  260MOL    H6031658   3.134   8.588   9.127 -2.1116 -0.3275 -0.7308
  260MOL    H6131659   3.243   8.728   9.150  2.4138  0.1279 -3.3495
  260MOL    C6231660   3.030   8.760   9.119 -0.2936 -0.3492  0.3116
  260MOL   Cl6331661   3.070   8.933   9.147 -0.0712 -0.3183  0.3378
  260MOL   Cl6431662   2.973   8.690   0.094 -0.2172  0.1829 -0.6928
  260MOL    C6531663   2.912   8.733   9.022 -0.6080  0.1241  0.0031
  260MOL    H6631664   2.956   8.765   8.928 -2.2741 -0.4361 -0.9788
  260MOL    H6731665   2.903   8.626   9.007  2.2573 -0.2785  0.8160
  260MOL    C6831666   2.772   8.803   9.030  0.0319 -0.9476  0.1638
  260MOL   Cl6931667   2.784   8.984   9.016  0.4820 -0.4673  0.1806
  260MOL   Cl7031668   2.696   8.769   0.009  0.5535  0.0767 -0.0584
  260MOL    C7131669   2.683   8.737   8.919 -0.1911  0.5235 -0.3309
  260MOL    H7231670   2.732   8.764   8.826 -0.0610 -0.3183 -0.5102
  260MOL    H7331671   2.715   8.633   8.913 -0.7743  0.3835 -1.0875
  260MOL    C7431672   2.527   8.745   8.912 -0.0248  0.3980  0.3340
  260MOL   Cl7531673   2.466   8.637   9.036  0.4891  0.2050 -0.0611
  260MOL   Cl7631674   2.474   8.679   8.757  0.3508 -0.3334 -0.3791
  260MOL    C7731675   2.467   8.883   8.936 -0.0448 -1.1941 -0.7244
  260MOL    H7831676   2.361   8.872   8.961 -0.4358  0.6185 -1.4902
  260MOL    H7931677   2.498   8.930   9.029  1.5406 -1.6324 -1.0255
  260MOL    C8031678   2.465   8.983   8.811  0.0199 -0.4691 -0.5950
  260MOL   Cl8131679   2.325   8.956   8.699 -0.1172 -0.3071 -0.4750
  260MOL   Cl8231680   2.611   8.963   8.708  0.3959 -0.1386  0.0654
  260MOL    C8331681   2.470   9.132   8.850 -0.0691  0.1620 -0.4590
  260MOL    H8431682   2.572   9.149   8.885 -0.3617  1.1496 -0.0552
  260MOL    H8531683   2.471   0.007   8.756  0.1735 -1.5450 -1.4803
  260MOL    C8631684   2.372   0.022   8.958 -1.4580 -0.6377  0.4170
  260MOL   Cl8731685   2.410   9.148   9.120 -0.2272 -0.1166 -0.0816
  260MOL   Cl8831686   2.196   9.167   8.921 -0.2823  0.0957  0.3156
  260MOL    C8931687   2.412   0.175   8.954 -0.1292 -0.2913 -0.1564
  260MOL    H9031688   2.507   0.188   9.006  0.6249 -0.8640 -1.3953
  260MOL    H9131689   2.429   0.191   8.848  0.6695 -1.7284 -0.2540
  260MOL    C9231690   2.322   0.290   9.005 -0.7239 -0.0684 -0.6192
  260MOL   Cl9331691   2.168   0.289   8.913  0.1275 -0.1138 -0.3823
  260MOL   Cl9431692   2.405   0.438   8.948  0.0694  0.2708  0.1431
  260MOL    C9531693   2.279   0.277   9.155  0.6700 -0.1389 -0.2323
  260MOL    H9631694   2.231   0.179   9.157 -0.2033  0.3069  0.7933
  260MOL    H9731695   2.364   0.275   0.043  0.7337 -0.4205 -0.3196
  260MOL    C9831696   2.197   0.390   0.045  0.2822 -0.7680  0.2751
  260MOL   Cl9931697   2.290   0.538   0.020  0.4068  0.0359  0.2705
  260MOL  Cl10031698   2.202   0.371   0.231  0.4475 -0.6067 -0.2401
  260MOL   C10131699   2.045   0.411   0.003  0.1001  0.3017  0.4387
  260MOL   H10231700   2.030   0.387   9.078  1.5891 -1.8001  0.6709
  260MOL   H10331701   1.985   0.332   0.050 -0.5933  1.1763  1.0276
  260MOL   C10431702   1.960   0.540   0.024 -0.6566 -0.1073 -0.2478
  260MOL  Cl10531703   1.790   0.503   9.167  0.3110 -0.2492  0.1131
  260MOL  Cl10631704   2.011   0.666   9.086 -0.0375  0.0668 -0.5363
  260MOL   C10731705   1.964   0.603   0.169  0.6217 -0.5657  0.6011
  260MOL   H10831706   1.933   0.521   0.232 -0.1213  1.6493  3.2103
  260MOL   H10931707   2.064   0.643   0.186  1.1074 -1.6913  0.4603
  260MOL   C11031708   1.869   0.716   0.224 -0.6793 -0.7882  0.0445
  260MOL  Cl11131709   1.702   0.660   0.245 -0.2603 -0.0964 -0.3889
  260MOL  Cl11231710   1.867   0.866   0.123  0.2956 -0.0682  0.4463
  260MOL   C11331711   1.911   0.769   0.368 -1.0649  0.4634  0.0070
  260MOL   H11431712   1.994   0.839   0.354 -1.5602  1.3643  1.5041
  260MOL   H11531713   1.826   0.835   0.379 -1.7606 -0.6164  1.2192
  260MOL   C11631714   1.927   0.667   0.487 -0.3696 -0.3586  0.7291
  260MOL  Cl11731715   1.967   0.774   0.617  0.5876 -0.1886 -0.1173
  260MOL  Cl11831716   2.075   0.568   0.473  0.2251  0.3273 -0.0824
  260MOL   C11931717   1.804   0.583   0.528 -0.2610  0.4378  0.5294
  260MOL   H12031718   1.841   0.516   0.606  1.4654 -1.6751 -2.0142
  260MOL   H12131719   1.717   0.641   0.559 -0.4019  0.6491 -0.2597
  260MOL   H12231720   1.769   0.511   0.454 -1.4971 -0.3208  1.8316
  261MOL     C131721   5.054   5.210   6.383  0.5325 -1.8092 -0.2513
  261MOL    Cl231722   4.891   5.282   6.412 -0.1895  0.3198  0.2522
  261MOL    Cl331723   5.183   5.334   6.432  0.0468  0.0099  0.2472
  261MOL     C431724   5.066   5.090   6.479  0.4285 -0.6842  0.6072
  261MOL     H531725   5.077   5.117   6.584  0.8701 -0.4168  0.4908
  261MOL     H631726   4.973   5.032   6.474 -1.0290  1.5567  1.1715
  261MOL     H731727   5.061   5.189   6.276 -0.4661  0.1734 -0.7204
  261MOL     C831728   5.178   4.984   6.444 -0.1128 -0.3395  0.2245
  261MOL    Cl931729   5.339   5.065   6.432  0.1423 -0.0593  0.0169
  261MOL   Cl1031730   5.132   4.905   6.294 -0.2427  0.0524  0.4763
  261MOL    C1131731   5.177   4.869   6.555  0.1804  0.3582 -0.9667
  261MOL    H1231732   5.175   4.928   6.646  1.5691 -1.0249 -0.0191
  261MOL    H1331733   5.081   4.817   6.548 -0.1313  0.3755  2.5580
  261MOL    C1431734   5.295   4.766   6.566 -0.8016  0.0828 -0.0574
  261MOL   Cl1531735   5.448   4.841   6.614  0.0322  0.3619 -0.2070
  261MOL   Cl1631736   5.313   4.677   6.415  0.0626 -0.5053  0.1234
  261MOL    C1731737   5.267   4.643   6.664 -0.2909 -0.4035 -0.2219
  261MOL    H1831738   5.161   4.620   6.648 -0.3676 -0.3002  0.1222
  261MOL    H1931739   5.323   4.558   6.627 -0.9091 -1.2315  0.6991
  261MOL    C2031740   5.277   4.654   6.821  0.4090 -0.0644  0.2425
  261MOL   Cl2131741   5.170   4.515   6.881 -0.0793 -0.0394  0.2293
  261MOL   Cl2231742   5.199   4.804   6.880 -0.5133  0.1958 -0.1955
  261MOL    C2331743   5.422   4.636   6.870  0.1193 -0.1345  0.6018
  261MOL    H2431744   5.479   4.566   6.809 -0.3812  1.2381 -1.5002
  261MOL    H2531745   5.470   4.733   6.881 -1.3220  0.9061 -1.8497
  261MOL    C2631746   5.444   4.599   7.023  0.6757  0.0777  0.0602
  261MOL   Cl2731747   5.409   4.423   7.045  0.0584  0.3331 -0.0950
  261MOL   Cl2831748   5.331   4.690   7.130 -0.0747 -0.2245 -0.3284
  261MOL    C2931749   5.586   4.628   7.080 -0.0576 -0.4241 -0.1190
  261MOL    H3031750   5.590   4.726   7.127  2.3426 -1.6161  2.3115
  261MOL    H3131751   5.593   4.565   7.169  0.7994 -1.0750 -0.6331
  261MOL    C3231752   5.718   4.594   7.002 -0.2878 -0.0367 -0.1217
  261MOL   Cl3331753   5.750   4.701   6.856  0.2366  0.1383  0.1277
  261MOL   Cl3431754   5.726   4.418   6.945  0.0373  0.3522 -0.1062
  261MOL    C3531755   5.848   4.628   7.088 -0.2427  0.2821  0.2207
  261MOL    H3631756   5.936   4.605   7.028  0.0295  1.0048  0.3428
  261MOL    H3731757   5.841   4.736   7.098  0.5067  0.4017 -0.4772
  261MOL    C3831758   5.866   4.571   7.237  0.6917  0.2195  0.5078
  261MOL   Cl3931759   5.800   4.407   7.252  0.1927 -0.0013  0.3857
  261MOL   Cl4031760   5.773   4.669   7.358 -0.3875 -0.1518  0.2214
  261MOL    C4131761   6.007   4.568   7.291  0.2687  0.0580 -0.1795
  261MOL    H4231762   5.996   4.549   7.398  1.4026 -1.3819 -0.2945
  261MOL    H4331763   6.055   4.473   7.266 -1.5877 -1.1270  0.6022
  261MOL    C4431764   6.119   4.675   7.274 -0.2754 -0.1585 -0.3325
  261MOL   Cl4531765   6.045   4.840   7.267  0.1538 -0.0951 -0.5224
  261MOL   Cl4631766   6.201   4.641   7.124  0.0005  0.1396  0.5584
  261MOL    C4731767   6.217   4.682   7.395 -0.5139  0.2184  0.1036
  261MOL    H4831768   6.285   4.766   7.386 -2.5267  1.8158 -0.6200
  261MOL    H4931769   6.167   4.715   7.486 -0.4985 -0.5775  0.4042
  261MOL    C5031770   6.317   4.569   7.440  0.0892 -0.1855 -0.1177
  261MOL   Cl5131771   6.232   4.413   7.455 -0.4903  0.0838  0.0348
  261MOL   Cl5231772   6.373   4.620   7.601  0.1305 -0.0445  0.2924
  261MOL    C5331773   6.442   4.540   7.354  0.1954 -0.0518  1.1360
  261MOL    H5431774   6.401   4.484   7.269  1.4726  1.3343 -0.4201
  261MOL    H5531775   6.478   4.633   7.310  2.2115 -0.7653  1.1970
  261MOL    C5631776   6.567   4.462   7.404  0.4768  0.2459  0.6433
  261MOL   Cl5731777   6.674   4.577   7.496 -0.1032 -0.0333 -0.1902
  261MOL   Cl5831778   6.661   4.423   7.253 -0.0253  0.1616  0.0433
  261MOL    C5931779   6.533   4.331   7.486  0.3776  0.5439  0.1943
  261MOL    H6031780   6.467   4.360   7.568  0.9567  0.7294  0.5980
  261MOL    H6131781   6.474   4.265   7.423 -1.6726 -0.3461  2.9521
  261MOL    C6231782   6.638   4.243   7.549  0.3429  0.3722  0.5351
  261MOL   Cl6331783   6.737   4.173   7.421  0.1973 -0.0658  0.1004
  261MOL   Cl6431784   6.550   4.105   7.622 -0.4119  0.1647 -0.2355
  261MOL    C6531785   6.723   4.315   7.660 -0.0911  0.0161  0.0593
  261MOL    H6631786   6.796   4.377   7.608  1.0029 -1.4220 -0.1637
  261MOL    H6731787   6.644   4.371   7.711  0.2654  1.5033 -0.9896
  261MOL    C6831788   6.803   4.235   7.769 -0.1274 -0.5111  0.6330
  261MOL   Cl6931789   6.687   4.184   7.902 -0.0012  0.6449 -0.1914
  261MOL   Cl7031790   6.917   4.351   7.834  0.2751 -0.0616  0.0203
  261MOL    C7131791   6.876   4.121   7.700 -1.0187 -0.4014 -0.2791
  261MOL    H7231792   6.804   4.043   7.675 -1.7743 -0.0820  0.8316
  261MOL    H7331793   6.919   4.150   7.605  1.0082 -1.2802  0.3380
  261MOL    C7431794   6.988   4.045   7.780 -0.3221 -0.0669 -0.2871
  261MOL   Cl7531795   7.137   4.140   7.777  0.1274 -0.0862 -0.4269
  261MOL   Cl7631796   7.020   3.903   7.671 -0.1123 -0.0820  0.7618
  261MOL    C7731797   6.971   4.003   7.926  0.1881  0.1819 -0.5712
  261MOL    H7831798   7.070   3.974   7.962 -0.6760  1.3431  3.0505
  261MOL    H7931799   6.946   4.092   7.985  1.0464  0.9252 -1.3176
  261MOL    C8031800   6.888   3.879   7.976  1.0763  0.2332  0.0581
  261MOL   Cl8131801   6.982   3.730   7.966  0.1945  0.0214  0.0697
  261MOL   Cl8231802   6.748   3.867   7.858  0.1831 -0.0076  0.2165
  261MOL    C8331803   6.823   3.890   8.119  0.5526  0.1955  0.1153
  261MOL    H8431804   6.801   3.995   8.141 -1.2151 -0.1559  0.0508
  261MOL    H8531805   6.726   3.844   8.102  1.0263  0.2315 -2.9294
  261MOL    C8631806   6.885   3.827   8.244 -0.7897 -1.0862 -0.2794
  261MOL   Cl8731807   7.060   3.869   8.248 -0.2924 -0.0339 -0.0675
  261MOL   Cl8831808   6.879   3.647   8.233  0.2200  0.0993  0.2058
  261MOL    C8931809   6.828   3.869   8.380 -0.1013 -0.4351  0.3678
  261MOL    H9031810   6.875   3.810   8.459 -2.5202 -1.7016  0.9146
  261MOL    H9131811   6.864   3.972   8.387 -0.8796 -0.0556 -1.0671
  261MOL    C9231812   6.676   3.877   8.421  0.6528  0.2675  0.5383
  261MOL   Cl9331813   6.596   3.993   8.311  0.0965 -0.2768 -0.1133
  261MOL   Cl9431814   6.681   3.944   8.579 -0.0327  0.2799  0.2022
  261MOL    C9531815   6.616   3.728   8.415 -0.3060 -0.3439 -0.3432
  261MOL    H9631816   6.617   3.697   8.310 -0.5165  0.6409 -0.6476
  261MOL    H9731817   6.682   3.664   8.474 -1.1556 -0.4397  0.5098
  261MOL    C9831818   6.468   3.694   8.462  0.0427 -0.3618 -0.4336
  261MOL   Cl9931819   6.363   3.775   8.343  0.2329 -0.5325  0.0834
  261MOL  Cl10031820   6.415   3.763   8.620 -0.2733 -0.1104  0.1956
  261MOL   C10131821   6.426   3.536   8.464 -0.1199  0.4532 -0.0759
  261MOL   H10231822   6.330   3.533   8.516 -0.5437  0.7126 -0.8345
  261MOL   H10331823   6.404   3.502   8.363 -4.1436  0.7010  0.6151
  261MOL   C10431824   6.526   3.434   8.527 -0.1959  0.1322 -0.3339
  261MOL  Cl10531825   6.597   3.500   8.681  0.1335  0.1590 -0.1917
  261MOL  Cl10631826   6.654   3.405   8.413  0.0905  0.1559  0.5746
  261MOL   C10731827   6.464   3.300   8.558  0.0863  0.1387  0.6664
  261MOL   H10831828   6.466   3.244   8.465 -1.1067  0.9993  0.1024
  261MOL   H10931829   6.545   3.257   8.616  1.4356  1.3508 -0.2973
  261MOL   C11031830   6.325   3.274   8.630  0.1193 -0.1128 -0.2390
  261MOL  Cl11131831   6.344   3.100   8.662  0.3278 -0.1708  0.3132
  261MOL  Cl11231832   6.205   3.303   8.494  0.3185  0.2181 -0.1527
  261MOL   C11331833   6.294   3.359   8.762 -0.0627 -0.0317  0.5869
  261MOL   H11431834   6.381   3.360   8.827  2.1838  1.3312 -2.2882
  261MOL   H11531835   6.297   3.464   8.733 -1.0257 -0.3365 -0.6649
  261MOL   C11631836   6.154   3.355   8.825  0.6725  0.3812  0.3517
  261MOL  Cl11731837   6.054   3.465   8.732 -0.3666  0.0031 -0.2881
  261MOL  Cl11831838   6.158   3.421   8.984 -0.1349 -0.0075  0.1088
  261MOL   C11931839   6.071   3.226   8.851  0.5981  0.3425 -0.0866
  261MOL   H12031840   6.041   3.174   8.759 -2.1748  2.5584 -0.5299
  261MOL   H12131841   6.132   3.153   8.904 -0.1675 -0.4227 -0.2310
  261MOL   H12231842   5.976   3.234   8.905  0.0940  0.6802 -1.0058
  262MOL     C131843   8.952   7.636   4.231 -0.4712  0.6022 -0.1011
  262MOL    Cl231844   8.828   7.610   4.352 -0.0954  0.1328  0.2160
  262MOL    Cl331845   9.089   7.517   4.246  0.1343 -0.3333  0.1689
  262MOL     C431846   8.899   7.624   4.087  0.5185 -0.6009 -0.0326
  262MOL     H531847   8.985   7.612   4.022 -0.5127 -1.2432 -1.3001
  262MOL     H631848   8.842   7.531   4.085  1.5949 -1.2369 -2.2332
  262MOL     H731849   8.994   7.735   4.246 -0.8742  0.5448  1.4560
  262MOL     C831850   8.823   7.750   4.021  0.3262  0.2035 -0.4282
  262MOL    Cl931851   8.946   7.881   4.026  0.0521  0.2631 -0.3556
  262MOL   Cl1031852   8.689   7.811   4.129  0.1976  0.0206  0.5524
  262MOL    C1131853   8.771   7.728   3.870 -0.5430 -0.5102 -0.1245
  262MOL    H1231854   8.704   7.809   3.838 -0.0301  0.2847  0.7927
  262MOL    H1331855   8.858   7.738   3.805  0.6807 -0.5579  1.4821
  262MOL    C1431856   8.695   7.592   3.839  0.6357 -0.0997 -0.3452
  262MOL   Cl1531857   8.574   7.558   3.961 -0.1198 -0.0443 -0.0670
  262MOL   Cl1631858   8.812   7.449   3.851 -0.2511 -0.2561 -0.2653
  262MOL    C1731859   8.618   7.579   3.699 -0.4347 -0.8738 -0.1685
  262MOL    H1831860   8.574   7.480   3.698 -1.8214 -0.2779  0.2185
  262MOL    H1931861   8.526   7.637   3.695 -0.6080 -1.1237  0.1887
  262MOL    C2031862   8.695   7.604   3.565  0.4959 -0.3437  0.3847
  262MOL   Cl2131863   8.849   7.531   3.562 -0.2808 -0.1289 -0.2293
  262MOL   Cl2231864   8.742   7.780   3.557  0.1665  0.0262  0.1100
  262MOL    C2331865   8.612   7.581   3.441  0.1260 -0.1646  0.9071
  262MOL    H2431866   8.521   7.633   3.472 -1.0776 -0.9538 -1.2601
  262MOL    H2531867   8.657   7.642   3.362 -0.2352 -0.5452  0.4117
  262MOL    C2631868   8.571   7.450   3.379  0.0605  0.2957 -0.0932
  262MOL   Cl2731869   8.534   7.327   3.505  0.0600 -0.1673  0.0048
  262MOL   Cl2831870   8.710   7.396   3.284 -0.0250  0.0931  0.0654
  262MOL    C2931871   8.448   7.462   3.286 -0.4029  0.1096  0.3103
  262MOL    H3031872   8.462   7.546   3.218  2.1865 -1.3454 -1.0318
  262MOL    H3131873   8.459   7.396   3.200  2.0977 -0.4456  1.0320
  262MOL    C3231874   8.298   7.442   3.332  0.0524 -0.1926 -0.1781
  262MOL   Cl3331875   8.212   7.533   3.204  0.1353  0.1844 -0.4385
  262MOL   Cl3431876   8.273   7.532   3.482 -0.2955 -0.2921 -0.1480
  262MOL    C3531877   8.250   7.288   3.348 -0.1852 -0.3727 -0.5065
  262MOL    H3631878   8.299   7.221   3.278  1.4608 -1.3133  1.4857
  262MOL    H3731879   8.289   7.261   3.446 -0.8110 -1.6658 -0.6014
  262MOL    C3831880   8.098   7.254   3.353  0.6159  0.0500 -0.1941
  262MOL   Cl3931881   8.000   7.354   3.466 -0.1392  0.3061 -0.1992
  262MOL   Cl4031882   8.086   7.095   3.427  0.0531 -0.1617  0.1783
  262MOL    C4131883   8.021   7.262   3.219  0.0840 -0.9354  0.1027
  262MOL    H4231884   7.918   7.234   3.244  0.0630 -0.5223  0.4651
  262MOL    H4331885   8.015   7.368   3.196  1.4469 -0.4104  2.0656
  262MOL    C4431886   8.071   7.194   3.090 -0.3159 -0.0187  0.1637
  262MOL   Cl4531887   8.090   7.021   3.120 -0.0659 -0.1368  0.1545
  262MOL   Cl4631888   8.232   7.262   3.034 -0.1084 -0.2122  0.0536
  262MOL    C4731889   7.970   7.194   2.973  0.2662  0.0555  0.1102
  262MOL    H4831890   8.016   7.159   2.881  1.8774  1.6281  0.2984
  262MOL    H4931891   7.892   7.119   2.988 -0.3142  0.4777 -0.7726
  262MOL    C5031892   7.900   7.326   2.937 -0.4270  0.2884 -0.3680
  262MOL   Cl5131893   8.011   7.465   2.957 -0.2429  0.1402 -0.1378
  262MOL   Cl5231894   7.766   7.350   3.054  0.1106 -0.2914  0.1808
  262MOL    C5331895   7.854   7.337   2.786  0.2312 -0.0872  0.1619
  262MOL    H5431896   7.802   7.433   2.780  0.1110 -0.0562  1.6858
  262MOL    H5531897   7.946   7.352   2.729 -0.0544  0.1143 -0.2453
  262MOL    C5631898   7.765   7.232   2.710 -0.1650 -0.4470 -0.1485
  262MOL   Cl5731899   7.604   7.230   2.787 -0.1187 -0.4645 -0.4520
  262MOL   Cl5831900   7.837   7.070   2.719  0.0401  0.4533 -0.0376
  262MOL    C5931901   7.743   7.259   2.551 -0.1002  0.0933 -0.1805
  262MOL    H6031902   7.695   7.171   2.510 -1.1114 -0.3614  1.8979
  262MOL    H6131903   7.673   7.342   2.548  1.8983  1.8022 -0.7534
  262MOL    C6231904   7.862   7.298   2.452  0.0885 -0.4084  0.3371
  262MOL   Cl6331905   7.880   7.468   2.475 -0.2034  0.1163  0.0457
  262MOL   Cl6431906   7.781   7.270   2.289 -0.4064 -0.1911 -0.2101
  262MOL    C6531907   7.992   7.215   2.470 -0.3892 -0.2383 -0.3483
  262MOL    H6631908   8.026   7.233   2.572  0.2542 -0.4373 -0.5250
  262MOL    H6731909   7.974   7.109   2.456  0.0796 -0.2709 -0.7224
  262MOL    C6831910   8.115   7.232   2.374  0.2804 -0.6688 -0.2198
  262MOL   Cl6931911   8.177   7.397   2.392 -0.3496  0.1468 -0.3551
  262MOL   Cl7031912   8.080   7.185   2.200  0.0764  0.2943  0.1754
  262MOL    C7131913   8.234   7.146   2.429  0.0126  0.1707  0.0970
  262MOL    H7231914   8.318   7.159   2.361  1.2595 -3.1850  0.9007
  262MOL    H7331915   8.277   7.185   2.521  3.6319 -0.5910 -1.2020
  262MOL    C7431916   8.219   6.994   2.455  0.0265 -0.3195 -0.0701
  262MOL   Cl7531917   8.093   6.911   2.358  0.1021  0.2127 -0.6064
  262MOL   Cl7631918   8.175   6.980   2.633 -0.1278 -0.1382 -0.0647
  262MOL    C7731919   8.353   6.923   2.443  0.3980 -0.6285 -0.3209
  262MOL    H7831920   8.424   6.988   2.493 -1.2099  0.2312  0.8752
  262MOL    H7931921   8.341   6.835   2.506 -2.3233  0.6978  1.1247
  262MOL    C8031922   8.411   6.872   2.307 -0.3675  0.2259  0.1308
  262MOL   Cl8131923   8.393   7.002   2.180  0.2829  0.1008  0.0479
  262MOL   Cl8231924   8.315   6.730   2.255 -0.3141  0.1038 -0.0910
  262MOL    C8331925   8.562   6.837   2.329 -0.0411 -0.8394  0.4395
  262MOL    H8431926   8.615   6.932   2.331 -1.9712  0.2663  0.3446
  262MOL    H8531927   8.581   6.779   2.420  1.4800 -0.1877  0.5413
  262MOL    C8631928   8.646   6.752   2.222 -0.0084 -0.1693 -0.3944
  262MOL   Cl8731929   8.649   6.833   2.053  0.1790 -0.4435 -0.2465
  262MOL   Cl8831930   8.596   6.584   2.197  0.4280  0.1174  0.0784
  262MOL    C8931931   8.797   6.749   2.259  0.0315  0.5766 -0.2349
  262MOL    H9031932   8.843   6.683   2.186  0.9284  1.5973 -0.6183
  262MOL    H9131933   8.839   6.848   2.239 -0.6261  0.9838  0.3759
  262MOL    C9231934   8.852   6.714   2.404  0.1463  0.1124  1.0272
  262MOL   Cl9331935   8.771   6.565   2.468  0.2599  0.2390 -0.1428
  262MOL   Cl9431936   8.832   6.846   2.511  0.5634 -0.1616  0.3096
  262MOL    C9531937   9.006   6.683   2.409  0.1751 -0.4601 -0.4852
  262MOL    H9631938   9.013   6.642   2.510  2.6580  1.1656  0.0496
  262MOL    H9731939   9.012   6.593   2.348  1.2374 -0.4058 -0.4759
  262MOL    C9831940   9.126   6.785   2.386  0.4426 -0.1525  0.5068
  262MOL   Cl9931941   9.156   6.890   2.529  0.3775 -0.1037  0.2591
  262MOL  Cl10031942   9.089   6.879   2.236  0.1262  0.1642 -0.7936
  262MOL   C10131943   0.075   6.709   2.348 -0.0648  0.5581  0.4521
  262MOL   H10231944   0.095   6.626   2.417  2.2051  0.5876 -0.1148
  262MOL   H10331945   0.046   6.663   2.253 -1.9922  1.5960  0.5209
  262MOL   C10431946   0.213   6.778   2.322 -0.2680 -0.2092  0.1634
  262MOL  Cl10531947   0.281   6.859   2.471 -0.0421 -0.3151  0.4403
  262MOL  Cl10631948   0.204   6.889   2.186  0.1933 -0.0828 -0.0614
  262MOL   C10731949   0.327   6.675   2.297 -0.2590  0.2997 -0.2047
  262MOL   H10831950   0.412   6.731   2.257  0.2862 -0.3064  0.0912
  262MOL   H10931951   0.348   6.622   2.390  0.8881 -1.3900 -1.3838
  262MOL   C11031952   0.308   6.554   2.200  0.2595  0.8371  0.0118
  262MOL  Cl11131953   0.244   6.592   2.033 -0.0032 -0.0326 -0.0720
  262MOL  Cl11231954   0.200   6.431   2.266 -0.0352  0.2664 -0.1426
  262MOL   C11331955   0.443   6.476   2.175 -0.2188 -0.6561 -0.8832
  262MOL   H11431956   0.415   6.378   2.137  1.7383 -1.4149 -0.4095
  262MOL   H11531957   0.499   6.524   2.094  1.9615 -1.7261 -0.0255
  262MOL   C11631958   0.541   6.444   2.290 -0.1061 -0.6867 -0.2515
  262MOL  Cl11731959   0.469   6.370   2.433 -0.0054  0.2278 -0.3638
  262MOL  Cl11831960   0.630   6.595   2.348  0.5733  0.0682 -0.0834
  262MOL   C11931961   0.652   6.355   2.243 -0.6231  0.1082 -0.5894
  262MOL   H12031962   0.720   6.411   2.179  0.4280  1.2535  1.4599
  262MOL   H12131963   0.704   6.315   2.330  0.3830 -0.3213 -1.3708
  262MOL   H12231964   0.613   6.271   2.186 -1.1342 -1.8347  2.5161
  263MOL     C131965   1.818   5.094   4.664  0.1205 -0.4735  0.9185
  263MOL    Cl231966   1.788   4.999   4.814 -0.3207  0.1796 -0.0602
  263MOL    Cl331967   1.732   5.015   4.532  0.4494 -0.3226 -0.1249
  263MOL     C431968   1.774   5.241   4.693 -0.2401 -0.3888  0.6314
  263MOL     H531969   1.665   5.244   4.696 -0.1894  1.9427  1.9617
  263MOL     H631970   1.806   5.273   4.793  0.1821  1.3396 -0.0300
  263MOL     H731971   1.922   5.076   4.637  0.6554  3.1759  0.2279
  263MOL     C831972   1.791   5.356   4.586 -0.6074 -0.0587 -0.2910
  263MOL    Cl931973   1.692   5.319   4.437  0.3111  0.2044 -0.1743
  263MOL   Cl1031974   1.961   5.354   4.537  0.2338 -0.1224 -0.1643
  263MOL    C1131975   1.777   5.507   4.638  0.1974 -0.1952 -0.0952
  263MOL    H1231976   1.863   5.526   4.702  1.4345 -1.5100 -1.3247
  263MOL    H1331977   1.793   5.569   4.550 -1.6256 -0.3686 -0.5695
  263MOL    C1431978   1.649   5.564   4.703  0.4843  0.3808 -0.6898
  263MOL   Cl1531979   1.665   5.742   4.712  0.0979 -0.1214  0.0412
  263MOL   Cl1631980   1.654   5.513   4.878  0.4216 -0.0330 -0.4786
  263MOL    C1731981   1.510   5.521   4.636  0.1337 -0.6878 -0.0130
  263MOL    H1831982   1.529   5.551   4.533 -0.3801  0.1240  0.1204
  263MOL    H1931983   1.517   5.414   4.651 -1.2411 -0.6222  1.2640
  263MOL    C2031984   1.372   5.578   4.661 -0.3532 -0.9248 -0.4370
  263MOL   Cl2131985   1.248   5.466   4.612 -0.3848  0.0045  0.2963
  263MOL   Cl2231986   1.361   5.731   4.565  0.2857  0.3519 -0.3244
  263MOL    C2331987   1.352   5.609   4.813  1.2271  0.3564 -0.1309
  263MOL    H2431988   1.394   5.519   4.859  1.3708  1.8223  2.7111
  263MOL    H2531989   1.416   5.693   4.839  1.8137 -0.2297  0.3187
  263MOL    C2631990   1.208   5.629   4.877  0.2396 -0.1375 -0.4550
  263MOL   Cl2731991   1.093   5.491   4.872  0.0171 -0.1633  0.2418
  263MOL   Cl2831992   1.122   5.762   4.794  0.1156 -0.3202  0.2652
  263MOL    C2931993   1.227   5.668   5.030 -0.6325 -0.2841  0.1525
  263MOL    H3031994   1.302   5.747   5.024 -0.1192 -0.8676 -1.5228
  263MOL    H3131995   1.128   5.700   5.064 -0.1075  0.2718  1.1494
  263MOL    C3231996   1.272   5.572   5.145 -0.0002  0.3369  0.0407
  263MOL   Cl3331997   1.316   5.675   5.284  0.1870  0.3334 -0.2001
  263MOL   Cl3431998   1.424   5.479   5.105 -0.0616  0.5385  0.0283
  263MOL    C3531999   1.158   5.475   5.197 -0.5282  0.0676 -0.7932
  263MOL    H3632000   1.076   5.533   5.239  0.0640  0.3650 -0.0447
  263MOL    H3732001   1.115   5.429   5.107  1.7122 -0.3731 -1.6756
  263MOL    C3832002   1.186   5.353   5.285  0.6610  0.5850 -0.3072
  263MOL   Cl3932003   1.263   5.225   5.186 -0.0414  0.1934 -0.1941
  263MOL   Cl4032004   1.031   5.289   5.330 -0.0069 -0.0516 -0.2922
  263MOL    C4132005   1.267   5.404   5.416  0.2199 -0.2224  0.0065
  263MOL    H4232006   1.366   5.433   5.379 -0.9013  0.1395 -2.8032
  263MOL    H4332007   1.231   5.503   5.443  2.3265 -0.0673  2.4420
  263MOL    C4432008   1.301   5.315   5.542  0.2487  0.4122  0.2433
  263MOL   Cl4532009   1.454   5.382   5.613  0.4410  0.1856 -0.4194
  263MOL   Cl4632010   1.338   5.150   5.498  0.0873 -0.1069 -0.1123
  263MOL    C4732011   1.192   5.305   5.650 -0.5386 -0.0048 -0.4452
  263MOL    H4832012   1.124   5.221   5.633 -1.3734  0.5031  0.2808
  263MOL    H4932013   1.248   5.264   5.734 -0.4062  0.6109 -0.2313
  263MOL    C5032014   1.108   5.425   5.709  0.2237  0.1426  0.7712
  263MOL   Cl5132015   1.002   5.501   5.582 -0.0732 -0.0141  0.1243
  263MOL   Cl5232016   1.221   5.550   5.769  0.1917 -0.3148  0.5861
  263MOL    C5332017   1.025   5.362   5.824 -0.8347 -0.2338 -0.5808
  263MOL    H5432018   0.991   5.261   5.804 -1.8636  0.1078 -0.6210
  263MOL    H5532019   1.101   5.344   5.900 -1.4100  4.4265  1.2793
  263MOL    C5632020   0.908   5.437   5.898 -1.1539  0.0267  0.2421
  263MOL   Cl5732021   0.885   5.329   6.039  0.2685  0.5551 -0.3284
  263MOL   Cl5832022   0.773   5.415   5.790  0.1462  0.0990 -0.3845
  263MOL    C5932023   0.908   5.592   5.924  0.5661 -0.1821  0.5486
  263MOL    H6032024   1.008   5.633   5.933  0.1002  1.2112 -0.3690
  263MOL    H6132025   0.874   5.641   5.832 -0.6666 -2.2411 -0.1601
  263MOL    C6232026   0.831   5.661   6.037  0.2243  0.3544 -0.3582
  263MOL   Cl6332027   0.822   5.831   5.990  0.2039  0.4767 -0.2475
  263MOL   Cl6432028   0.919   5.634   6.198  0.3136  0.3580 -0.1369
  263MOL    C6532029   0.682   5.605   6.035  0.2685 -0.6912 -1.3834
  263MOL    H6632030   0.661   5.629   5.931 -0.8922 -2.0281 -1.4770
  263MOL    H6732031   0.677   5.498   6.056 -2.5871  0.2162  3.1934
  263MOL    C6832032   0.576   5.667   6.127 -0.6912  0.1739 -0.2920
  263MOL   Cl6932033   0.440   5.545   6.128 -0.2334 -0.1602 -0.4703
  263MOL   Cl7032034   0.505   5.810   6.050 -0.2542  0.3107  0.2686
  263MOL    C7132035   0.616   5.698   6.269  0.0493  0.2955 -0.2564
  263MOL    H7232036   0.686   5.624   6.308 -0.3113  0.6964  1.1926
  263MOL    H7332037   0.687   5.780   6.267  2.9069 -1.8614  3.9684
  263MOL    C7432038   0.518   5.713   6.394  0.0463  0.3093 -0.1056
  263MOL   Cl7532039   0.483   5.542   6.445  0.2368  0.3086 -0.0076
  263MOL   Cl7632040   0.361   5.791   6.344 -0.1895 -0.0644  0.4486
  263MOL    C7732041   0.583   5.784   6.514  0.1989  0.2085  0.0761
  263MOL    H7832042   0.652   5.715   6.562 -0.6046  0.4191  1.5528
  263MOL    H7932043   0.650   5.861   6.476  0.7711  0.0548  0.7578
  263MOL    C8032044   0.508   5.848   6.635 -0.3688 -0.2457  0.2054
  263MOL   Cl8132045   0.611   5.843   6.777 -0.0985  0.3391  0.2583
  263MOL   Cl8232046   0.359   5.751   6.672 -0.1791  0.0822  0.3491
  263MOL    C8332047   0.455   5.993   6.625 -0.0022 -0.9643  0.1212
  263MOL    H8432048   0.372   5.984   6.554 -0.8724 -2.4723  1.2835
  263MOL    H8532049   0.413   6.028   6.719  0.9380 -1.0462  0.5714
  263MOL    C8632050   0.531   6.120   6.573  0.4059 -0.4056  0.0093
  263MOL   Cl8732051   0.424   6.254   6.622 -0.3467 -0.1564  0.0574
  263MOL   Cl8832052   0.535   6.116   6.398 -0.3123  0.0708  0.0743
  263MOL    C8932053   0.671   6.143   6.634  0.3442  0.6125  0.0686
  263MOL    H9032054   0.655   6.121   6.740 -3.4033 -2.5023 -1.0223
  263MOL    H9132055   0.730   6.054   6.613 -1.6823 -1.0364  1.0833
  263MOL    C9232056   0.748   6.278   6.625  0.0847  0.0540 -0.2049
  263MOL   Cl9332057   0.915   6.241   6.677 -0.1411 -0.1365  0.1564
  263MOL   Cl9432058   0.692   6.387   6.756 -0.0772  0.0005 -0.2246
  263MOL    C9532059   0.750   6.351   6.486  1.0415 -0.4491  0.3274
  263MOL    H9632060   0.799   6.283   6.417  0.7810  1.0636 -1.3797
  263MOL    H9732061   0.642   6.354   6.469  0.9805 -2.2154  0.3555
  263MOL    C9832062   0.803   6.499   6.453  0.7521  0.1466  0.0197
  263MOL   Cl9932063   0.699   6.622   6.535  0.1099 -0.0838 -0.2813
  263MOL  Cl10032064   0.775   6.522   6.276 -0.1709  0.0121  0.3565
  263MOL   C10132065   0.952   6.528   6.483 -0.1093  0.5626 -0.5997
  263MOL   H10232066   0.951   6.637   6.474  0.1461  0.4761 -1.7753
  263MOL   H10332067   0.972   6.498   6.586  0.2803 -0.0397 -0.8480
  263MOL   C10432068   1.064   6.468   6.389 -0.6507 -0.6873 -0.1972
  263MOL  Cl10532069   1.084   6.565   6.241 -0.0998  0.6098  0.1590
  263MOL  Cl10632070   1.050   6.296   6.348 -0.2590 -0.2062  0.1395
  263MOL   C10732071   1.209   6.471   6.464 -0.7167  0.7922 -0.4471
  263MOL   H10832072   1.214   6.399   6.546 -1.1951  2.0224  0.6831
  263MOL   H10932073   1.281   6.434   6.392 -1.4118 -0.5351 -0.4749
  263MOL   C11032074   1.283   6.605   6.512  0.9410  0.5290  0.5044
  263MOL  Cl11132075   1.443   6.556   6.568  0.3604 -0.3328  0.3352
  263MOL  Cl11232076   1.186   6.679   6.642 -0.5523 -0.3370 -0.1181
  263MOL   C11332077   1.301   6.707   6.397  0.4070 -0.0633 -0.8501
  263MOL   H11432078   1.323   6.650   6.306  0.1633  1.0589 -1.6205
  263MOL   H11532079   1.208   6.762   6.388 -0.1949 -0.5142  2.1405
  263MOL   C11632080   1.399   6.831   6.415 -0.2086  0.3806  0.4752
  263MOL  Cl11732081   1.360   6.943   6.283  0.0244 -0.5446  0.3971
  263MOL  Cl11832082   1.571   6.790   6.386  0.0157 -0.1173  0.3216
  263MOL   C11932083   1.393   6.902   6.547 -0.5211 -0.5750  0.4724
  263MOL   H12032084   1.440   6.846   6.628  2.6086 -0.9000 -1.5052
  263MOL   H12132085   1.449   6.996   6.546 -4.6928  2.0747  0.6496
  263MOL   H12232086   1.290   6.935   6.567 -1.0421 -1.1555 -1.2160
  264MOL     C132087   2.706   5.664   3.902  0.4206  0.1860  0.4659
  264MOL    Cl232088   2.775   5.506   3.935 -0.5731 -0.2820 -0.3727
  264MOL    Cl332089   2.548   5.650   3.827  0.0402 -0.5516 -0.0352
  264MOL     C432090   2.697   5.735   4.042  0.4040 -0.4312  0.0484
  264MOL     H532091   2.607   5.698   4.092 -0.2715 -0.0840 -0.8962
  264MOL     H632092   2.787   5.710   4.098  1.9274  3.6684 -0.3420
  264MOL     H732093   2.778   5.709   3.835  1.9181 -0.5253  1.5786
  264MOL     C832094   2.704   5.890   4.040  0.4271 -0.1084 -0.6606
  264MOL    Cl932095   2.541   5.945   3.992  0.4424  0.0137 -0.3593
  264MOL   Cl1032096   2.815   5.956   3.910  0.0362 -0.2914 -0.1785
  264MOL    C1132097   2.744   5.942   4.175  0.8116  0.2063  0.2810
  264MOL    H1232098   2.659   5.933   4.243  1.0141 -0.5563  0.4377
  264MOL    H1332099   2.812   5.871   4.222  0.3491  0.0639  0.7479
  264MOL    C1432100   2.798   6.089   4.202 -0.1803  1.1306  0.1256
  264MOL   Cl1532101   2.712   6.212   4.108 -0.1602 -0.1567  0.2233
  264MOL   Cl1632102   2.968   6.091   4.141 -0.1887  0.3626 -0.1067
  264MOL    C1732103   2.796   6.145   4.355 -0.7413 -0.2741 -0.1544
  264MOL    H1832104   2.842   6.244   4.366 -1.9669  0.2874 -0.0372
  264MOL    H1932105   2.688   6.149   4.371 -0.7719 -2.1928  0.1944
  264MOL    C2032106   2.855   6.066   4.478 -0.4026 -0.0011 -1.0167
  264MOL   Cl2132107   2.775   5.906   4.491 -0.2405  0.0242 -0.1534
  264MOL   Cl2232108   2.788   6.154   4.624 -0.0412 -0.1408  0.4948
  264MOL    C2332109   3.011   6.049   4.488  0.0670 -0.4891 -0.0884
  264MOL    H2432110   3.046   6.019   4.390 -2.0869  1.1934 -1.4152
  264MOL    H2532111   3.059   6.147   4.498  2.2296 -1.3220 -1.8851
  264MOL    C2632112   3.083   5.952   4.591  0.0189 -0.3430  0.0713
  264MOL   Cl2732113   3.253   5.992   4.567 -0.0689  0.1568  0.0786
  264MOL   Cl2832114   3.079   5.785   4.530  0.1708 -0.1428 -0.0733
  264MOL    C2932115   3.034   5.956   4.739 -0.0813  0.4264  0.3044
  264MOL    H3032116   2.926   5.947   4.729 -0.1256  0.6954  0.5460
  264MOL    H3132117   3.069   5.859   4.774  1.8513 -0.5737 -4.0477
  264MOL    C3232118   3.070   6.060   4.846  0.1109  0.3099  0.4500
  264MOL   Cl3332119   3.060   6.229   4.781 -0.0624  0.0459 -0.0967
  264MOL   Cl3432120   3.246   6.038   4.881  0.0830  0.2186  0.2312
  264MOL    C3532121   3.001   6.035   4.981  0.3172 -0.4606  0.5717
  264MOL    H3632122   3.044   5.942   5.019  2.1537  0.8220  1.6992
  264MOL    H3732123   3.056   6.108   5.040  0.6903 -0.5836  0.3699
  264MOL    C3832124   2.849   6.048   5.001 -1.0401  0.0093  0.6614
  264MOL   Cl3932125   2.749   5.938   4.904 -0.5205  0.1955  0.2274
  264MOL   Cl4032126   2.800   6.220   4.973  0.1131  0.1106 -0.0625
  264MOL    C4132127   2.810   6.007   5.146  0.0819  0.3480  0.6078
  264MOL    H4232128   2.706   6.037   5.159  0.0979  1.0787 -0.8864
  264MOL    H4332129   2.822   5.899   5.147  3.6239  0.6651 -0.7537
  264MOL    C4432130   2.894   6.042   5.271  0.3971 -0.0983  0.4541
  264MOL   Cl4532131   2.940   6.213   5.280 -0.3824 -0.5217  0.0533
  264MOL   Cl4632132   3.043   5.948   5.275  0.2117 -0.5243 -0.4508
  264MOL    C4732133   2.829   6.013   5.415  1.0318  0.4282  0.3740
  264MOL    H4832134   2.841   5.907   5.435  0.5262  0.3081  0.0433
  264MOL    H4932135   2.899   6.060   5.484  2.6234  0.1678 -1.0468
  264MOL    C5032136   2.677   6.043   5.438 -0.0126  0.6662  0.2850
  264MOL   Cl5132137   2.574   5.906   5.361  0.0903 -0.2412 -0.0957
  264MOL   Cl5232138   2.631   6.194   5.360  0.6398 -0.0576 -0.0519
  264MOL    C5332139   2.664   6.037   5.596  0.2104 -0.0784  0.3860
  264MOL    H5432140   2.715   5.948   5.633  0.5050 -0.0422  0.0745
  264MOL    H5532141   2.714   6.126   5.634 -1.5914 -0.1753  3.1455
  264MOL    C5632142   2.529   6.036   5.669 -0.4317  0.0651 -0.4632
  264MOL   Cl5732143   2.562   6.059   5.842  0.3035 -0.2293  0.3849
  264MOL   Cl5832144   2.463   5.861   5.673  0.0355 -0.3012  0.1208
  264MOL    C5932145   2.424   6.136   5.615  0.8031 -0.0753 -0.0452
  264MOL    H6032146   2.473   6.232   5.630  2.3506 -0.3850 -2.7871
  264MOL    H6132147   2.427   6.121   5.507 -1.4778 -1.3462  0.0411
  264MOL    C6232148   2.276   6.148   5.662  0.5235 -0.2065  0.3815
  264MOL   Cl6332149   2.183   6.001   5.616  0.0395 -0.4181 -0.2631
  264MOL   Cl6432150   2.208   6.281   5.563  0.3275  0.7287 -0.2132
  264MOL    C6532151   2.268   6.194   5.813 -0.6661 -0.2584 -0.0391
  264MOL    H6632152   2.307   6.118   5.881 -1.7234  0.9004  1.9111
  264MOL    H6732153   2.339   6.274   5.833 -1.4658  0.6046 -0.6255
  264MOL    C6832154   2.140   6.240   5.889 -0.2824 -0.5511  0.3569
  264MOL   Cl6932155   2.107   6.415   5.847  0.1190  0.0076  0.1801
  264MOL   Cl7032156   2.164   6.244   6.068 -0.1269 -0.0153 -0.1117
  264MOL    C7132157   2.018   6.157   5.854 -0.2031 -0.5482  0.0217
  264MOL    H7232158   2.014   6.161   5.745 -3.8253  1.3358  0.1437
  264MOL    H7332159   2.033   6.050   5.868  0.9242 -0.4597 -0.4291
  264MOL    C7432160   1.877   6.179   5.909  0.3226 -0.1925  0.0249
  264MOL   Cl7532161   1.789   6.049   5.811  0.2008  0.2305 -0.0285
  264MOL   Cl7632162   1.811   6.340   5.849 -0.0299 -0.2336  0.0237
  264MOL    C7732163   1.856   6.154   6.063 -0.5207  0.1368 -0.8331
  264MOL    H7832164   1.877   6.050   6.087 -2.3932 -0.4482 -1.6123
  264MOL    H7932165   1.922   6.221   6.118 -0.7703  0.6117 -1.1053
  264MOL    C8032166   1.720   6.190   6.134  0.1249 -0.6845 -0.8650
  264MOL   Cl8132167   1.705   6.369   6.144 -0.5834  0.1736  0.0555
  264MOL   Cl8232168   1.720   6.137   6.305  0.0213 -0.5365 -0.3394
  264MOL    C8332169   1.592   6.118   6.068 -0.3630 -0.1478 -0.2744
  264MOL    H8432170   1.608   6.134   5.961  2.3246  0.6203  0.2048
  264MOL    H8532171   1.592   6.012   6.092  1.0470 -0.4047 -1.3418
  264MOL    C8632172   1.442   6.158   6.079  0.3887  0.6077  0.1360
  264MOL   Cl8732173   1.404   6.284   5.963 -0.3732  0.5301  0.7324
  264MOL   Cl8832174   1.403   6.218   6.240 -0.3036  0.2253  0.0312
  264MOL    C8932175   1.341   6.039   6.063 -0.6258 -0.1118 -0.7230
  264MOL    H9032176   1.364   5.977   6.150 -3.1005 -0.4847 -0.3102
  264MOL    H9132177   1.246   6.090   6.075 -0.5167  0.3317 -1.7234
  264MOL    C9232178   1.339   5.946   5.937 -1.2257  0.7254  0.0283
  264MOL   Cl9332179   1.211   5.828   5.979 -0.3551 -0.0678 -0.2428
  264MOL   Cl9432180   1.495   5.850   5.926 -0.1558  0.5894 -0.1861
  264MOL    C9532181   1.300   6.027   5.803 -0.1932 -0.2836  0.0632
  264MOL    H9632182   1.220   6.098   5.826  1.3146  1.4543  0.0520
  264MOL    H9732183   1.383   6.095   5.782 -0.6420  0.5682  0.9703
  264MOL    C9832184   1.259   5.949   5.672 -1.1208 -0.1360 -0.5056
  264MOL   Cl9932185   1.100   5.882   5.695 -0.0973  0.2408  0.2559
  264MOL  Cl10032186   1.375   5.818   5.636  0.0385 -0.3185  0.1748
  264MOL   C10132187   1.245   6.024   5.536  0.5165 -0.1726 -0.4948
  264MOL   H10232188   1.211   5.960   5.455  0.2003 -0.1072 -0.4120
  264MOL   H10332189   1.160   6.090   5.550  1.5181  1.2607 -1.0669
  264MOL   C10432190   1.352   6.123   5.483 -0.1393  0.2234 -0.9893
  264MOL  Cl10532191   1.507   6.045   5.473 -0.2241  0.0006 -0.2172
  264MOL  Cl10632192   1.355   6.270   5.590 -0.2125  0.1288  0.4268
  264MOL   C10732193   1.306   6.158   5.341  0.1199  0.1743  0.0715
  264MOL   H10832194   1.299   6.070   5.277 -1.4202  0.4946 -0.2246
  264MOL   H10932195   1.200   6.181   5.345 -0.0017 -0.5333  1.1614
  264MOL   C11032196   1.376   6.262   5.245 -0.0939  0.1430 -0.0689
  264MOL  Cl11132197   1.548   6.236   5.215  0.2979 -0.1607 -0.2354
  264MOL  Cl11232198   1.378   6.422   5.319  0.2234 -0.6444 -0.0151
  264MOL   C11332199   1.293   6.282   5.120  0.1121  0.1226 -0.0018
  264MOL   H11432200   1.229   6.369   5.135 -1.9270 -0.8650 -2.6261
  264MOL   H11532201   1.362   6.338   5.057 -1.1417  1.6294 -0.0621
  264MOL   C11632202   1.236   6.165   5.030 -0.1859  0.3325  0.1859
  264MOL  Cl11732203   1.090   6.085   5.107 -0.3726 -0.1384  0.0827
  264MOL  Cl11832204   1.362   6.042   5.019  0.1867 -0.0466 -0.2641
  264MOL   C11932205   1.190   6.209   4.890 -0.7300  0.5523  0.3984
  264MOL   H12032206   1.101   6.271   4.895 -0.4131  1.3085 -2.5311
  264MOL   H12132207   1.268   6.265   4.838 -0.5765 -0.2808 -0.2729
  264MOL   H12232208   1.164   6.123   4.829 -1.4228  1.1032 -0.0811
  265MOL     C132209   5.823   0.521   6.825 -0.4882  0.0679  0.0819
  265MOL    Cl232210   5.696   0.580   6.947  0.0875 -0.0222  0.4305
  265MOL    Cl332211   5.923   0.661   6.787  0.1410 -0.2544  0.0836
  265MOL     C432212   5.900   0.407   6.890  0.1434  0.6390 -0.3156
  265MOL     H532213   5.977   0.451   6.954  0.2324  0.7344 -0.4876
  265MOL     H632214   5.832   0.359   6.959  0.5762  2.6720  1.5766
  265MOL     H732215   5.769   0.487   6.737 -0.6152  1.1173 -0.2545
  265MOL     C832216   5.971   0.302   6.794  0.1729 -0.2032 -0.1828
  265MOL    Cl932217   6.075   0.384   6.674  0.5793 -0.0606 -0.2016
  265MOL   Cl1032218   5.849   0.221   6.692 -0.3044  0.2763  0.1568
  265MOL    C1132219   6.056   0.199   6.870 -0.2234  0.5584 -0.4302
  265MOL    H1232220   6.092   0.127   6.797  0.8325  0.4813  0.1656
  265MOL    H1332221   6.146   0.251   6.900 -0.2309  1.1042 -1.3178
  265MOL    C1432222   5.994   0.115   6.993 -0.4203 -0.2686  0.2047
  265MOL   Cl1532223   5.999   0.220   7.141 -0.1310 -0.4749  0.1468
  265MOL   Cl1632224   6.112   9.165   7.023  0.4644 -0.2536 -0.1755
  265MOL    C1732225   5.856   0.051   6.968 -0.2611  0.1015 -0.3783
  265MOL    H1832226   5.786   0.119   6.919 -0.5029 -0.2029 -0.4590
  265MOL    H1932227   5.869   9.155   6.891  2.7282  1.6844 -1.5247
  265MOL    C2032228   5.774   9.164   7.080 -0.0495  0.2566  0.3947
  265MOL   Cl2132229   5.868   9.029   7.150 -0.1172  0.0644  0.2848
  265MOL   Cl2232230   5.643   9.085   6.992  0.1656  0.0878 -0.2226
  265MOL    C2332231   5.731   0.083   7.193  0.6580  0.2955  0.2430
  265MOL    H2432232   5.815   0.079   7.262  0.9682  0.9999 -0.0898
  265MOL    H2532233   5.723   0.179   7.143 -1.0178  0.1058  0.1052
  265MOL    C2632234   5.610   0.054   7.290 -0.3931 -0.9068  0.8472
  265MOL   Cl2732235   5.619   9.073   7.364 -0.1080 -0.1765 -0.0902
  265MOL   Cl2832236   5.453   0.053   7.206 -0.2043  0.0963 -0.4346
  265MOL    C2932237   5.613   0.140   7.414  0.2131  0.5923  0.3083
  265MOL    H3032238   5.530   0.116   7.481 -0.6015  2.6498  0.0411
  265MOL    H3132239   5.697   0.102   7.473 -0.8330 -0.7408  0.9972
  265MOL    C3232240   5.626   0.289   7.408  0.6564  0.5150 -0.2168
  265MOL   Cl3332241   5.547   0.349   7.257  0.3510  0.5509  0.2080
  265MOL   Cl3432242   5.798   0.330   7.387  0.0512  0.3145 -0.3235
  265MOL    C3532243   5.568   0.380   7.529  0.3499 -0.0553 -0.1051
  265MOL    H3632244   5.604   0.482   7.513 -1.9964  0.7827 -0.2039
  265MOL    H3732245   5.461   0.385   7.510  0.6287  1.1360 -1.5527
  265MOL    C3832246   5.590   0.343   7.676 -0.3279  0.1991 -0.2129
  265MOL   Cl3932247   5.760   0.319   7.700  0.0770 -0.3095 -0.1638
  265MOL   Cl4032248   5.514   0.192   7.711  0.1539 -0.0332 -0.0122
  265MOL    C4132249   5.545   0.443   7.780 -0.0117 -0.1769 -0.3065
  265MOL    H4232250   5.547   0.391   7.876  0.5974 -1.2605 -0.9047
  265MOL    H4332251   5.624   0.518   7.783  0.7059 -0.9830  2.5486
  265MOL    C4432252   5.402   0.501   7.773 -0.2957  0.3696  0.2129
  265MOL   Cl4532253   5.285   0.380   7.710  0.0257 -0.4809  0.0910
  265MOL   Cl4632254   5.406   0.635   7.652 -0.0571 -0.2084 -0.5411
  265MOL    C4732255   5.341   0.548   7.913  0.2762  0.6370 -1.2331
  265MOL    H4832256   5.235   0.557   7.891 -0.1959 -2.5786 -0.4462
  265MOL    H4932257   5.338   0.458   7.975 -0.4869  2.1702  1.0309
  265MOL    C5032258   5.405   0.657   8.008 -0.8968  0.1932 -0.4988
  265MOL   Cl5132259   5.566   0.609   8.063  0.1274  0.1421 -0.3351
  265MOL   Cl5232260   5.296   0.667   8.152 -0.1917  0.0030 -0.2826
  265MOL    C5332261   5.428   0.795   7.931  0.0928  0.0172 -0.1905
  265MOL    H5432262   5.512   0.781   7.864  0.4079 -0.5629  0.3246
  265MOL    H5532263   5.345   0.812   7.862 -0.8102 -1.6498  0.4556
  265MOL    C5632264   5.440   0.928   8.006  0.2714  0.0986 -0.3044
  265MOL   Cl5732265   5.272   0.972   8.051  0.0568  0.0065  0.3236
  265MOL   Cl5832266   5.531   1.028   7.885 -0.1311  0.3749 -0.0040
  265MOL    C5932267   5.529   0.918   8.132 -0.5151 -0.0144  0.2143
  265MOL    H6032268   5.487   0.834   8.189 -0.3776 -1.5662 -1.9143
  265MOL    H6132269   5.627   0.892   8.092 -0.3549 -0.5623  0.9477
  265MOL    C6232270   5.554   1.040   8.229  0.2418 -1.0780  0.4383
  265MOL   Cl6332271   5.416   1.112   8.316  0.2046 -0.1495  0.2976
  265MOL   Cl6432272   5.641   1.169   8.136  0.4093  0.0900  0.2230
  265MOL    C6532273   5.648   1.007   8.343 -0.2617 -0.2114 -0.1879
  265MOL    H6632274   5.751   1.026   8.310 -0.2239  1.3628  0.7885
  265MOL    H6732275   5.642   1.091   8.412  2.3454  0.8570 -1.1735
  265MOL    C6832276   5.646   0.873   8.427 -0.2821  0.4474  0.7180
  265MOL   Cl6932277   5.472   0.841   8.457 -0.1172 -0.4717 -0.1475
  265MOL   Cl7032278   5.729   0.911   8.579 -0.3097  0.0614  0.0145
  265MOL    C7132279   5.729   0.753   8.362  0.5089  0.0159 -0.5005
  265MOL    H7232280   5.706   0.744   8.256  1.9195  0.7333 -0.8829
  265MOL    H7332281   5.837   0.770   8.370  0.3599  1.3589 -1.2368
  265MOL    C7432282   5.730   0.610   8.429 -0.1760 -0.5139  0.2177
  265MOL   Cl7532283   5.853   0.522   8.326  0.1502 -0.1273  0.1633
  265MOL   Cl7632284   5.565   0.533   8.399  0.3116  0.2767  0.0131
  265MOL    C7732285   5.775   0.614   8.585 -0.6976  0.7550  0.3634
  265MOL    H7832286   5.860   0.681   8.604  0.3968 -0.7317  0.8084
  265MOL    H7932287   5.688   0.663   8.628 -0.3823  2.5316 -0.9275
  265MOL    C8032288   5.815   0.493   8.674 -0.0264  0.7139 -0.4914
  265MOL   Cl8132289   5.849   0.561   8.834 -0.2531  0.3828 -0.1804
  265MOL   Cl8232290   5.974   0.430   8.623  0.7374  0.3303 -0.1803
  265MOL    C8332291   5.722   0.369   8.686  0.0373 -0.2074  0.6871
  265MOL    H8432292   5.623   0.414   8.700 -0.1507 -0.8198  1.3712
  265MOL    H8532293   5.722   0.315   8.591 -0.4001 -0.9369  1.0964
  265MOL    C8632294   5.725   0.259   8.793  0.1594  0.2906 -0.1194
  265MOL   Cl8732295   5.605   0.145   8.720 -0.0357  0.0614  0.1265
  265MOL   Cl8832296   5.654   0.316   8.948 -0.0176 -0.0453 -0.3966
  265MOL    C8932297   5.866   0.192   8.821  0.8491 -0.0874  0.2341
  265MOL    H9032298   5.910   0.156   8.728  0.1289 -0.8637  0.1897
  265MOL    H9132299   5.945   0.266   8.840  0.0493  1.0505 -0.7440
  265MOL    C9232300   5.883   0.072   8.923  0.5354  0.5723 -0.1474
  265MOL   Cl9332301   5.876   0.126   9.095  0.4448 -0.0066  0.1453
  265MOL   Cl9432302   6.062   0.026   8.892 -0.1677 -0.4292 -0.1392
  265MOL    C9532303   5.788   9.128   8.902  0.2793  0.4605 -0.0116
  265MOL    H9632304   5.686   9.166   8.891  0.0353 -0.2635 -0.2621
  265MOL    H9732305   5.814   9.081   8.807 -1.1927  0.5878 -0.4868
  265MOL    C9832306   5.782   9.001   8.999 -0.1808 -0.7305 -0.4560
  265MOL   Cl9932307   5.689   8.867   8.916  0.2765  0.3008  0.1315
  265MOL  Cl10032308   5.693   9.052   9.140  0.1429 -0.3111 -0.2009
  265MOL   C10132309   5.927   8.961   9.033 -0.0949  0.1456 -0.4162
  265MOL   H10232310   5.995   8.972   8.950  1.0190  1.0481  0.6039
  265MOL   H10332311   5.972   9.030   9.105 -1.6731  1.5221 -0.7200
  265MOL   C10432312   5.961   8.820   9.092  0.3653 -0.1715  0.1031
  265MOL  Cl10532313   6.132   8.821   9.142  0.0555 -0.1249 -0.1072
  265MOL  Cl10632314   5.956   8.700   8.966 -0.1792  0.0088  0.2076
  265MOL   C10732315   5.878   8.782   0.032  0.2634 -0.0360  0.5825
  265MOL   H10832316   5.898   8.842   0.121  1.2274  0.4238  0.0662
  265MOL   H10932317   5.776   8.805   0.001  0.0629 -0.3258  1.0178
  265MOL   C11032318   5.865   8.632   0.087  0.5230 -0.8727  0.5165
  265MOL  Cl11132319   6.020   8.558   0.111  0.0831  0.0037  0.2724
  265MOL  Cl11232320   5.773   8.532   9.159  0.1146  0.1616  0.4368
  265MOL   C11332321   5.795   8.619   0.222  0.7633 -0.7436 -0.0945
  265MOL   H11432322   5.789   8.515   0.253  3.4451 -1.5198 -1.9928
  265MOL   H11532323   5.867   8.659   0.294 -1.0871  2.3400  0.0959
  265MOL   C11632324   5.664   8.702   0.249 -1.1153  0.7327  0.4339
  265MOL  Cl11732325   5.684   8.879   0.260  0.0420  0.5249 -0.3367
  265MOL  Cl11832326   5.594   8.641   0.405 -0.2133  0.3947 -0.3805
  265MOL   C11932327   5.549   8.686   0.142  0.1513 -0.5881  0.4885
  265MOL   H12032328   5.570   8.720   0.041  1.0759 -1.0363  0.5171
  265MOL   H12132329   5.506   8.587   0.129  1.7089 -1.2751  0.3975
  265MOL   H12232330   5.466   8.749   0.175  1.9032  1.6856  0.7271
  266MOL     C132331   1.013   5.784   4.274  0.1355  0.6427 -0.1210
  266MOL    Cl232332   1.023   5.928   4.171  0.0342 -0.1367  0.3173
  266MOL    Cl332333   0.945   5.835   4.431  0.3333  0.4027  0.3801
  266MOL     C432334   0.922   5.680   4.202  0.4456 -0.2562 -0.1031
  266MOL     H532335   0.818   5.711   4.200  0.8830  1.2526 -0.3461
  266MOL     H632336   0.947   5.692   4.097  0.0495  3.2285  0.1387
  266MOL     H732337   1.114   5.750   4.296 -0.2747 -0.4008  0.1354
  266MOL     C832338   0.966   5.536   4.229 -0.1051 -0.6461  0.0486
  266MOL    Cl932339   1.128   5.500   4.165  0.1976 -0.3187 -0.0717
  266MOL   Cl1032340   0.847   5.446   4.129  0.0026 -0.1147 -0.0836
  266MOL    C1132341   0.955   5.480   4.375  0.0156 -0.2207 -0.4258
  266MOL    H1232342   1.015   5.390   4.381  1.3827  0.6872 -0.1162
  266MOL    H1332343   1.008   5.552   4.437 -0.9235 -1.0191  1.3248
  266MOL    C1432344   0.827   5.428   4.448  0.4733 -0.2066 -0.4369
  266MOL   Cl1532345   0.704   5.560   4.430 -0.0793 -0.4920  0.3264
  266MOL   Cl1632346   0.868   5.419   4.616 -0.1540  0.2801 -0.3889
  266MOL    C1732347   0.776   5.281   4.398 -0.5683 -0.2975 -0.2696
  266MOL    H1832348   0.808   5.259   4.296  1.3880  1.6589 -0.1147
  266MOL    H1932349   0.832   5.213   4.462  0.7026 -0.5280 -1.5997
  266MOL    C2032350   0.631   5.245   4.409 -0.1769  0.0812  0.3487
  266MOL   Cl2132351   0.624   5.085   4.331  0.2172 -0.3086  0.1646
  266MOL   Cl2232352   0.530   5.342   4.293  0.1749  0.2092  0.0339
  266MOL    C2332353   0.579   5.248   4.555  0.2323 -0.7174  0.0137
  266MOL    H2432354   0.660   5.205   4.614  0.8245 -0.4327 -0.5773
  266MOL    H2532355   0.574   5.355   4.577 -2.2970 -0.3098 -2.2446
  266MOL    C2632356   0.452   5.180   4.598  0.5482 -0.1852  0.5461
  266MOL   Cl2732357   0.474   5.006   4.616 -0.3154 -0.1035  0.2740
  266MOL   Cl2832358   0.323   5.196   4.478 -0.1366  0.5086 -0.1183
  266MOL    C2932359   0.390   5.241   4.730 -0.0473  0.3932 -0.0412
  266MOL    H3032360   0.353   5.339   4.702 -0.5317  0.1236 -0.3505
  266MOL    H3132361   0.302   5.180   4.748 -1.0289  2.0093  0.6096
  266MOL    C3232362   0.472   5.251   4.864  0.6890 -0.1502 -0.7421
  266MOL   Cl3332363   0.620   5.349   4.857 -0.2281 -0.3150 -0.1589
  266MOL   Cl3432364   0.517   5.084   4.921  0.2142 -0.1910 -0.1873
  266MOL    C3532365   0.393   5.300   4.991 -0.2809 -0.0910 -0.3379
  266MOL    H3632366   0.333   5.220   5.034  0.1317 -0.2671 -0.0868
  266MOL    H3732367   0.461   5.335   5.069  0.1653  0.0389 -0.7898
  266MOL    C3832368   0.293   5.424   4.972 -0.6518 -0.5893 -0.1969
  266MOL   Cl3932369   0.164   5.372   4.869  0.3051 -0.0008  0.0683
  266MOL   Cl4032370   0.380   5.563   4.901  0.2804 -0.5043  0.0512
  266MOL    C4132371   0.247   5.465   5.117 -0.2634 -0.4779 -0.1022
  266MOL    H4232372   0.241   5.384   5.190  1.8546  0.1206  0.7836
  266MOL    H4332373   0.332   5.520   5.156  0.8667 -1.9864 -0.4075
  266MOL    C4432374   0.115   5.546   5.131 -0.3236 -0.0864  0.0782
  266MOL   Cl4532375   0.135   5.619   5.290 -0.0646 -0.0019  0.5204
  266MOL   Cl4632376   9.166   5.422   5.154 -0.2387 -0.2065 -0.2701
  266MOL    C4732377   0.078   5.646   5.014  0.4952  0.0218 -0.2979
  266MOL    H4832378   0.161   5.694   4.964  0.9096 -0.5549 -0.1726
  266MOL    H4932379   0.032   5.580   4.940  0.3753  0.0974 -0.2906
  266MOL    C5032380   9.161   5.764   5.045  0.4529  0.6739  0.0322
  266MOL   Cl5132381   0.081   5.892   5.129  0.1833  0.1746 -0.3211
  266MOL   Cl5232382   9.029   5.703   5.155  0.2007 -0.1565 -0.1539
  266MOL    C5332383   9.099   5.813   4.913  0.6997 -0.2059 -0.5638
  266MOL    H5432384   9.025   5.736   4.892  0.8763 -0.4472 -0.3081
  266MOL    H5532385   9.039   5.899   4.945 -1.7630 -2.6671  1.7160
  266MOL    C5632386   9.175   5.862   4.784 -0.5115  0.5756  0.0228
  266MOL   Cl5732387   0.085   5.727   4.708 -0.0210  0.0280 -0.0436
  266MOL   Cl5832388   0.109   5.992   4.813 -0.2964  0.1641 -0.0358
  266MOL    C5932389   9.077   5.923   4.678 -0.1431 -0.1613  0.5079
  266MOL    H6032390   9.063   6.025   4.713  1.6878  1.1986 -2.5583
  266MOL    H6132391   9.132   5.927   4.584 -0.2527 -2.2006  0.3261
  266MOL    C6232392   8.941   5.853   4.637 -0.8558  0.1754  0.0081
  266MOL   Cl6332393   8.835   5.894   4.771  0.2793 -0.3099 -0.1210
  266MOL   Cl6432394   8.953   5.673   4.621 -0.6399  0.0988  0.8067
  266MOL    C6532395   8.872   5.918   4.515 -0.4915 -0.0063  0.2606
  266MOL    H6632396   8.830   6.015   4.539 -1.2305 -0.5780  1.3118
  266MOL    H6732397   8.956   5.959   4.459  1.5292 -2.4000  1.4177
  266MOL    C6832398   8.770   5.839   4.421  0.0611  0.1926 -0.3455
  266MOL   Cl6932399   8.852   5.716   4.321  0.3621  0.0630 -0.0896
  266MOL   Cl7032400   8.694   5.972   4.316  0.2534 -0.0568 -0.0216
  266MOL    C7132401   8.652   5.779   4.506  0.7299  0.2175  0.4455
  266MOL    H7232402   8.694   5.724   4.591 -2.2694 -1.7487  0.7347
  266MOL    H7332403   8.594   5.857   4.554 -0.0528  0.6239 -1.1328
  266MOL    C7432404   8.544   5.679   4.441 -0.1631  0.4525 -0.2862
  266MOL   Cl7532405   8.440   5.772   4.322 -0.3162  0.1324  0.2271
  266MOL   Cl7632406   8.434   5.647   4.574  0.1145  0.3905 -0.0078
  266MOL    C7732407   8.603   5.553   4.368  0.0762  0.1784  0.0776
  266MOL    H7832408   8.634   5.588   4.270  0.6017 -0.1035  0.1413
  266MOL    H7932409   8.692   5.524   4.424  0.0280  1.9154  1.0779
  266MOL    C8032410   8.508   5.427   4.361  0.2266 -0.0492  0.1231
  266MOL   Cl8132411   8.502   5.330   4.513 -0.1371  0.1306 -0.0130
  266MOL   Cl8232412   8.580   5.322   4.238 -0.3156 -0.0388  0.1529
  266MOL    C8332413   8.358   5.454   4.311  0.2713 -0.1864 -0.3175
  266MOL    H8432414   8.303   5.516   4.381 -0.5852 -1.6841  0.3398
  266MOL    H8532415   8.373   5.526   4.230  1.4334  0.8831  0.8348
  266MOL    C8632416   8.255   5.351   4.266  0.2052 -0.6877  0.6349
  266MOL   Cl8732417   8.308   5.273   4.113 -0.4077  0.4956  0.2038
  266MOL   Cl8832418   8.106   5.441   4.219  0.4043  0.4259 -0.2011
  266MOL    C8932419   8.203   5.239   4.354  0.1400 -0.5906 -0.0720
  266MOL    H9032420   8.154   5.166   4.290  0.5060  0.6275 -1.7784
  266MOL    H9132421   8.301   5.202   4.384 -0.0857 -1.4229 -0.3453
  266MOL    C9232422   8.115   5.274   4.482 -0.3296  0.6601  0.1525
  266MOL   Cl9332423   7.942   5.294   4.431  0.6242 -0.2525 -0.3078
  266MOL   Cl9432424   8.153   5.430   4.567  0.3756  0.1505 -0.0876
  266MOL    C9532425   8.129   5.171   4.599  0.3715  0.1187 -0.0154
  266MOL    H9632426   8.232   5.180   4.632  0.5114 -1.9877  0.1849
  266MOL    H9732427   8.078   5.194   4.693  0.3042 -2.4706  0.6243
  266MOL    C9832428   8.110   5.017   4.575  0.0751  0.2176 -0.3543
  266MOL   Cl9932429   8.250   4.966   4.480  0.1005 -0.0437 -0.3389
  266MOL  Cl10032430   7.958   4.970   4.500 -0.3108 -0.1354  0.2168
  266MOL   C10132431   8.129   4.947   4.719  0.3808 -0.6248 -0.1341
  266MOL   H10232432   8.225   4.982   4.757  0.8505 -1.4724 -0.4942
  266MOL   H10332433   8.057   4.991   4.787  0.5720 -0.5630  0.0278
  266MOL   C10432434   8.116   4.792   4.748  0.0129  0.1835  0.0620
  266MOL  Cl10532435   8.196   4.693   4.616  0.4283  0.1042  0.1055
  266MOL  Cl10632436   7.941   4.748   4.752 -0.0877  0.3190 -0.1244
  266MOL   C10732437   8.183   4.755   4.884  0.6244 -0.3679  0.3726
  266MOL   H10832438   8.171   4.649   4.908  1.8512 -0.2491  1.5406
  266MOL   H10932439   8.289   4.746   4.862  0.4323 -0.3234 -0.6349
  266MOL   C11032440   8.143   4.830   5.019 -0.8358 -0.1487 -0.7077
  266MOL  Cl11132441   7.964   4.826   5.052 -0.3090 -0.1441  0.5983
  266MOL  Cl11232442   8.191   5.002   5.026  0.5819  0.2748  0.0712
  266MOL   C11332443   8.223   4.777   5.140 -0.6317 -0.3934  0.0789
  266MOL   H11432444   8.209   4.848   5.222  0.5418 -0.3530  0.2606
  266MOL   H11532445   8.169   4.689   5.172  0.2200 -1.1956 -0.6549
  266MOL   C11632446   8.376   4.735   5.139 -0.1104  0.7530  0.4409
  266MOL  Cl11732447   8.479   4.852   5.058  0.0153 -0.5340 -0.1361
  266MOL  Cl11832448   8.408   4.568   5.079  0.8650 -0.0206  0.1012
  266MOL   C11932449   8.421   4.740   5.289  0.2397 -0.0673 -0.5329
  266MOL   H12032450   8.350   4.684   5.350 -0.6861  0.3701 -1.2013
  266MOL   H12132451   8.516   4.685   5.293 -0.4953 -1.3864 -0.8777
  266MOL   H12232452   8.427   4.844   5.320  0.8996  0.5076 -2.4863
  267MOL     C132453   3.017   5.239   0.436 -0.1058 -0.3323 -0.4357
  267MOL    Cl232454   3.146   5.153   0.345  0.3292  0.1936  0.4601
  267MOL    Cl332455   2.876   5.259   0.330 -0.0797  0.1343  0.1706
  267MOL     C432456   2.977   5.159   0.559  0.0502  0.5100 -0.2982
  267MOL     H532457   2.880   5.200   0.586  1.1690  2.7236  0.4302
  267MOL     H632458   2.970   5.052   0.536 -2.7366  1.0051 -1.8841
  267MOL     H732459   3.061   5.337   0.457  2.2323 -1.0315 -1.8078
  267MOL     C832460   3.069   5.169   0.680  0.7067  0.0408 -0.1633
  267MOL    Cl932461   2.999   5.064   0.814  0.1319 -0.0268 -0.1320
  267MOL   Cl1032462   3.053   5.350   0.729  0.0716  0.1942 -0.3650
  267MOL    C1132463   3.225   5.143   0.661 -0.4758 -0.1661 -0.2839
  267MOL    H1232464   3.232   5.074   0.578 -1.6658 -1.9471  1.0628
  267MOL    H1332465   3.272   5.230   0.615 -0.3358  0.5519  1.1655
  267MOL    C1432466   3.319   5.084   0.771  0.4423 -0.4965 -0.2108
  267MOL   Cl1532467   3.281   5.163   0.924  0.2864  0.3096 -0.0290
  267MOL   Cl1632468   3.493   5.123   0.733  0.0935  0.0256 -0.4591
  267MOL    C1732469   3.299   4.930   0.786 -0.8436 -0.4711  0.1196
  267MOL    H1832470   3.384   4.902   0.848  0.3228  2.7330  0.0337
  267MOL    H1932471   3.220   4.921   0.860 -0.7786  1.2351  0.3957
  267MOL    C2032472   3.293   4.816   0.677 -0.1256  0.2104 -1.1350
  267MOL   Cl2132473   3.435   4.846   0.563  0.4698 -0.2842 -0.4176
  267MOL   Cl2232474   3.126   4.824   0.601 -0.3599  0.3067  0.0545
  267MOL    C2332475   3.313   4.675   0.740 -0.0657  0.1633  0.0064
  267MOL    H2432476   3.393   4.672   0.814  0.3784  0.0600 -0.4737
  267MOL    H2532477   3.229   4.664   0.808  1.3806 -2.1692  1.4668
  267MOL    C2632478   3.331   4.535   0.655  0.7815 -0.7356 -1.0642
  267MOL   Cl2732479   3.501   4.525   0.618 -0.0646 -0.2936  0.1224
  267MOL   Cl2832480   3.242   4.562   0.499 -0.4831  0.1531 -0.6709
  267MOL    C2932481   3.282   4.419   0.736 -0.5647  0.6809 -0.2014
  267MOL    H3032482   3.317   4.438   0.838  0.6137  1.5632 -0.7539
  267MOL    H3132483   3.174   4.430   0.739 -0.5900  0.2817  0.5787
  267MOL    C3232484   3.314   4.272   0.702 -0.2098 -0.7062  0.5176
  267MOL   Cl3332485   3.315   4.252   0.526  0.1799 -0.2925 -0.0180
  267MOL   Cl3432486   3.182   4.174   0.767 -0.3680 -0.4372 -0.1226
  267MOL    C3532487   3.448   4.228   0.770 -0.0646  0.1106  0.5461
  267MOL    H3632488   3.522   4.308   0.768 -1.8367  1.8376  1.7195
  267MOL    H3732489   3.415   4.230   0.874  0.1059 -1.3249  0.6397
  267MOL    C3832490   3.512   4.089   0.728 -0.4902  0.4485 -0.3436
  267MOL   Cl3932491   3.387   3.955   0.698  0.1574  0.3264  0.3958
  267MOL   Cl4032492   3.612   4.033   0.869 -0.1230  0.0750 -0.3002
  267MOL    C4132493   3.598   4.105   0.594  0.5406  0.3654 -0.6269
  267MOL    H4232494   3.518   4.094   0.521 -1.1909 -0.0665  1.2798
  267MOL    H4332495   3.626   4.210   0.587 -1.1016  0.7012 -2.7559
  267MOL    C4432496   3.725   4.022   0.563 -0.2663 -0.2807 -0.7148
  267MOL   Cl4532497   3.763   4.062   0.393  0.0342 -0.1748 -0.1147
  267MOL   Cl4632498   3.667   3.850   0.554 -0.1158  0.2383 -0.2612
  267MOL    C4732499   3.853   4.033   0.656 -0.8838 -0.0187 -0.0233
  267MOL    H4832500   3.821   4.010   0.758 -0.7682 -0.7603 -0.1520
  267MOL    H4932501   3.924   3.961   0.615 -1.0171 -0.0786 -0.1481
  267MOL    C5032502   3.938   4.155   0.664 -0.2068 -0.0920 -0.0034
  267MOL   Cl5132503   4.053   4.112   0.793 -0.0314  0.3091  0.2181
  267MOL   Cl5232504   3.849   4.282   0.735 -0.5551 -0.0367  0.1369
  267MOL    C5332505   4.001   4.199   0.527  0.3511  0.0121  0.2725
  267MOL    H5432506   4.032   4.117   0.463  1.3007  0.2388  0.4314
  267MOL    H5532507   3.931   4.262   0.472 -0.8395 -1.1514  0.4332
  267MOL    C5632508   4.123   4.293   0.529  0.3022 -0.2157  0.2384
  267MOL   Cl5732509   4.140   4.346   0.358  0.0368 -0.4262  0.1636
  267MOL   Cl5832510   4.275   4.204   0.570 -0.0396 -0.2075 -0.1534
  267MOL    C5932511   4.105   4.423   0.607 -0.1510 -0.6514  0.0030
  267MOL    H6032512   4.008   4.462   0.576  0.2325  0.2707 -0.0445
  267MOL    H6132513   4.073   4.394   0.707 -1.4753 -0.2243 -0.2955
  267MOL    C6232514   4.217   4.538   0.630  0.5874 -0.0324  0.1658
  267MOL   Cl6332515   4.308   4.585   0.487 -0.2373 -0.1422 -0.0056
  267MOL   Cl6432516   4.338   4.486   0.751  0.0143  0.1101 -0.1483
  267MOL    C6532517   4.144   4.666   0.667  1.3354 -1.1965 -0.1900
  267MOL    H6632518   4.218   4.743   0.688 -2.3784  2.1324  1.5121
  267MOL    H6732519   4.080   4.705   0.587  0.5953  0.9550  1.4014
  267MOL    C6832520   4.038   4.679   0.782  0.3249 -0.5691  1.0112
  267MOL   Cl6932521   4.094   4.592   0.934  0.1122  0.4636  0.2414
  267MOL   Cl7032522   3.882   4.613   0.753  0.2804  0.1350 -0.3415
  267MOL    C7132523   4.012   4.822   0.831 -0.1598 -0.3700  0.3449
  267MOL    H7232524   3.948   4.820   0.920 -1.7326 -0.0128 -0.7487
  267MOL    H7332525   4.108   4.847   0.877 -0.3911  1.1945  0.0019
  267MOL    C7432526   3.972   4.935   0.730 -0.0589  0.2337  0.4825
  267MOL   Cl7532527   3.825   4.888   0.642  0.0656 -0.2638 -0.2418
  267MOL   Cl7632528   4.101   4.972   0.611 -0.2203  0.4016 -0.2993
  267MOL    C7732529   3.929   5.067   0.799 -0.6413 -0.2692 -0.0225
  267MOL    H7832530   3.841   5.044   0.859 -0.4649  4.0583  2.1122
  267MOL    H7932531   4.012   5.081   0.868 -1.7878  2.5850  0.8480
  267MOL    C8032532   3.916   5.211   0.730  0.0475  0.5826  0.2435
  267MOL   Cl8132533   4.088   5.270   0.723  0.0527  0.2834 -0.1655
  267MOL   Cl8232534   3.829   5.318   0.842  0.0963  0.4622  0.2569
  267MOL    C8332535   3.866   5.218   0.582  0.0510 -0.2264 -0.2931
  267MOL    H8432536   3.938   5.166   0.519 -0.0978 -1.9160  0.8762
  267MOL    H8532537   3.787   5.143   0.573 -0.2000 -0.3950  2.7235
  267MOL    C8632538   3.821   5.355   0.520 -0.7178 -0.0099  0.6437
  267MOL   Cl8732539   3.942   5.484   0.541 -0.0881  0.3128 -0.5114
  267MOL   Cl8832540   3.667   5.421   0.592 -0.1302  0.1539  0.1829
  267MOL    C8932541   3.807   5.343   0.363  0.7725  0.1674 -0.4887
  267MOL    H9032542   3.771   5.442   0.334 -0.6656 -0.1887  0.0257
  267MOL    H9132543   3.910   5.321   0.337  1.2833  1.3154  0.5000
  267MOL    C9232544   3.714   5.240   0.291  0.5213 -0.3147  0.5175
  267MOL   Cl9332545   3.545   5.265   0.346  0.2562 -0.2521  0.0534
  267MOL   Cl9432546   3.749   5.066   0.323  0.4322  0.4706  0.2470
  267MOL    C9532547   3.710   5.275   0.140  0.0149  0.2053  0.2777
  267MOL    H9632548   3.637   5.208   0.096  1.5864 -0.0798 -1.9968
  267MOL    H9732549   3.686   5.379   0.115  0.5615  0.4840  0.8795
  267MOL    C9832550   3.843   5.259   0.049 -0.1314 -0.1748  1.1833
  267MOL   Cl9932551   3.916   5.097   0.067 -0.1618 -0.0921  0.1184
  267MOL  Cl10032552   3.962   5.384   0.093  0.1011 -0.2132  0.2572
  267MOL   C10132553   3.806   5.282   9.078 -0.4584  0.6808  0.4608
  267MOL   H10232554   3.816   5.389   9.058  1.6543  0.6909  1.4865
  267MOL   H10332555   3.895   5.254   9.023 -1.3922  2.1840 -1.8837
  267MOL   C10432556   3.680   5.227   9.009 -0.1536  0.5718 -0.0726
  267MOL  Cl10532557   3.534   5.314   9.066  0.1654 -0.2954  0.4979
  267MOL  Cl10632558   3.673   5.055   9.038 -0.0422 -0.1139  0.0049
  267MOL   C10732559   3.698   5.257   8.859 -0.1393 -0.5322  0.3902
  267MOL   H10832560   3.704   5.366   8.858 -0.1925 -0.5320 -0.2621
  267MOL   H10932561   3.799   5.226   8.832 -0.8448 -1.3620 -1.4006
  267MOL   C11032562   3.610   5.185   8.750  0.2064  0.3601  0.0298
  267MOL  Cl11132563   3.650   5.271   8.600  0.0087 -0.1539  0.1060
  267MOL  Cl11232564   3.445   5.207   8.771  0.2331 -0.3805  0.1314
  267MOL   C11332565   3.642   5.024   8.728  0.3539 -0.6093  0.2815
  267MOL   H11432566   3.592   4.974   8.810 -0.2324  2.2378  1.7174
  267MOL   H11532567   3.577   5.018   8.640 -0.4568 -1.6862  0.9517
  267MOL   C11632568   3.776   4.955   8.688  0.2439  0.2539  0.2303
  267MOL  Cl11732569   3.738   4.779   8.685 -0.0323 -0.3122  0.1491
  267MOL  Cl11832570   3.907   4.981   8.812  0.1883  0.1311 -0.1204
  267MOL   C11932571   3.834   5.004   8.557 -0.5979  0.1379  0.3123
  267MOL   H12032572   3.922   4.948   8.528 -0.7593  1.1836 -2.3184
  267MOL   H12132573   3.759   5.000   8.479  0.8335  3.0194 -1.3108
  267MOL   H12232574   3.866   5.108   8.551 -2.2397  0.8145  2.2775
  268MOL     C132575   2.419   2.889   2.466 -0.6214  0.1287  0.0374
  268MOL    Cl232576   2.411   3.050   2.538  0.1323 -0.3646 -0.0875
  268MOL    Cl332577   2.422   2.747   2.576 -0.0625  0.1518 -0.1404
  268MOL     C432578   2.292   2.887   2.367 -0.2912  0.0191  0.1568
  268MOL     H532579   2.197   2.894   2.421 -0.4707  0.9348 -0.2718
  268MOL     H632580   2.289   2.981   2.312  1.2550  0.5086  0.8911
  268MOL     H732581   2.512   2.882   2.410 -0.4876 -0.3659  0.3197
  268MOL     C832582   2.283   2.782   2.262  0.8427 -0.6838  0.2699
  268MOL    Cl932583   2.443   2.738   2.199  0.4485 -0.2936 -0.1307
  268MOL   Cl1032584   2.183   2.841   2.124 -0.4084  0.2729 -0.1081
  268MOL    C1132585   2.213   2.663   2.327 -0.0620  0.2159  0.8268
  268MOL    H1232586   2.249   2.644   2.427  2.4390 -1.5277 -0.3638
  268MOL    H1332587   2.109   2.695   2.332 -0.8194 -2.2852  1.8611
  268MOL    C1432588   2.222   2.521   2.270  0.9073  0.2883 -0.2477
  268MOL   Cl1532589   2.090   2.430   2.347  0.2513  0.0780  0.1061
  268MOL   Cl1632590   2.381   2.452   2.317 -0.3833  0.0774  0.6261
  268MOL    C1732591   2.202   2.511   2.113  0.0765  0.6619  0.0282
  268MOL    H1832592   2.114   2.570   2.086 -0.1500  2.3204  3.9500
  268MOL    H1932593   2.285   2.555   2.058  0.9888 -1.4143 -0.2834
  268MOL    C2032594   2.184   2.375   2.039 -0.0228  0.2872 -0.4261
  268MOL   Cl2132595   2.234   2.409   1.875  0.0475 -0.0457  0.1201
  268MOL   Cl2232596   2.020   2.314   2.057  0.8545 -0.8460 -0.2220
  268MOL    C2332597   2.276   2.262   2.093  0.1651  0.0974  0.2543
  268MOL    H2432598   2.367   2.314   2.120 -0.7828  2.3638 -0.7884
  268MOL    H2532599   2.234   2.231   2.189 -1.3894 -0.6410 -0.6386
  268MOL    C2632600   2.312   2.138   2.011 -0.1338 -0.1881  0.5141
  268MOL   Cl2732601   2.424   2.172   1.880  0.2209 -0.1646  0.0931
  268MOL   Cl2832602   2.162   2.053   1.951 -0.3233 -0.3480  0.0048
  268MOL    C2932603   2.396   2.030   2.094  0.5269  0.1753  0.6706
  268MOL    H3032604   2.414   1.946   2.027 -0.5803 -0.1749  0.8006
  268MOL    H3132605   2.494   2.076   2.106  0.1867  0.8684  0.8415
  268MOL    C3232606   2.361   1.997   2.243 -0.4550 -0.1182  0.1933
  268MOL   Cl3332607   2.189   1.962   2.251 -0.2599  0.2943 -0.1359
  268MOL   Cl3432608   2.414   2.127   2.353 -0.0153  0.4057  0.0246
  268MOL    C3532609   2.438   1.870   2.302 -0.3070  0.5843  0.2880
  268MOL    H3632610   2.416   1.785   2.238  1.1025  0.3894  0.0477
  268MOL    H3732611   2.545   1.892   2.293 -0.5265  1.6220  0.0925
  268MOL    C3832612   2.436   1.807   2.444 -0.0575 -0.6350 -0.3606
  268MOL   Cl3932613   2.478   1.930   2.569  0.1508  0.2572  0.1458
  268MOL   Cl4032614   2.575   1.692   2.446  0.3515 -0.2760 -0.0992
  268MOL    C4132615   2.295   1.753   2.475  0.6031 -0.2149 -0.0589
  268MOL    H4232616   2.235   1.843   2.485 -1.6057 -1.6499 -0.2373
  268MOL    H4332617   2.269   1.712   2.377 -1.3577  1.8137 -0.4200
  268MOL    C4432618   2.272   1.651   2.592 -0.0949 -0.1303 -0.0066
  268MOL   Cl4532619   2.353   1.705   2.744 -0.3597  0.3630 -0.2746
  268MOL   Cl4632620   2.345   1.491   2.554  0.0776  0.1066 -0.2738
  268MOL    C4732621   2.124   1.629   2.638 -0.8175  0.3632 -0.4466
  268MOL    H4832622   2.130   1.538   2.697  2.8811  0.8486  0.0308
  268MOL    H4932623   2.098   1.706   2.710 -0.2202  0.6511 -0.5337
  268MOL    C5032624   2.009   1.611   2.539  0.1310  0.3601 -0.1503
  268MOL   Cl5132625   2.062   1.516   2.396  0.5067  0.3202  0.0902
  268MOL   Cl5232626   1.982   1.768   2.485 -0.0402  0.6752  0.3099
  268MOL    C5332627   1.881   1.535   2.596  0.2079  0.3449  0.0464
  268MOL    H5432628   1.811   1.535   2.513 -1.8640 -1.0552  1.7403
  268MOL    H5532629   1.889   1.426   2.596 -0.3584  0.3027 -0.5625
  268MOL    C5632630   1.811   1.562   2.729 -0.1667 -0.2535 -0.1651
  268MOL   Cl5732631   1.906   1.511   2.872  0.3150 -0.1282 -0.1172
  268MOL   Cl5832632   1.672   1.452   2.718  0.3942 -0.3255 -0.0904
  268MOL    C5932633   1.763   1.712   2.734  0.1554 -0.4599 -0.1634
  268MOL    H6032634   1.839   1.776   2.690 -2.0498  2.7316  0.5502
  268MOL    H6132635   1.679   1.720   2.664  2.1300  0.9681 -2.4498
  268MOL    C6232636   1.710   1.775   2.865 -0.3562  0.7059 -0.2619
  268MOL   Cl6332637   1.853   1.810   2.970 -0.2357 -0.0096  0.0241
  268MOL   Cl6432638   1.606   1.658   2.956  0.0396 -0.1815  0.2769
  268MOL    C6532639   1.622   1.900   2.843  0.4488  0.1655 -0.4077
  268MOL    H6632640   1.541   1.869   2.776 -1.7642 -1.0812  2.7407
  268MOL    H6732641   1.570   1.906   2.939 -1.1823 -0.8240 -1.1988
  268MOL    C6832642   1.677   2.041   2.809 -0.3209  0.8897  0.8237
  268MOL   Cl6932643   1.756   2.120   2.952 -0.1636  0.2161  0.1745
  268MOL   Cl7032644   1.535   2.149   2.771  0.5115  0.0896  0.0226
  268MOL    C7132645   1.762   2.040   2.680  0.4697 -0.5319 -0.1784
  268MOL    H7232646   1.851   1.980   2.700  1.8895  1.4603 -0.3901
  268MOL    H7332647   1.706   1.988   2.603  1.3598 -1.1482 -0.4209
  268MOL    C7432648   1.829   2.165   2.608  0.3380  0.6876  0.2861
  268MOL   Cl7532649   1.705   2.277   2.548 -0.3905 -0.0836 -0.0604
  268MOL   Cl7632650   1.916   2.094   2.468 -0.4576 -0.0483  0.3323
  268MOL    C7732651   1.929   2.253   2.689  0.3680 -0.0398 -0.5593
  268MOL    H7832652   1.939   2.349   2.639 -1.1856  2.5528  3.8106
  268MOL    H7932653   1.870   2.276   2.778  2.6477 -0.2974  1.0736
  268MOL    C8032654   2.074   2.210   2.737 -0.3032 -0.5369  0.0530
  268MOL   Cl8132655   2.175   2.204   2.592  0.0800  0.1330  0.2130
  268MOL   Cl8232656   2.069   2.051   2.827 -0.0040  0.2723  0.4204
  268MOL    C8332657   2.127   2.327   2.820 -0.3870  0.5277  0.2351
  268MOL    H8432658   2.127   2.410   2.750  1.4683  0.6068  0.3141
  268MOL    H8532659   2.049   2.349   2.894 -0.3390 -1.5422  0.9428
  268MOL    C8632660   2.252   2.320   2.901 -0.6051 -0.0751 -0.1164
  268MOL   Cl8732661   2.246   2.211   3.041 -0.0734 -0.0557 -0.4246
  268MOL   Cl8832662   2.273   2.479   2.969  0.2541  0.3751 -0.0661
  268MOL    C8932663   2.376   2.282   2.821  0.1234 -0.0998  0.2912
  268MOL    H9032664   2.372   2.173   2.812 -0.1879 -0.0547 -0.1337
  268MOL    H9132665   2.360   2.320   2.720 -0.4242 -0.6131  0.1772
  268MOL    C9232666   2.524   2.317   2.854  0.3644  0.1186 -0.2036
  268MOL   Cl9332667   2.550   2.485   2.803 -0.2066 -0.2610 -0.0143
  268MOL   Cl9432668   2.622   2.205   2.758  0.0855  0.3902  0.5685
  268MOL    C9532669   2.557   2.289   3.002 -0.4293 -0.3139  0.1693
  268MOL    H9632670   2.483   2.331   3.070  2.1660  3.3569  0.8491
  268MOL    H9732671   2.556   2.181   3.013 -0.2700 -0.3729 -0.3940
  268MOL    C9832672   2.692   2.333   3.063 -0.1832 -0.6414 -1.0951
  268MOL   Cl9932673   2.692   2.262   3.218  0.2205 -0.1422 -0.3567
  268MOL  Cl10032674   2.675   2.511   3.082  0.0880 -0.3835  0.1591
  268MOL   C10132675   2.818   2.297   2.980  0.2652 -0.2334 -0.5629
  268MOL   H10232676   2.803   2.191   2.958  2.1498 -0.6793  0.1884
  268MOL   H10332677   2.827   2.350   2.885 -1.3920 -1.1567 -1.2623
  268MOL   C10432678   2.957   2.298   3.053 -0.9481  0.9473  0.4692
  268MOL  Cl10532679   3.084   2.294   2.927  0.1767  0.3228 -0.2681
  268MOL  Cl10632680   2.980   2.151   3.155  0.0991  0.4674  0.3462
  268MOL   C10732681   2.969   2.425   3.134 -0.5691  0.1255  0.0696
  268MOL   H10832682   2.921   2.506   3.080 -2.0142 -1.0241 -0.3798
  268MOL   H10932683   2.907   2.414   3.223 -0.0240  0.3341  0.4850
  268MOL   C11032684   3.104   2.489   3.186  0.6875  0.0268  0.0406
  268MOL  Cl11132685   3.192   2.584   3.059  0.1653 -0.0872 -0.0054
  268MOL  Cl11232686   3.210   2.357   3.244 -0.2295  0.1749 -0.1474
  268MOL   C11332687   3.082   2.592   3.300 -0.5022 -0.1548  0.4739
  268MOL   H11432688   3.181   2.626   3.330  0.3169  0.2643 -2.4706
  268MOL   H11532689   3.038   2.682   3.256 -1.1988 -0.4159  0.6390
  268MOL   C11632690   3.007   2.559   3.441 -0.7144 -0.2357  0.1431
  268MOL  Cl11732691   2.832   2.539   3.413 -0.0607 -0.2890  0.0783
  268MOL  Cl11832692   3.033   2.693   3.546  0.0977 -0.0212 -0.0480
  268MOL   C11932693   3.067   2.433   3.505 -0.0008 -0.1155 -1.0691
  268MOL   H12032694   3.034   2.423   3.608  0.0994  0.5252 -0.9707
  268MOL   H12132695   3.044   2.340   3.453 -2.4112  0.3548 -0.9213
  268MOL   H12232696   3.176   2.428   3.503  0.0626 -0.6621  2.1252
  269MOL     C132697   2.461   3.704   1.653 -0.3827 -0.1423  0.2197
  269MOL    Cl232698   2.382   3.560   1.706  0.1749  0.1398  0.1998
  269MOL    Cl332699   2.470   3.726   1.482  0.1729  0.3783  0.1825
  269MOL     C432700   2.402   3.829   1.725 -0.5762  0.3229 -0.3506
  269MOL     H532701   2.398   3.915   1.658  0.0239  0.0974 -0.6801
  269MOL     H632702   2.295   3.811   1.736 -0.0877 -1.6412  1.4417
  269MOL     H732703   2.564   3.684   1.682 -0.3822 -1.7115 -0.7883
  269MOL     C832704   2.470   3.872   1.861  0.5935  0.1592 -0.5392
  269MOL    Cl932705   2.389   4.022   1.905 -0.1344  0.2402 -0.0313
  269MOL   Cl1032706   2.632   3.914   1.811 -0.1657 -0.3569 -0.3989
  269MOL    C1132707   2.471   3.759   1.966 -0.4178 -0.5436 -0.2084
  269MOL    H1232708   2.369   3.761   2.003 -0.3731 -1.7055 -0.0080
  269MOL    H1332709   2.479   3.661   1.920 -1.5121 -1.4524  1.4930
  269MOL    C1432710   2.565   3.762   2.093  0.3015 -0.4763 -0.1325
  269MOL   Cl1532711   2.733   3.720   2.040  0.2873  0.0338 -0.3966
  269MOL   Cl1632712   2.510   3.620   2.187  0.0294  0.0421 -0.2282
  269MOL    C1732713   2.570   3.900   2.165  0.4468  0.3064 -0.0355
  269MOL    H1832714   2.628   3.972   2.107  0.0822 -1.1879 -2.2898
  269MOL    H1932715   2.466   3.930   2.181  0.9296  2.2915 -0.4550
  269MOL    C2032716   2.629   3.919   2.310 -0.2339 -0.0371 -0.0663
  269MOL   Cl2132717   2.794   3.851   2.340 -0.1242 -0.6073 -0.2847
  269MOL   Cl2232718   2.520   3.833   2.425 -0.0338  0.0488 -0.1256
  269MOL    C2332719   2.641   4.069   2.351 -0.1120  0.2528  0.1146
  269MOL    H2432720   2.683   4.074   2.451 -0.0901  1.6837  0.0412
  269MOL    H2532721   2.722   4.113   2.293  0.8824  0.0602  1.3410
  269MOL    C2632722   2.534   4.174   2.336 -0.3227  0.1313  0.8788
  269MOL   Cl2732723   2.373   4.115   2.395  0.0460  0.0417 -0.2272
  269MOL   Cl2832724   2.529   4.220   2.163  0.1319  0.2212  0.0098
  269MOL    C2932725   2.580   4.301   2.415 -0.3763  0.0318 -0.9729
  269MOL    H3032726   2.639   4.272   2.502 -1.1121 -1.2493 -0.8925
  269MOL    H3132727   2.665   4.346   2.364  1.6292 -1.4488  1.0138
  269MOL    C3232728   2.487   4.419   2.454 -0.3799  0.4137  0.3562
  269MOL   Cl3332729   2.596   4.560   2.470  0.4102 -0.0055  0.0201
  269MOL   Cl3432730   2.435   4.380   2.619  0.1507 -0.1280  0.1102
  269MOL    C3532731   2.388   4.467   2.341  0.3417  0.5443  0.0533
  269MOL    H3632732   2.458   4.493   2.262 -0.1093 -1.3293 -0.9819
  269MOL    H3732733   2.334   4.377   2.312  1.2838 -0.3330  0.9294
  269MOL    C3832734   2.278   4.581   2.367 -0.3160  0.1943 -0.0442
  269MOL   Cl3932735   2.352   4.741   2.375 -0.0196 -0.1242  0.1045
  269MOL   Cl4032736   2.188   4.551   2.524  0.0698 -0.0015  0.1164
  269MOL    C4132737   2.161   4.581   2.261  0.1160 -0.2714 -0.1816
  269MOL    H4232738   2.126   4.480   2.283  0.8354 -0.0431  2.1532
  269MOL    H4332739   2.085   4.649   2.300  0.6255  0.0450  0.2631
  269MOL    C4432740   2.178   4.605   2.107  0.3843 -0.3406  0.5003
  269MOL   Cl4532741   2.039   4.531   2.025  0.1542 -0.0221  0.1166
  269MOL   Cl4632742   2.316   4.521   2.041 -0.1728 -0.3012 -0.8334
  269MOL    C4732743   2.182   4.751   2.072 -0.4063  0.3600  0.4956
  269MOL    H4832744   2.126   4.805   2.148  0.1713 -1.4217  2.2286
  269MOL    H4932745   2.286   4.773   2.096 -0.4179 -0.2495  1.1063
  269MOL    C5032746   2.160   4.802   1.929 -0.2038  0.3754 -0.4750
  269MOL   Cl5132747   1.986   4.796   1.883  0.0826  0.2909  0.1722
  269MOL   Cl5232748   2.261   4.723   1.813 -0.4530  0.5828 -0.4362
  269MOL    C5332749   2.195   4.948   1.914 -0.2776  0.3085 -0.2383
  269MOL    H5432750   2.303   4.949   1.900 -0.3166 -0.9907 -0.7201
  269MOL    H5532751   2.147   4.981   1.822  3.3396  1.6643 -1.7227
  269MOL    C5632752   2.167   5.048   2.024 -0.0894  0.0256  0.1347
  269MOL   Cl5732753   2.010   5.039   2.102  0.1097  0.0398 -0.1426
  269MOL   Cl5832754   2.170   5.207   1.948  0.3805 -0.1211 -0.1570
  269MOL    C5932755   2.278   5.051   2.135  0.0362 -0.0487  0.2771
  269MOL    H6032756   2.229   5.106   2.215 -0.3758 -0.3996  0.2707
  269MOL    H6132757   2.282   4.955   2.186  1.3502 -1.6914 -2.7416
  269MOL    C6232758   2.419   5.109   2.129  0.4982  0.1447 -0.6598
  269MOL   Cl6332759   2.486   5.105   1.969  0.7717 -0.2928 -0.2138
  269MOL   Cl6432760   2.525   4.996   2.209 -0.0638  0.0668  0.1029
  269MOL    C6532761   2.422   5.254   2.181  0.5170 -0.3990 -0.1425
  269MOL    H6632762   2.511   5.301   2.141  0.1410  0.3880 -0.0715
  269MOL    H6732763   2.352   5.320   2.128  0.5038 -1.2417 -1.1924
  269MOL    C6832764   2.434   5.287   2.336  1.0913 -0.4457 -0.5103
  269MOL   Cl6932765   2.601   5.252   2.373 -0.0682  0.0864  0.0806
  269MOL   Cl7032766   2.324   5.176   2.431 -0.5829 -0.1828  0.2481
  269MOL    C7132767   2.382   5.431   2.365  0.5276  0.2131 -0.1739
  269MOL    H7232768   2.405   5.488   2.274  0.9735  0.5996  0.1803
  269MOL    H7332769   2.273   5.427   2.361  0.5594 -0.9447 -0.0866
  269MOL    C7432770   2.430   5.509   2.489  0.8700 -0.0309  0.6503
  269MOL   Cl7532771   2.600   5.561   2.463 -0.3694  0.4671 -0.2721
  269MOL   Cl7632772   2.421   5.403   2.633  0.2049 -0.4542  0.1937
  269MOL    C7732773   2.338   5.638   2.518  0.3275  0.4004  0.4193
  269MOL    H7832774   2.320   5.690   2.423 -0.5766  0.7318  0.7661
  269MOL    H7932775   2.241   5.597   2.549 -0.2486  0.0060 -1.7767
  269MOL    C8032776   2.368   5.733   2.634 -0.5019 -0.6400 -0.1786
  269MOL   Cl8132777   2.246   5.869   2.623  0.2534  0.0880 -0.3574
  269MOL   Cl8232778   2.517   5.822   2.614 -0.2385  0.4113 -0.2959
  269MOL    C8332779   2.369   5.681   2.778  0.4020  0.1950  0.7115
  269MOL    H8432780   2.297   5.600   2.781  1.1613 -0.5007  0.1884
  269MOL    H8532781   2.469   5.642   2.796 -0.4631 -2.2104  0.4682
  269MOL    C8632782   2.338   5.758   2.910 -0.0244 -0.0625 -0.0049
  269MOL   Cl8732783   2.162   5.765   2.914 -0.1810  0.1642  0.0312
  269MOL   Cl8832784   2.388   5.925   2.899  0.1175 -0.0742 -0.9531
  269MOL    C8932785   2.428   5.702   3.032  0.0291  0.5108 -0.1074
  269MOL    H9032786   2.532   5.730   3.017  0.2521  0.5348  1.3525
  269MOL    H9132787   2.389   5.763   3.114  1.9067  0.5845  0.7585
  269MOL    C9232788   2.435   5.548   3.073 -0.2193 -0.5054 -0.1662
  269MOL   Cl9332789   2.564   5.470   2.988 -0.5232 -0.5262 -0.0631
  269MOL   Cl9432790   2.288   5.476   3.005  0.2274 -0.1632 -0.2896
  269MOL    C9532791   2.440   5.534   3.231 -0.0908 -0.0394  0.3625
  269MOL    H9632792   2.511   5.607   3.269  1.5714 -1.2036 -0.4849
  269MOL    H9732793   2.356   5.576   3.287  2.2055  2.5919  1.9401
  269MOL    C9832794   2.486   5.403   3.293  0.1179  0.7794 -0.3397
  269MOL   Cl9932795   2.476   5.425   3.463  0.1317 -0.2127  0.3734
  269MOL  Cl10032796   2.655   5.377   3.268 -0.1821 -0.1089  0.1924
  269MOL   C10132797   2.398   5.275   3.252  0.5747  0.0513 -0.1649
  269MOL   H10232798   2.297   5.316   3.256  0.9375  0.8284  1.4064
  269MOL   H10332799   2.417   5.274   3.145  1.3311  1.0662 -0.0462
  269MOL   C10432800   2.411   5.123   3.299 -0.0916  0.2352  0.1230
  269MOL  Cl10532801   2.287   5.017   3.222  0.0823 -0.4275  0.4210
  269MOL  Cl10632802   2.381   5.114   3.479 -0.2587  0.0654 -0.0622
  269MOL   C10732803   2.549   5.044   3.293  0.0479  0.9651 -0.9584
  269MOL   H10832804   2.618   5.103   3.354 -0.7738  0.0328  0.9062
  269MOL   H10932805   2.548   4.956   3.357 -1.2015 -0.3159 -2.7271
  269MOL   C11032806   2.611   5.001   3.157  0.3967  1.0260 -0.4955
  269MOL  Cl11132807   2.609   5.119   3.025 -0.4728 -0.0049  0.3304
  269MOL  Cl11232808   2.528   4.859   3.082 -0.2080  0.1411  0.2167
  269MOL   C11332809   2.764   4.948   3.181 -0.1174 -1.2794  0.0945
  269MOL   H11432810   2.808   4.917   3.086  1.6765  0.7770  0.2235
  269MOL   H11532811   2.822   5.036   3.208  0.7806 -1.8134 -0.0667
  269MOL   C11632812   2.805   4.844   3.288 -0.3241  0.0730 -0.3056
  269MOL  Cl11732813   2.700   4.702   3.284  0.1550 -0.5148  0.3087
  269MOL  Cl11832814   2.797   4.913   3.451  0.0512 -0.1613  0.0822
  269MOL   C11932815   2.946   4.788   3.259 -0.5146 -0.4741 -0.3126
  269MOL   H12032816   2.954   4.758   3.155  1.2792  0.4486 -0.4669
  269MOL   H12132817   3.025   4.859   3.283  0.8466 -2.1349  0.2761
  269MOL   H12232818   2.975   4.707   3.326  0.8615  2.1163  2.3427
  270MOL     C132819   2.894   3.608   9.052  0.2184  0.2177  0.0110
  270MOL    Cl232820   2.855   3.491   8.921  0.1313 -0.7874 -0.2481
  270MOL    Cl332821   3.061   3.683   9.024  0.0546  0.1204  0.0798
  270MOL     C432822   2.778   3.706   9.083 -0.2680  0.3879 -0.9189
  270MOL     H532823   2.745   3.771   9.002 -1.4334  0.3345 -0.4922
  270MOL     H632824   2.685   3.650   9.094  0.3320 -0.2721  1.0240
  270MOL     H732825   2.915   3.548   9.140  1.7759  0.3636 -0.2543
  270MOL     C832826   2.793   3.802   0.032  0.1857  0.2508 -0.3795
  270MOL    Cl932827   2.922   3.915   9.174 -0.1317  0.3327  0.3620
  270MOL   Cl1032828   2.841   3.701   0.179  0.6309 -0.0754  0.1298
  270MOL    C1132829   2.664   3.890   0.062 -0.4336  0.4345  0.3560
  270MOL    H1232830   2.686   3.932   0.161 -0.4998  3.5318 -0.8722
  270MOL    H1332831   2.657   3.964   9.163 -0.4462  0.8549  0.7434
  270MOL    C1432832   2.523   3.826   0.086 -0.5292  0.0989  0.1853
  270MOL   Cl1532833   2.531   3.671   0.184  0.1444  0.0948  0.0715
  270MOL   Cl1632834   2.434   3.778   9.121 -0.2992 -0.0651  0.3137
  270MOL    C1732835   2.428   3.911   0.178  1.0479 -0.5449  0.3922
  270MOL    H1832836   2.332   3.862   0.187  1.1094 -0.9221 -0.8611
  270MOL    H1932837   2.473   3.924   0.276  0.9707  1.8227  0.1348
  270MOL    C2032838   2.413   4.066   0.148  0.0659  0.3368  0.6809
  270MOL   Cl2132839   2.377   4.089   9.160  0.2341 -0.1445 -0.1387
  270MOL   Cl2232840   2.566   4.163   0.177 -0.1523 -0.1642 -0.0956
  270MOL    C2332841   2.295   4.131   0.221 -0.0308  0.1040  0.1671
  270MOL    H2432842   2.265   4.228   0.182 -1.0403 -0.2691  0.0036
  270MOL    H2532843   2.206   4.084   0.180  0.1105  0.2695 -0.3288
  270MOL    C2632844   2.280   4.132   0.376 -0.1463 -0.4422  0.2999
  270MOL   Cl2732845   2.410   4.230   0.457 -0.3715  0.4023 -0.2215
  270MOL   Cl2832846   2.280   3.970   0.456 -0.1635  0.0825  0.3274
  270MOL    C2932847   2.151   4.204   0.429 -0.8883 -0.5859 -0.5500
  270MOL    H3032848   2.143   4.184   0.536  0.0137  1.2966 -0.1067
  270MOL    H3132849   2.158   4.312   0.414 -2.0324 -0.8561 -3.3852
  270MOL    C3232850   2.011   4.172   0.374  0.0671  0.3706 -0.2290
  270MOL   Cl3332851   1.983   4.013   0.320  0.0658 -0.0294 -0.1573
  270MOL   Cl3432852   1.978   4.279   0.240  0.1468 -0.0538  0.3105
  270MOL    C3532853   1.902   4.188   0.482  0.4408  0.4725  0.0519
  270MOL    H3632854   1.809   4.161   0.432  1.7868 -0.8565 -1.8605
  270MOL    H3732855   1.920   4.110   0.556 -0.5660  1.0143  0.8666
  270MOL    C3832856   1.871   4.321   0.560  0.6785 -0.1326 -0.7515
  270MOL   Cl3932857   1.785   4.430   0.451 -0.0248 -0.3807 -0.6666
  270MOL   Cl4032858   2.018   4.399   0.621 -0.0316 -0.3946 -0.0793
  270MOL    C4132859   1.789   4.320   0.699  0.2572  0.4555  0.0116
  270MOL    H4232860   1.856   4.325   0.784  3.1277  4.4708 -2.3494
  270MOL    H4332861   1.743   4.418   0.713 -0.1625 -0.0173  2.0155
  270MOL    C4432862   1.679   4.217   0.721 -0.3961  0.0088 -0.5135
  270MOL   Cl4532863   1.739   4.051   0.767 -0.3656 -0.1274 -0.3581
  270MOL   Cl4632864   1.589   4.204   0.573  0.1340 -0.0888  0.1962
  270MOL    C4732865   1.571   4.249   0.835 -1.2826 -0.1462  0.2608
  270MOL    H4832866   1.499   4.319   0.793 -0.0510  0.7871 -0.3233
  270MOL    H4932867   1.528   4.149   0.848 -0.8037 -0.1271  2.2292
  270MOL    C5032868   1.602   4.315   0.975 -0.2230  0.2006 -0.2009
  270MOL   Cl5132869   1.632   4.489   0.950  0.0419 -0.2021 -0.0475
  270MOL   Cl5232870   1.742   4.241   1.061  0.0981  0.3023  0.1552
  270MOL    C5332871   1.482   4.307   1.074 -0.2497 -0.4156 -0.6005
  270MOL    H5432872   1.514   4.361   1.163 -0.0457  0.3838 -1.1542
  270MOL    H5532873   1.398   4.375   1.059 -1.7304 -2.2553 -0.8457
  270MOL    C5632874   1.403   4.175   1.100 -0.7257  0.0875 -0.2955
  270MOL   Cl5732875   1.519   4.040   1.111  0.5942 -0.1255 -0.3607
  270MOL   Cl5832876   1.281   4.156   0.972 -0.8134  0.0855 -0.0953
  270MOL    C5932877   1.335   4.191   1.244 -0.0636  0.3519 -0.2588
  270MOL    H6032878   1.413   4.226   1.312 -0.2586 -1.2333  0.8124
  270MOL    H6132879   1.270   4.278   1.252 -0.4358 -0.0614  1.5045
  270MOL    C6232880   1.251   4.072   1.311 -0.1592 -0.4038 -0.0103
  270MOL   Cl6332881   1.210   4.143   1.476 -0.2543 -0.0511  0.0285
  270MOL   Cl6432882   1.350   3.925   1.328  0.0600  0.1769  0.1117
  270MOL    C6532883   1.114   4.025   1.237  0.0006 -0.0568 -0.3732
  270MOL    H6632884   1.153   3.998   1.139  1.0721  2.4456 -0.6687
  270MOL    H6732885   1.078   3.934   1.287 -0.2740 -0.2166 -0.8633
  270MOL    C6832886   0.993   4.120   1.226 -0.9251  0.6152  0.3763
  270MOL   Cl6932887   0.883   4.047   1.108 -0.0874 -0.4208  0.0932
  270MOL   Cl7032888   1.039   4.276   1.148  0.0743  0.0360 -0.1380
  270MOL    C7132889   0.903   4.157   1.340 -0.2454  0.6940 -1.2727
  270MOL    H7232890   0.952   4.226   1.408 -1.8929  1.3492 -0.7181
  270MOL    H7332891   0.824   4.215   1.292  1.1607  3.2416 -0.5828
  270MOL    C7432892   0.842   4.051   1.445 -0.4007 -0.4441 -0.0980
  270MOL   Cl7532893   0.971   3.962   1.525 -0.1733 -0.5280 -0.4683
  270MOL   Cl7632894   0.735   3.935   1.359 -0.2081 -0.0883  0.3188
  270MOL    C7732895   0.765   4.136   1.548 -0.1151  0.3224 -0.4006
  270MOL    H7832896   0.811   4.234   1.566  1.5884 -0.2088 -1.6928
  270MOL    H7932897   0.678   4.161   1.487 -0.9534  1.0099  1.0519
  270MOL    C8032898   0.724   4.075   1.687 -0.2983  0.6115  0.6820
  270MOL   Cl8132899   0.674   3.909   1.657 -0.3189 -0.6331  0.1516
  270MOL   Cl8232900   0.575   4.163   1.729  0.1234 -0.1334  0.0962
  270MOL    C8332901   0.838   4.087   1.798  0.4513  0.2029  0.2274
  270MOL    H8432902   0.905   4.001   1.793 -0.9807 -1.0086  1.3530
  270MOL    H8532903   0.910   4.168   1.784  1.3775 -0.8123 -0.9802
  270MOL    C8632904   0.801   4.084   1.951  1.3407 -0.1922  0.3282
  270MOL   Cl8732905   0.760   4.258   1.986  0.0203 -0.0281  0.0939
  270MOL   Cl8832906   0.953   4.059   2.034  0.2324 -0.0636  0.2661
  270MOL    C8932907   0.693   3.986   1.993 -0.6879  0.8236  0.7105
  270MOL    H9032908   0.610   4.007   1.926  1.3537  0.3927 -2.0609
  270MOL    H9132909   0.724   3.884   1.970  0.9129  1.1164  1.4809
  270MOL    C9232910   0.635   3.975   2.143  0.3775 -0.0603  0.6086
  270MOL   Cl9332911   0.547   3.815   2.139  0.0845  0.1527  0.1599
  270MOL   Cl9432912   0.526   4.107   2.167  0.1898 -0.3089  0.1500
  270MOL    C9532913   0.741   3.969   2.261  0.2212  0.5059 -0.3705
  270MOL    H9632914   0.819   3.902   2.225  0.6964  1.2276 -0.6894
  270MOL    H9732915   0.795   4.063   2.255 -0.2817  0.7372 -1.4173
  270MOL    C9832916   0.707   3.928   2.408  0.6620  0.6152  0.4744
  270MOL   Cl9932917   0.830   3.985   2.513  0.2014 -0.0215  0.0342
  270MOL  Cl10032918   0.695   3.751   2.415 -0.2848  0.1522 -0.4693
  270MOL   C10132919   0.565   3.984   2.448  0.4094 -0.0965 -0.5502
  270MOL   H10232920   0.555   4.092   2.436  0.9821  0.0337  0.0875
  270MOL   H10332921   0.493   3.957   2.372  1.5061  1.2406 -2.0853
  270MOL   C10432922   0.507   3.965   2.594 -0.6634  1.1160 -0.6325
  270MOL  Cl10532923   0.502   3.794   2.656  0.0582  0.0081 -0.4398
  270MOL  Cl10632924   0.338   4.014   2.570 -0.2675 -0.3388  0.3811
  270MOL   C10732925   0.580   4.060   2.700  0.4053  0.1739  0.1495
  270MOL   H10832926   0.656   4.006   2.756  1.1393  0.8299 -0.2082
  270MOL   H10932927   0.634   4.136   2.644 -1.0501 -1.2912 -3.3667
  270MOL   C11032928   0.507   4.133   2.819 -0.4486 -0.2374  0.3982
  270MOL  Cl11132929   0.643   4.179   2.925  0.2237 -0.2880 -0.1036
  270MOL  Cl11232930   0.400   4.012   2.907 -0.1151  0.1331  0.1310
  270MOL   C11332931   0.421   4.259   2.785  0.2905  0.0384  0.4186
  270MOL   H11432932   0.334   4.219   2.733  0.2863  0.1765  0.3200
  270MOL   H11532933   0.391   4.302   2.880  0.1069  0.1405  0.3142
  270MOL   C11632934   0.477   4.375   2.700  0.0061  0.4133 -0.2644
  270MOL  Cl11732935   0.503   4.335   2.529 -0.0370  0.1452  0.3132
  270MOL  Cl11832936   0.635   4.425   2.743  0.3010 -0.0696  0.1549
  270MOL   C11932937   0.383   4.496   2.699  0.0636 -0.3459 -0.1022
  270MOL   H12032938   0.345   4.526   2.796 -0.1212  0.1407 -0.3194
  270MOL   H12132939   0.418   4.580   2.638 -0.9229  0.9808  1.1147
  270MOL   H12232940   0.289   4.468   2.649  0.6172 -0.2916 -1.1989
  271MOL     C132941   0.026   7.080   6.602  0.5938  0.2390  0.2393
  271MOL    Cl232942   9.163   6.914   6.648  0.5454 -0.2595 -0.0200
  271MOL    Cl332943   0.053   7.170   6.749  0.4011 -0.0950 -0.2154
  271MOL     C432944   0.164   7.085   6.533 -0.2596  0.5227  0.0660
  271MOL     H532945   0.187   7.191   6.526  1.4932  0.1034 -0.8060
  271MOL     H632946   0.227   7.035   6.607  0.3832  1.9989  0.5377
  271MOL     H732947   9.126   7.120   6.540  0.4313  2.1476  1.6472
  271MOL     C832948   0.176   7.038   6.384 -0.1490 -0.5835  0.2889
  271MOL    Cl932949   0.335   7.093   6.343 -0.0843 -0.8245  0.0404
  271MOL   Cl1032950   0.057   7.121   6.281 -0.3899 -0.1018 -0.0621
  271MOL    C1132951   0.162   6.882   6.363  0.4689 -1.0832  0.1936
  271MOL    H1232952   0.205   6.823   6.444  1.6295 -1.3455 -0.5986
  271MOL    H1332953   0.055   6.860   6.368  0.0514  0.3071 -1.9840
  271MOL    C1432954   0.220   6.806   6.250  0.5519  0.5545 -0.0309
  271MOL   Cl1532955   0.396   6.799   6.260 -0.2561 -0.1622 -0.3650
  271MOL   Cl1632956   0.174   6.889   6.105  0.3155 -0.4706 -0.3656
  271MOL    C1732957   0.173   6.662   6.232 -0.6518 -0.4346  0.2277
  271MOL    H1832958   0.067   6.659   6.208 -0.4574 -0.3492 -0.6769
  271MOL    H1932959   0.207   6.637   6.131 -1.1209 -0.3628  0.0535
  271MOL    C2032960   0.203   6.541   6.331  0.2988  0.0906 -0.0654
  271MOL   Cl2132961   0.148   6.586   6.495 -0.1308  0.1785  0.3088
  271MOL   Cl2232962   0.378   6.502   6.344  0.1995  0.3145 -0.1373
  271MOL    C2332963   0.113   6.417   6.304  0.5967  0.7373  0.5258
  271MOL    H2432964   0.143   6.347   6.383  2.1639 -1.1051 -1.6501
  271MOL    H2532965   0.009   6.444   6.320  0.4472  0.9705 -0.8649
  271MOL    C2632966   0.105   6.347   6.158  0.6717 -0.1380 -0.5666
  271MOL   Cl2732967   0.018   6.459   6.039  0.2030  0.4300  0.3635
  271MOL   Cl2832968   0.004   6.204   6.183  0.2724 -0.4143  0.1481
  271MOL    C2932969   0.242   6.288   6.114  0.1195 -0.2840 -0.1229
  271MOL    H3032970   0.309   6.373   6.099  0.3629 -0.7389 -1.7133
  271MOL    H3132971   0.282   6.229   6.197 -2.5924  0.8853  2.0878
  271MOL    C3232972   0.262   6.198   5.982 -0.2538  0.1955  0.2267
  271MOL   Cl3332973   0.207   6.286   5.834  0.0351 -0.0269  0.2062
  271MOL   Cl3432974   0.166   6.045   5.998  0.1221  0.1035 -0.2366
  271MOL    C3532975   0.411   6.161   5.954  0.3920 -0.1313 -0.0606
  271MOL    H3632976   0.435   6.086   6.029 -0.7242  1.0340  1.4870
  271MOL    H3732977   0.406   6.114   5.856 -2.1763 -1.2345  0.5446
  271MOL    C3832978   0.531   6.254   5.970 -0.1717 -0.7472 -0.0089
  271MOL   Cl3932979   0.570   6.286   6.140 -0.0702  0.3185 -0.1581
  271MOL   Cl4032980   0.496   6.402   5.881  0.2624  0.0543 -0.0061
  271MOL    C4132981   0.651   6.169   5.906 -0.2435 -0.0098 -0.0217
  271MOL    H4232982   0.646   6.063   5.928 -1.5041  0.4419  2.0686
  271MOL    H4332983   0.629   6.160   5.800  0.2150 -4.7998  0.2147
  271MOL    C4432984   0.801   6.214   5.917 -0.0708 -0.5795  0.1137
  271MOL   Cl4532985   0.897   6.120   5.807 -0.7020  0.2032  0.2299
  271MOL   Cl4632986   0.863   6.174   6.082 -0.3185  0.0972  0.1404
  271MOL    C4732987   0.815   6.369   5.894 -0.1886  0.3692 -0.8604
  271MOL    H4832988   0.742   6.401   5.821  0.4286 -1.5806 -2.3766
  271MOL    H4932989   0.793   6.410   5.993  1.3848 -0.0190 -0.3304
  271MOL    C5032990   0.954   6.425   5.856  0.0266 -0.1912  0.7696
  271MOL   Cl5132991   1.083   6.355   5.957  0.5102 -0.0494  0.3777
  271MOL   Cl5232992   0.942   6.594   5.913 -0.1334  0.3639  0.5984
  271MOL    C5332993   1.004   6.413   5.705  0.0059 -0.4941 -0.9135
  271MOL    H5432994   1.097   6.470   5.700 -1.1059  1.4794  0.2441
  271MOL    H5532995   1.041   6.311   5.691  0.6825 -0.2755 -0.7542
  271MOL    C5632996   0.912   6.449   5.585 -0.5510  0.3895  0.1157
  271MOL   Cl5732997   0.780   6.339   5.571 -0.0253  0.0140 -0.1060
  271MOL   Cl5832998   1.021   6.416   5.454 -0.2607  0.2935 -0.2126
  271MOL    C5932999   0.857   6.594   5.588 -0.9944  0.2809  0.0737
  271MOL    H6033000   0.773   6.588   5.656 -0.5348  0.3528  0.6584
  271MOL    H6133001   0.933   6.655   5.639 -1.3734 -0.2157  1.2560
  271MOL    C6233002   0.811   6.660   5.453  0.2962  0.0262  0.6641
  271MOL   Cl6333003   0.720   6.543   5.346 -0.0195  0.0691  0.6592
  271MOL   Cl6433004   0.960   6.715   5.381  0.1491  0.2612  0.6101
  271MOL    C6533005   0.726   6.785   5.467 -0.3810 -0.5817  1.1141
  271MOL    H6633006   0.795   6.868   5.477  0.2604 -0.6922 -1.8350
  271MOL    H6733007   0.680   6.792   5.368  1.6628 -0.4768  0.1509
  271MOL    C6833008   0.616   6.806   5.578 -0.8397 -0.1192  0.4467
  271MOL   Cl6933009   0.699   6.814   5.734  0.4452  0.0930 -0.2259
  271MOL   Cl7033010   0.500   6.674   5.586 -0.2255  0.2575  0.2748
  271MOL    C7133011   0.534   6.931   5.544 -0.5013  0.3799 -0.3465
  271MOL    H7233012   0.602   7.005   5.503 -0.6825 -0.1059 -1.5381
  271MOL    H7333013   0.476   6.905   5.455 -1.1655  1.4877 -0.2499
  271MOL    C7433014   0.458   7.008   5.653  0.1700 -0.3612 -0.7891
  271MOL   Cl7533015   0.571   7.097   5.768 -0.2347  0.1243 -0.1772
  271MOL   Cl7633016   0.372   6.897   5.755 -0.1149  0.1843  0.0099
  271MOL    C7733017   0.353   7.116   5.610 -0.0721 -0.1581 -0.2950
  271MOL    H7833018   0.268   7.064   5.566 -0.2674 -0.0845 -0.0024
  271MOL    H7933019   0.315   7.153   5.705  1.2024  2.3636 -0.7268
  271MOL    C8033020   0.390   7.219   5.508  0.0894  0.1571 -0.2736
  271MOL   Cl8133021   0.238   7.313   5.482 -0.4395 -0.1069  0.4177
  271MOL   Cl8233022   0.448   7.143   5.354 -0.4626 -0.0324  0.0191
  271MOL    C8333023   0.504   7.314   5.561  0.1071  0.4071  0.0924
  271MOL    H8433024   0.485   7.319   5.668  1.0632  1.3578  0.2321
  271MOL    H8533025   0.596   7.256   5.552 -0.2507 -0.2167  0.4935
  271MOL    C8633026   0.517   7.466   5.509  0.0851 -0.1998 -0.5637
  271MOL   Cl8733027   0.392   7.572   5.586  0.2820 -0.6491 -0.0437
  271MOL   Cl8833028   0.501   7.466   5.327  0.0110  0.2277  0.0540
  271MOL    C8933029   0.652   7.531   5.539 -0.0512  0.7582 -0.4001
  271MOL    H9033030   0.656   7.625   5.484  0.3904  1.6129  1.0738
  271MOL    H9133031   0.654   7.574   5.639  3.7177 -0.6350  0.2158
  271MOL    C9233032   0.791   7.458   5.520 -0.4375  0.4725  0.4300
  271MOL   Cl9333033   0.828   7.361   5.675 -0.2416 -0.4899 -0.2356
  271MOL   Cl9433034   0.904   7.595   5.514 -0.0263  0.1101  0.1651
  271MOL    C9533035   0.799   7.372   5.392 -0.2988 -0.7018 -0.7022
  271MOL    H9633036   0.710   7.310   5.384  0.0765 -1.7060  2.1300
  271MOL    H9733037   0.787   7.442   5.310  0.4063  0.8464  0.4964
  271MOL    C9833038   0.919   7.285   5.366 -0.3551 -0.0753  0.0201
  271MOL   Cl9933039   0.907   7.227   5.201  0.5327 -0.0751  0.2634
  271MOL  Cl10033040   0.913   7.149   5.476  0.2797 -0.0624  0.1297
  271MOL   C10133041   1.055   7.359   5.386  0.4382 -0.2269 -0.2977
  271MOL   H10233042   1.040   7.454   5.335 -2.1496 -0.6699 -0.3940
  271MOL   H10333043   1.066   7.380   5.492  0.3146 -1.6675  0.0148
  271MOL   C10433044   1.193   7.307   5.345  0.0838  0.7499 -0.0495
  271MOL  Cl10533045   1.187   7.334   5.171  0.0343 -0.2511  0.3268
  271MOL  Cl10633046   1.229   7.129   5.392 -0.0936  0.1140  0.1548
  271MOL   C10733047   1.305   7.401   5.406  0.1153  0.0962 -0.0587
  271MOL   H10833048   1.298   7.500   5.359  1.5430  1.6894  2.9224
  271MOL   H10933049   1.295   7.413   5.514  2.6556  1.0533  0.1187
  271MOL   C11033050   1.461   7.375   5.387 -0.0152  0.0794 -1.0223
  271MOL  Cl11133051   1.507   7.237   5.497 -0.1923  0.1648  0.4677
  271MOL  Cl11233052   1.549   7.519   5.436 -0.3813 -0.1970  0.1908
  271MOL   C11333053   1.502   7.322   5.244 -0.2375  0.2210 -0.5480
  271MOL   H11433054   1.463   7.221   5.231  0.6067 -0.5549  2.4846
  271MOL   H11533055   1.443   7.372   5.168  0.1007 -0.2829 -1.1536
  271MOL   C11633056   1.652   7.332   5.193  0.4961  0.3252 -0.3790
  271MOL  Cl11733057   1.716   7.506   5.176  0.2586  0.2195  0.1625
  271MOL  Cl11833058   1.644   7.258   5.040 -0.4716  0.1286 -0.0560
  271MOL   C11933059   1.761   7.260   5.283 -0.1824 -0.1270  0.2358
  271MOL   H12033060   1.779   7.321   5.372  1.7034  1.9865 -1.5067
  271MOL   H12133061   1.736   7.157   5.305 -2.1737  0.8532  2.7681
  271MOL   H12233062   1.850   7.264   5.219  0.5756  0.2802  1.3037
  272MOL     C133063   5.750   3.486   7.846  0.0999  0.8476  0.4500
  272MOL    Cl233064   5.597   3.433   7.772  0.3212  0.1802  0.0489
  272MOL    Cl333065   5.735   3.631   7.948 -0.0589  0.1140  0.1273
  272MOL     C433066   5.807   3.365   7.920 -0.6196  0.7948  0.2343
  272MOL     H533067   5.858   3.419   8.000  0.7322  1.4788 -1.0532
  272MOL     H633068   5.738   3.296   7.968 -0.4224  1.5119  1.5786
  272MOL     H733069   5.817   3.519   7.766  0.1797  2.3209  1.1076
  272MOL     C833070   5.919   3.274   7.860  0.7375 -0.4043  0.0031
  272MOL    Cl933071   6.054   3.365   7.777  0.0845 -0.0952  0.6183
  272MOL   Cl1033072   5.841   3.189   7.728  0.2339 -0.0727  0.0669
  272MOL    C1133073   5.984   3.165   7.958 -0.0115 -0.4181  0.2819
  272MOL    H1233074   5.913   3.084   7.978 -0.0535 -1.2160 -2.7688
  272MOL    H1333075   6.069   3.123   7.904  2.3415  2.5818  1.5340
  272MOL    C1433076   6.035   3.207   8.095  0.5784  0.7409  0.2165
  272MOL   Cl1533077   5.900   3.213   8.207  0.3858  0.2343  0.0442
  272MOL   Cl1633078   6.098   3.382   8.090  0.1200  0.0563  0.3144
  272MOL    C1733079   6.157   3.120   8.148  0.3932  0.6793  0.7508
  272MOL    H1833080   6.236   3.135   8.075 -0.2017 -0.6556 -0.1886
  272MOL    H1933081   6.189   3.155   8.246  0.4002  4.1779 -0.4482
  272MOL    C2033082   6.141   2.959   8.159  0.0011  0.3896 -0.0060
  272MOL   Cl2133083   6.195   2.879   8.004 -0.3137 -0.3103  0.0282
  272MOL   Cl2233084   5.974   2.909   8.181  0.0269  0.1068  0.5525
  272MOL    C2333085   6.218   2.893   8.273 -0.7136 -0.1684  0.3700
  272MOL    H2433086   6.180   2.933   8.367 -0.2832 -0.6245  0.7423
  272MOL    H2533087   6.199   2.785   8.272  0.7477 -0.4342  0.5255
  272MOL    C2633088   6.372   2.892   8.285  0.4229 -0.0883  0.3496
  272MOL   Cl2733089   6.391   2.819   8.449 -0.5454  0.1598  0.2328
  272MOL   Cl2833090   6.440   3.060   8.287 -0.0273  0.2439  0.1550
  272MOL    C2933091   6.445   2.802   8.181 -0.9288  0.9385  0.6913
  272MOL    H3033092   6.372   2.724   8.161  1.2222 -1.0431  0.4247
  272MOL    H3133093   6.446   2.859   8.088 -0.1935 -0.0209  0.1107
  272MOL    C3233094   6.586   2.735   8.207 -0.2257  0.2079 -0.4465
  272MOL   Cl3333095   6.547   2.582   8.294  0.4646  0.1041  0.3413
  272MOL   Cl3433096   6.686   2.844   8.307  0.0747  0.3298 -0.1734
  272MOL    C3533097   6.663   2.704   8.074 -0.0007 -0.1830  0.5319
  272MOL    H3633098   6.691   2.800   8.030  0.5861  0.1358  1.5833
  272MOL    H3733099   6.755   2.655   8.104  1.5397  0.8148 -2.3974
  272MOL    C3833100   6.604   2.613   7.956 -0.2591 -0.0743  0.1243
  272MOL   Cl3933101   6.446   2.680   7.898  0.0229 -0.2406  0.1683
  272MOL   Cl4033102   6.587   2.443   8.004  0.2836 -0.1045  0.1992
  272MOL    C4133103   6.709   2.609   7.842  0.4624  0.1486 -0.8372
  272MOL    H4233104   6.669   2.543   7.765  2.9728  0.5683 -2.5683
  272MOL    H4333105   6.708   2.708   7.795  0.3293  0.6352  0.1803
  272MOL    C4433106   6.863   2.589   7.870 -0.3187 -0.5438  0.1868
  272MOL   Cl4533107   6.894   2.448   7.981  0.1746 -0.1615  0.4711
  272MOL   Cl4633108   6.941   2.736   7.939 -0.0049  0.2290  0.1727
  272MOL    C4733109   6.934   2.555   7.739  0.1247  0.1524 -0.4870
  272MOL    H4833110   6.911   2.455   7.702  1.2055 -0.0988 -0.5045
  272MOL    H4933111   6.878   2.610   7.663 -1.5843  0.5661  1.0525
  272MOL    C5033112   7.083   2.590   7.702 -0.6443  0.4852  0.0083
  272MOL   Cl5133113   7.104   2.767   7.670 -0.4016  0.0020 -0.0844
  272MOL   Cl5233114   7.103   2.510   7.542 -0.5755 -0.1061  0.1564
  272MOL    C5333115   7.180   2.526   7.806 -0.6375  0.6646  0.3773
  272MOL    H5433116   7.149   2.567   7.903 -2.4015 -2.4011  1.2049
  272MOL    H5533117   7.149   2.421   7.814  0.8529  0.0810 -1.2949
  272MOL    C5633118   7.336   2.516   7.775  0.5226 -0.2105 -0.0906
  272MOL   Cl5733119   7.379   2.415   7.636 -0.2330  0.0909 -0.3181
  272MOL   Cl5833120   7.398   2.441   7.922 -0.6678  0.0308 -0.4854
  272MOL    C5933121   7.419   2.658   7.762 -0.6447 -0.3962  0.0837
  272MOL    H6033122   7.519   2.660   7.720 -0.5665  5.6489  0.0668
  272MOL    H6133123   7.367   2.701   7.677 -0.3232  1.4861  0.8106
  272MOL    C6233124   7.426   2.773   7.872 -0.0195  0.0720  0.1069
  272MOL   Cl6333125   7.278   2.781   7.968  0.0196 -0.0020  0.2685
  272MOL   Cl6433126   7.445   2.923   7.790 -0.2799  0.0531  0.1513
  272MOL    C6533127   7.539   2.754   7.989  0.2639 -0.1940 -0.2508
  272MOL    H6633128   7.536   2.845   8.050 -2.6576  0.5316 -1.4147
  272MOL    H6733129   7.510   2.681   8.065 -1.5870  0.3991 -0.3616
  272MOL    C6833130   7.690   2.714   7.949  0.3426  0.0407  0.3914
  272MOL   Cl6933131   7.689   2.547   7.880  0.0344 -0.1554  0.2255
  272MOL   Cl7033132   7.786   2.702   8.096 -0.0923  0.0699  0.3313
  272MOL    C7133133   7.764   2.816   7.859  0.7145 -0.0334  0.4616
  272MOL    H7233134   7.704   2.823   7.768  0.1410 -0.1191  0.8319
  272MOL    H7333135   7.741   2.916   7.897 -0.1231 -0.9319  2.3940
  272MOL    C7433136   7.917   2.825   7.817 -0.3424  0.6087  0.5912
  272MOL   Cl7533137   7.910   2.959   7.704 -0.4179 -0.1586  0.4237
  272MOL   Cl7633138   7.958   2.669   7.727  0.1577 -0.1753  0.2086
  272MOL    C7733139   8.016   2.851   7.936 -0.2429  0.1466 -0.0641
  272MOL    H7833140   8.023   2.958   7.954  1.9060 -0.0001  0.0004
  272MOL    H7933141   7.978   2.815   8.031  0.3679 -0.2058  0.0490
  272MOL    C8033142   8.156   2.803   7.933 -0.0106  0.6163  0.0569
  272MOL   Cl8133143   8.235   2.841   7.784 -0.0280 -0.2977  0.1201
  272MOL   Cl8233144   8.160   2.631   7.964  0.2086  0.3104 -0.3506
  272MOL    C8333145   8.245   2.848   8.058  0.3443  0.6914  0.4064
  272MOL    H8433146   8.213   2.790   8.144 -1.4622 -0.7082 -1.1782
  272MOL    H8533147   8.348   2.817   8.045  0.5169  0.0457  3.0200
  272MOL    C8633148   8.252   2.988   8.110 -0.1918  0.4577  0.0816
  272MOL   Cl8733149   8.370   2.969   8.248  0.3135 -0.1309  0.2699
  272MOL   Cl8833150   8.090   3.034   8.176 -0.0622  0.0464 -0.2132
  272MOL    C8933151   8.305   3.087   8.004  0.3103  0.0514  0.6550
  272MOL    H9033152   8.409   3.062   7.984 -0.3918 -0.0296 -3.2794
  272MOL    H9133153   8.265   3.072   7.904  0.8532  1.3761  0.2294
  272MOL    C9233154   8.302   3.242   8.029 -0.4966  0.2959  0.0018
  272MOL   Cl9333155   8.324   3.298   8.194 -0.4363  0.0382 -0.1817
  272MOL   Cl9433156   8.144   3.299   7.983  0.3274 -0.4781 -0.3222
  272MOL    C9533157   8.406   3.327   7.949 -0.1722 -0.1105 -0.0480
  272MOL    H9633158   8.366   3.427   7.964 -2.7700 -0.7841 -2.1728
  272MOL    H9733159   8.499   3.317   8.004 -0.7726 -2.0158  0.6871
  272MOL    C9833160   8.434   3.317   7.792 -0.3551  0.3187 -0.0795
  272MOL   Cl9933161   8.285   3.318   7.701  0.0519  0.2322  0.1194
  272MOL  Cl10033162   8.520   3.166   7.748 -0.6394  0.1426  0.2282
  272MOL   C10133163   8.522   3.430   7.737 -0.2618  0.7450 -0.6743
  272MOL   H10233164   8.543   3.403   7.633  0.0330 -0.3299 -0.3418
  272MOL   H10333165   8.452   3.514   7.733 -2.8828 -1.3230  0.1272
  272MOL   C10433166   8.665   3.457   7.813  0.4787  0.4966 -0.2472
  272MOL  Cl10533167   8.757   3.312   7.859  0.2159  0.3488 -0.0145
  272MOL  Cl10633168   8.637   3.550   7.962 -0.2593  0.4299 -0.0158
  272MOL   C10733169   8.769   3.532   7.719  0.3546  0.3837 -0.6338
  272MOL   H10833170   8.865   3.533   7.770  0.3827  0.9054 -0.7034
  272MOL   H10933171   8.778   3.458   7.639  1.0479 -0.4220  0.1625
  272MOL   C11033172   8.747   3.672   7.650  0.5534  0.2302 -0.1359
  272MOL  Cl11133173   8.597   3.660   7.558 -0.2407  0.1074  0.1735
  272MOL  Cl11233174   8.889   3.693   7.548  0.1671  0.1586  0.1524
  272MOL   C11333175   8.725   3.797   7.745 -0.6083  0.4736  0.0155
  272MOL   H11433176   8.632   3.786   7.800  0.9709 -0.5470  2.6076
  272MOL   H11533177   8.798   3.774   7.823 -0.1382  2.0873  0.0812
  272MOL   C11633178   8.737   3.941   7.691 -0.9695  0.2375 -0.1789
  272MOL  Cl11733179   8.915   3.977   7.688  0.2331  0.4022 -0.3480
  272MOL  Cl11833180   8.679   4.056   7.809  0.0289 -0.3624  0.0664
  272MOL   C11933181   8.668   3.964   7.560  0.1780  0.5132 -0.0248
  272MOL   H12033182   8.679   4.070   7.538 -0.6570  0.3297 -1.4105
  272MOL   H12133183   8.722   3.917   7.479  1.9138 -1.2302  2.0836
  272MOL   H12233184   8.565   3.928   7.553  0.5253 -0.9758  1.8854
  273MOL     C133185   4.706   0.263   2.894 -0.6183 -0.0473 -0.2513
  273MOL    Cl233186   4.576   0.143   2.903 -0.2095  0.3504  0.0683
  273MOL    Cl333187   4.629   0.424   2.888 -0.4386 -0.1900  0.4268
  273MOL     C433188   4.806   0.242   3.008  0.8096 -0.2399 -0.1445
  273MOL     H533189   4.852   0.340   3.023  0.9438 -0.4579  0.9234
  273MOL     H633190   4.746   0.240   3.099  1.6773 -0.2136  0.4424
  273MOL     H733191   4.757   0.246   2.799  0.3750 -1.9198  0.6037
  273MOL     C833192   4.916   0.130   3.006 -0.3584 -0.1697  0.1519
  273MOL    Cl933193   4.986   0.119   2.839  0.1355 -0.1343  0.0076
  273MOL   Cl1033194   4.837   9.150   3.031  0.0393  0.1759 -0.1922
  273MOL    C1133195   5.024   0.154   3.112 -0.1511  0.0092 -0.5345
  273MOL    H1233196   5.079   0.245   3.086 -0.1780  0.0613 -0.4083
  273MOL    H1333197   4.971   0.178   3.204 -0.1253 -0.7767 -0.3064
  273MOL    C1433198   5.126   0.046   3.160 -0.4096 -0.0223 -0.2545
  273MOL   Cl1533199   5.212   9.160   3.026 -0.1914  0.2072 -0.4654
  273MOL   Cl1633200   5.054   9.079   3.225  0.0914  0.0518  0.0998
  273MOL    C1733201   5.227   0.100   3.266  0.3448 -0.3447 -0.2776
  273MOL    H1833202   5.172   0.172   3.326  1.9313 -1.4636  2.6250
  273MOL    H1933203   5.261   0.021   3.333 -0.6536  0.6001  1.3480
  273MOL    C2033204   5.358   0.164   3.225  0.2035 -0.2508 -0.4589
  273MOL   Cl2133205   5.405   0.267   3.364  0.2307  0.5896  0.2679
  273MOL   Cl2233206   5.351   0.275   3.081 -0.1221  0.4999 -0.2980
  273MOL    C2333207   5.468   0.057   3.213  0.3654 -0.5551  0.2709
  273MOL    H2433208   5.515   0.052   3.312  0.3132  2.3750  0.4778
  273MOL    H2533209   5.418   9.142   3.199  0.2281 -0.5872  0.9827
  273MOL    C2633210   5.591   0.066   3.111  0.3594 -0.4349  0.0279
  273MOL   Cl2733211   5.677   0.224   3.140 -0.5561  0.0476 -0.0079
  273MOL   Cl2833212   5.545   0.058   2.942 -0.3498 -0.0609  0.0359
  273MOL    C2933213   5.697   9.120   3.135 -0.4331  0.2511  0.7652
  273MOL    H3033214   5.766   9.130   3.052  0.3461  0.8172  1.4741
  273MOL    H3133215   5.748   9.161   3.222  1.2434 -0.2450  0.0365
  273MOL    C3233216   5.648   8.971   3.152  0.5981 -1.0816 -0.2192
  273MOL   Cl3333217   5.554   8.950   3.302  0.0415 -0.1234  0.3274
  273MOL   Cl3433218   5.796   8.878   3.188 -0.1329 -0.1569  0.1271
  273MOL    C3533219   5.560   8.914   3.037 -0.0746  0.0320 -0.2163
  273MOL    H3633220   5.511   8.829   3.084 -2.8297  0.4596 -2.2563
  273MOL    H3733221   5.486   8.991   3.019  1.3882  1.8829  1.3853
  273MOL    C3833222   5.619   8.860   2.903  0.5425  0.0651 -0.1265
  273MOL   Cl3933223   5.716   8.717   2.934 -0.4376 -0.3140  0.2908
  273MOL   Cl4033224   5.718   8.984   2.833 -0.3255 -0.4480  0.3297
  273MOL    C4133225   5.507   8.806   2.811  0.5197 -0.1186 -0.2714
  273MOL    H4233226   5.455   8.722   2.857  1.8150 -0.3298  0.8057
  273MOL    H4333227   5.427   8.881   2.807  1.0878  0.4365 -1.3976
  273MOL    C4433228   5.530   8.774   2.661 -0.1373  1.1737  0.9714
  273MOL   Cl4533229   5.506   8.930   2.573  0.1867 -0.0262 -0.1155
  273MOL   Cl4633230   5.404   8.660   2.605 -0.3814  0.1292  0.0381
  273MOL    C4733231   5.676   8.716   2.627 -0.0493 -0.1165 -0.2251
  273MOL    H4833232   5.746   8.783   2.677  0.3377 -0.5498 -0.1949
  273MOL    H4933233   5.688   8.621   2.678  0.2265  0.1511  0.2158
  273MOL    C5033234   5.725   8.691   2.480  0.5569 -0.6042 -0.2525
  273MOL   Cl5133235   5.724   8.836   2.378 -0.1583  0.1765  0.0529
  273MOL   Cl5233236   5.621   8.587   2.388 -0.4785  0.0320 -0.1419
  273MOL    C5333237   5.863   8.619   2.467  0.0231  0.0396 -0.2752
  273MOL    H5433238   5.857   8.517   2.504  0.4837  0.3808  0.7715
  273MOL    H5533239   5.879   8.613   2.360 -1.0246  0.4919 -0.4695
  273MOL    C5633240   5.986   8.679   2.539  0.5892  0.3052  0.0028
  273MOL   Cl5733241   5.954   8.660   2.722 -0.3215 -0.2010  0.5892
  273MOL   Cl5833242   6.022   8.851   2.505 -0.0121  0.0313  0.0364
  273MOL    C5933243   6.114   8.598   2.505 -0.8031 -0.4593 -0.1816
  273MOL    H6033244   6.202   8.639   2.556  0.3306  0.0216 -2.4744
  273MOL    H6133245   6.101   8.509   2.567 -3.1542 -1.1247 -1.5895
  273MOL    C6233246   6.165   8.574   2.361  0.7769  0.5956  0.2146
  273MOL   Cl6333247   6.118   8.707   2.248  0.1038 -0.0092  0.1587
  273MOL   Cl6433248   6.070   8.441   2.303  0.3436 -0.1844  0.1231
  273MOL    C6533249   6.323   8.554   2.356  0.4513 -0.5615  0.2461
  273MOL    H6633250   6.359   8.558   2.253 -0.1082  0.4654  0.0941
  273MOL    H6733251   6.361   8.632   2.421 -1.5718  0.6708 -0.0259
  273MOL    C6833252   6.391   8.415   2.405 -0.0938  0.6371 -0.1089
  273MOL   Cl6933253   6.369   8.293   2.269 -0.1635  0.0906 -0.4775
  273MOL   Cl7033254   6.318   8.365   2.560 -0.1377  0.2191 -0.0740
  273MOL    C7133255   6.540   8.442   2.447  0.0281 -0.2090  0.1461
  273MOL    H7233256   6.542   8.525   2.517 -1.3524  1.4180 -1.7045
  273MOL    H7333257   6.569   8.357   2.509  0.7471  1.5241  2.2233
  273MOL    C7433258   6.659   8.482   2.349 -0.0098  0.6597  0.4054
  273MOL   Cl7533259   6.621   8.621   2.250 -0.4411 -0.3244  0.8208
  273MOL   Cl7633260   6.692   8.339   2.248 -0.1931  0.2804 -0.6645
  273MOL    C7733261   6.784   8.524   2.428 -0.0019  1.0101  0.8675
  273MOL    H7833262   6.861   8.548   2.354 -1.3667  1.6725 -0.3695
  273MOL    H7933263   6.765   8.624   2.468 -0.6374  1.2859 -0.0996
  273MOL    C8033264   6.841   8.443   2.548 -0.2605  0.7275  0.4181
  273MOL   Cl8133265   6.835   8.264   2.523  0.1841  0.5412  0.0789
  273MOL   Cl8233266   6.736   8.483   2.690  0.0792  0.2457 -0.0103
  273MOL    C8333267   6.983   8.483   2.580  0.3675  0.0510  0.0937
  273MOL    H8433268   7.038   8.454   2.491 -0.8890  1.2107 -1.0850
  273MOL    H8533269   6.993   8.591   2.570 -3.4339  0.3242 -1.9022
  273MOL    C8633270   7.073   8.439   2.695 -0.2986  0.1398  0.1899
  273MOL   Cl8733271   7.009   8.535   2.832  0.0107 -0.3120 -0.1192
  273MOL   Cl8833272   7.232   8.504   2.661 -0.2247  0.2155  0.2460
  273MOL    C8933273   7.071   8.285   2.720  0.3607 -0.0629 -0.2204
  273MOL    H9033274   6.977   8.253   2.764 -0.6663  2.0582 -0.7843
  273MOL    H9133275   7.073   8.243   2.619 -3.6204 -2.2098  0.5043
  273MOL    C9233276   7.187   8.235   2.804 -0.1535  0.3003 -0.6783
  273MOL   Cl9333277   7.330   8.208   2.702  0.0415  0.2496  0.0026
  273MOL   Cl9433278   7.152   8.075   2.855  0.0550 -0.1538 -0.2330
  273MOL    C9533279   7.233   8.321   2.925  0.4090 -0.7973 -0.0184
  273MOL    H9633280   7.279   8.416   2.898 -0.2269 -0.7256 -0.8723
  273MOL    H9733281   7.143   8.347   2.982  0.6781 -1.6337  0.7903
  273MOL    C9833282   7.335   8.259   3.027  1.0453 -0.8045  0.1070
  273MOL   Cl9933283   7.257   8.144   3.132 -0.1610  0.0737  0.3774
  273MOL  Cl10033284   7.386   8.394   3.134  0.1670 -0.3299 -0.3419
  273MOL   C10133285   7.476   8.198   2.980 -0.1112 -0.6944 -0.2426
  273MOL   H10233286   7.457   8.131   2.896 -0.4428  0.6009 -1.2171
  273MOL   H10333287   7.522   8.284   2.931  0.5637 -0.8384  0.1402
  273MOL   C10433288   7.581   8.129   3.076  0.5647 -0.2989  0.5231
  273MOL  Cl10533289   7.527   7.965   3.096  0.2982  0.0879  0.2566
  273MOL  Cl10633290   7.594   8.206   3.238  0.0676 -0.0082 -0.3635
  273MOL   C10733291   7.724   8.110   3.011  0.2591 -0.5388  0.1465
  273MOL   H10833292   7.772   8.027   3.063  2.2068 -0.1541 -0.9775
  273MOL   H10933293   7.713   8.090   2.904 -1.0273 -1.6155  0.4657
  273MOL   C11033294   7.831   8.230   3.024  1.0276  0.7042  0.7078
  273MOL  Cl11133295   7.742   8.386   2.973  0.0879  0.0140 -0.3703
  273MOL  Cl11233296   7.959   8.189   2.900  0.2799  0.0410 -0.0343
  273MOL   C11333297   7.904   8.241   3.162 -0.1498 -0.3159 -0.5847
  273MOL   H11433298   7.845   8.210   3.249  1.6406 -1.3758  0.2910
  273MOL   H11533299   7.977   8.159   3.165  0.3110  0.1265  2.1844
  273MOL   C11633300   7.965   8.373   3.208 -0.6556  0.3615 -0.1685
  273MOL  Cl11733301   8.048   8.328   3.357 -0.4975 -0.4633 -0.1364
  273MOL  Cl11833302   7.838   8.498   3.241 -0.6446  0.0880  0.0526
  273MOL   C11933303   8.076   8.442   3.122  0.4849  0.2046 -0.1325
  273MOL   H12033304   8.095   8.545   3.151  0.8737  1.0123 -3.1496
  273MOL   H12133305   8.174   8.395   3.133  1.5314  1.9517 -1.7259
  273MOL   H12233306   8.043   8.445   3.019 -0.0389 -1.8843 -0.0535
  274MOL     C133307   1.663   8.600   2.620 -0.6998  0.2207  0.3113
  274MOL    Cl233308   1.534   8.524   2.722 -0.1179  0.0552  0.0892
  274MOL    Cl333309   1.593   8.722   2.516 -0.0064  0.1348  0.0082
  274MOL     C433310   1.786   8.646   2.707  0.5086  0.2842 -0.3079
  274MOL     H533311   1.854   8.700   2.641  0.0944 -1.5355 -2.2612
  274MOL     H633312   1.742   8.719   2.775  0.7725 -1.2073  1.4919
  274MOL     H733313   1.690   8.518   2.553  0.3632 -0.7871  1.9395
  274MOL     C833314   1.884   8.537   2.763  0.0906 -0.1844  0.1327
  274MOL    Cl933315   1.949   8.441   2.617 -0.0967 -0.0874 -0.1139
  274MOL   Cl1033316   1.805   8.430   2.875  0.3008  0.1997 -0.1682
  274MOL    C1133317   2.010   8.597   2.839  0.5271 -0.8163 -0.0741
  274MOL    H1233318   2.067   8.511   2.873  3.0706  0.8317 -0.0166
  274MOL    H1333319   2.083   8.634   2.765 -0.7202 -0.0479 -0.9370
  274MOL    C1433320   1.994   8.709   2.951  0.6375 -0.1750 -0.0334
  274MOL   Cl1533321   1.853   8.678   3.057  0.0900 -0.0598 -0.0394
  274MOL   Cl1633322   1.958   8.867   2.871 -0.3851 -0.1923  0.5540
  274MOL    C1733323   2.126   8.724   3.036  0.2910 -0.4936  0.8072
  274MOL    H1833324   2.189   8.799   2.988 -2.5649  0.3844 -1.7623
  274MOL    H1933325   2.107   8.788   3.123 -3.5483  3.0791 -2.3919
  274MOL    C2033326   2.205   8.605   3.099  0.0240  1.1059 -0.4095
  274MOL   Cl2133327   2.335   8.570   2.984 -0.0087 -0.0114  0.2503
  274MOL   Cl2233328   2.091   8.462   3.129 -0.1475  0.2817  0.1985
  274MOL    C2333329   2.287   8.636   3.229 -0.0482 -0.2919 -0.6544
  274MOL    H2433330   2.382   8.583   3.235  0.2956  0.4937  1.1280
  274MOL    H2533331   2.315   8.739   3.206  1.7516  0.0351  2.6676
  274MOL    C2633332   2.230   8.637   3.368 -0.2077  0.1451 -0.4419
  274MOL   Cl2733333   2.272   8.473   3.427  0.0522  0.2844 -0.0802
  274MOL   Cl2833334   2.049   8.669   3.365  0.1269 -0.1557 -0.3606
  274MOL    C2933335   2.313   8.730   3.458  0.2580  0.0606  0.0577
  274MOL    H3033336   2.419   8.704   3.463  0.7020  1.4490 -1.6202
  274MOL    H3133337   2.320   8.831   3.418  1.0653 -0.9229 -2.3274
  274MOL    C3233338   2.276   8.770   3.605  0.3255 -0.7115 -0.1994
  274MOL   Cl3333339   2.208   8.634   3.693  0.3037 -0.1823  0.1252
  274MOL   Cl3433340   2.145   8.892   3.611 -0.2125  0.0134  0.3021
  274MOL    C3533341   2.388   8.819   3.706  0.2996 -0.1844 -0.0021
  274MOL    H3633342   2.345   8.833   3.805  1.8385  0.7080  0.5553
  274MOL    H3733343   2.453   8.734   3.725 -0.1481 -0.0813  2.1332
  274MOL    C3833344   2.478   8.945   3.681 -0.5594 -0.3587  0.2183
  274MOL   Cl3933345   2.372   9.091   3.678 -0.0154  0.2183  0.4523
  274MOL   Cl4033346   2.572   8.923   3.522  0.2315  0.3577 -0.0938
  274MOL    C4133347   2.577   8.962   3.805 -0.3526 -0.3526 -0.7865
  274MOL    H4233348   2.543   8.923   3.901 -0.2889  1.2360 -0.1145
  274MOL    H4333349   2.660   8.899   3.771  1.3766  2.7818 -2.6114
  274MOL    C4433350   2.645   9.099   3.843  0.4367 -0.2775 -0.3042
  274MOL   Cl4533351   2.537   0.015   3.940 -0.0954 -0.1733  0.0360
  274MOL   Cl4633352   2.683   0.009   3.692  0.0662  0.4056  0.1189
  274MOL    C4733353   2.778   9.085   3.917  0.2148  0.3052  0.9168
  274MOL    H4833354   2.855   9.059   3.845 -0.2182  2.6525 -0.4413
  274MOL    H4933355   2.799   0.005   3.954  0.3098  0.3374  0.7738
  274MOL    C5033356   2.795   8.977   4.037  0.3587 -0.2306  0.4972
  274MOL   Cl5133357   2.794   8.808   3.974 -0.1546  0.0372  0.2395
  274MOL   Cl5233358   2.672   8.993   4.164 -0.3088  0.2095 -0.1891
  274MOL    C5333359   2.926   8.999   4.103 -0.5604 -0.4490 -0.1234
  274MOL    H5433360   2.941   8.930   4.186 -1.9348 -0.4477  0.1358
  274MOL    H5533361   2.985   8.977   4.014 -0.4980  0.1425 -0.2273
  274MOL    C5633362   2.978   9.145   4.147  0.6039  0.3820 -0.6521
  274MOL   Cl5733363   2.846   0.065   4.207 -0.0158 -0.4343 -0.0901
  274MOL   Cl5833364   3.046   0.058   4.006  0.1129  0.3542  0.4211
  274MOL    C5933365   3.080   9.150   4.271 -0.5563 -0.2136 -0.6373
  274MOL    H6033366   3.120   0.070   4.280 -1.4317  0.2182 -1.4083
  274MOL    H6133367   3.033   9.137   4.368  0.0080 -1.5873 -0.5441
  274MOL    C6233368   3.205   9.059   4.266  0.6307  0.5248  0.4723
  274MOL   Cl6333369   3.282   9.032   4.109 -0.3274 -0.3085  0.2744
  274MOL   Cl6433370   3.156   8.895   4.319  0.1372 -0.2103  0.5129
  274MOL    C6533371   3.309   9.121   4.370  0.3683 -0.1534 -0.0111
  274MOL    H6633372   3.329   0.040   4.330  2.2014 -0.8663 -0.9105
  274MOL    H6733373   3.260   9.141   4.466 -1.2701 -3.2720 -0.1400
  274MOL    C6833374   3.441   9.051   4.407 -0.2231  0.0790 -0.1411
  274MOL   Cl6933375   3.517   9.169   4.511  0.2160 -0.0230 -0.0945
  274MOL   Cl7033376   3.552   9.039   4.277 -0.0634 -0.1067  0.1593
  274MOL    C7133377   3.418   8.915   4.484 -0.5572 -0.3016 -0.5159
  274MOL    H7233378   3.330   8.926   4.548 -0.7457  3.2018 -1.2434
  274MOL    H7333379   3.407   8.842   4.404 -2.6717 -0.2715 -0.2804
  274MOL    C7433380   3.520   8.838   4.577  0.0556 -0.6472  0.4876
  274MOL   Cl7533381   3.434   8.692   4.634 -0.1969  0.0531  0.1374
  274MOL   Cl7633382   3.548   8.940   4.723 -0.1300  0.0657  0.1378
  274MOL    C7733383   3.657   8.809   4.504 -0.0469 -0.1771  0.5796
  274MOL    H7833384   3.650   8.787   4.397  1.4285  2.3551 -0.0772
  274MOL    H7933385   3.705   8.907   4.503 -1.2537  0.4213 -0.1164
  274MOL    C8033386   3.762   8.715   4.561 -0.7943  0.4407 -0.6734
  274MOL   Cl8133387   3.717   8.547   4.541 -0.0346  0.0191  0.1539
  274MOL   Cl8233388   3.775   8.728   4.739 -0.2562  0.0549  0.1062
  274MOL    C8333389   3.912   8.729   4.508 -0.3548 -0.5698  0.0065
  274MOL    H8433390   3.953   8.805   4.574  0.5208 -1.7653  0.8800
  274MOL    H8533391   3.964   8.637   4.538 -1.2938 -0.9496  0.4843
  274MOL    C8633392   3.943   8.743   4.353 -0.1719  0.5581 -0.2809
  274MOL   Cl8733393   3.870   8.892   4.298 -0.2278  0.1750 -0.0409
  274MOL   Cl8833394   3.866   8.619   4.255  0.0082 -0.1243 -0.0988
  274MOL    C8933395   4.094   8.757   4.316  0.5245  0.2380 -0.8670
  274MOL    H9033396   4.102   8.775   4.209 -1.6072 -0.4523 -1.1521
  274MOL    H9133397   4.129   8.853   4.354  0.4134  0.7683 -2.0655
  274MOL    C9233398   4.196   8.647   4.354 -0.3946 -0.4479  0.1848
  274MOL   Cl9333399   4.213   8.626   4.532  0.2269  0.0885  0.1071
  274MOL   Cl9433400   4.351   8.715   4.295  0.0613 -0.1224 -0.2090
  274MOL    C9533401   4.177   8.511   4.279 -0.0911 -0.5560  0.3047
  274MOL    H9633402   4.077   8.472   4.300  0.0030 -0.8437  0.2237
  274MOL    H9733403   4.169   8.530   4.172 -0.2587  2.5547  0.8215
  274MOL    C9833404   4.265   8.381   4.284 -0.1954 -1.1945  0.9085
  274MOL   Cl9933405   4.430   8.419   4.221  0.0363 -0.4302 -0.1767
  274MOL  Cl10033406   4.210   8.247   4.172  0.3873 -0.1060 -0.2614
  274MOL   C10133407   4.303   8.324   4.422 -0.6965 -0.0184  0.6700
  274MOL   H10233408   4.392   8.263   4.414 -1.3249 -0.9056  0.4090
  274MOL   H10333409   4.338   8.411   4.477 -0.6688 -0.1857  0.9179
  274MOL   C10433410   4.194   8.255   4.514  0.1395 -0.0339 -0.5890
  274MOL  Cl10533411   4.161   8.091   4.442  0.0098 -0.5900  0.0297
  274MOL  Cl10633412   4.035   8.331   4.520 -0.2778 -0.2317 -0.0937
  274MOL   C10733413   4.247   8.235   4.662  0.4208  0.1132 -0.1487
  274MOL   H10833414   4.307   8.321   4.691  0.9508  0.0336 -0.9994
  274MOL   H10933415   4.155   8.231   4.720 -0.1997  1.9153 -0.9599
  274MOL   C11033416   4.323   8.107   4.704  0.9957 -0.1248  0.1664
  274MOL  Cl11133417   4.447   8.076   4.578 -0.4099  0.0936  0.1003
  274MOL  Cl11233418   4.218   7.962   4.712 -0.5545  0.1261  0.0111
  274MOL   C11333419   4.398   8.106   4.841  0.3045 -0.1478 -0.4008
  274MOL   H11433420   4.445   8.009   4.859 -0.8678 -0.7129 -0.3320
  274MOL   H11533421   4.480   8.177   4.826  0.0919  0.9560  3.0172
  274MOL   C11633422   4.314   8.142   4.972 -0.0004 -0.1751 -0.0248
  274MOL  Cl11733423   4.252   8.307   4.964  0.2982  0.4309  0.1770
  274MOL  Cl11833424   4.421   8.126   5.108 -0.1393 -0.1170  0.1674
  274MOL   C11933425   4.194   8.047   4.998 -0.0881 -0.1169  0.6145
  274MOL   H12033426   4.151   8.070   5.095  0.2064  0.6056  0.5781
  274MOL   H12133427   4.124   8.057   4.915  0.5289 -2.9520 -0.3068
  274MOL   H12233428   4.222   7.942   5.001  0.4943 -0.1306 -2.7711
  275MOL     C133429   2.965   5.496   2.753  0.5453  0.4657 -0.1293
  275MOL    Cl233430   3.078   5.498   2.615 -0.7088 -0.1811  0.3537
  275MOL    Cl333431   2.823   5.597   2.705 -0.1538 -0.0071 -0.3299
  275MOL     C433432   2.913   5.354   2.799 -0.7162  0.2614 -0.2748
  275MOL     H533433   2.849   5.379   2.884 -1.8675 -3.4479  0.0601
  275MOL     H633434   2.846   5.310   2.725  0.5010 -0.1436 -1.1342
  275MOL     H733435   3.026   5.549   2.827 -1.9255  2.4437  0.5456
  275MOL     C833436   3.023   5.245   2.838  0.4797  0.0391 -0.0610
  275MOL    Cl933437   3.087   5.181   2.679 -0.0176 -0.1144 -0.1358
  275MOL   Cl1033438   2.945   5.110   2.926  0.3366 -0.0870 -0.1472
  275MOL    C1133439   3.145   5.302   2.910 -0.1140 -0.2760  0.0069
  275MOL    H1233440   3.198   5.360   2.835  1.3397  0.5177  1.5930
  275MOL    H1333441   3.115   5.382   2.979  1.8126  2.0458 -1.7398
  275MOL    C1433442   3.249   5.207   2.984 -0.4440  0.3216  0.2519
  275MOL   Cl1533443   3.280   5.058   2.893 -0.1163  0.4266  0.0555
  275MOL   Cl1633444   3.170   5.153   3.133  0.0888 -0.1138  0.2927
  275MOL    C1733445   3.383   5.274   3.022 -0.1640  0.6966 -0.1227
  275MOL    H1833446   3.457   5.208   3.068  0.8890  1.1705 -1.1276
  275MOL    H1933447   3.431   5.278   2.925 -0.2663 -0.6375 -0.2386
  275MOL    C2033448   3.389   5.424   3.073 -0.3892  0.0552 -0.0184
  275MOL   Cl2133449   3.269   5.456   3.205 -0.2351 -0.3213 -0.2841
  275MOL   Cl2233450   3.358   5.536   2.940  0.1803 -0.4951  0.1191
  275MOL    C2333451   3.533   5.461   3.119  0.4807  0.4551 -0.1284
  275MOL    H2433452   3.598   5.438   3.035  2.0514  0.1282  1.1379
  275MOL    H2533453   3.536   5.570   3.116  1.3636  0.3843 -3.3244
  275MOL    C2633454   3.610   5.414   3.243 -0.0792 -0.0275  0.2721
  275MOL   Cl2733455   3.658   5.243   3.227 -0.1984 -0.4309  0.3672
  275MOL   Cl2833456   3.513   5.442   3.396 -0.0774  0.1322  0.4056
  275MOL    C2933457   3.741   5.490   3.273  0.6572  0.3975 -0.3090
  275MOL    H3033458   3.710   5.579   3.328 -0.9289 -0.7789  0.7773
  275MOL    H3133459   3.800   5.439   3.350 -0.1297  0.4361  0.3281
  275MOL    C3233460   3.826   5.541   3.154 -0.2425  0.4179 -0.1752
  275MOL   Cl3333461   3.756   5.673   3.060 -0.1844 -0.1582  0.3309
  275MOL   Cl3433462   3.853   5.395   3.044 -0.3891  0.3840 -0.2671
  275MOL    C3533463   3.960   5.584   3.216  0.0242  0.3381 -0.4408
  275MOL    H3633464   3.946   5.645   3.306 -2.2230 -0.9140  0.1144
  275MOL    H3733465   4.006   5.492   3.251  0.4054  0.5832 -0.2973
  275MOL    C3833466   4.052   5.672   3.135 -0.0688 -0.1388  0.1692
  275MOL   Cl3933467   4.183   5.696   3.238 -0.0823  0.7353 -0.2095
  275MOL   Cl4033468   3.993   5.839   3.112  0.2643 -0.1136  0.0734
  275MOL    C4133469   4.097   5.614   2.995  0.5066 -0.6340  0.1055
  275MOL    H4233470   4.132   5.514   3.019  0.3708 -0.8155 -0.4495
  275MOL    H4333471   4.007   5.613   2.934  1.1014  0.5544 -0.8214
  275MOL    C4433472   4.213   5.676   2.912 -0.6008  0.5657  0.3756
  275MOL   Cl4533473   4.211   5.581   2.762  0.2831  0.1360 -0.2240
  275MOL   Cl4633474   4.371   5.661   2.983  0.0580 -0.5035 -0.1242
  275MOL    C4733475   4.193   5.832   2.873  0.1210 -0.2686 -0.9053
  275MOL    H4833476   4.086   5.846   2.858  0.1391  1.4008  0.3291
  275MOL    H4933477   4.220   5.877   2.969 -1.7799 -1.6637  0.3122
  275MOL    C5033478   4.264   5.890   2.743  0.6923  0.0433  0.0817
  275MOL   Cl5133479   4.198   5.825   2.588  0.0588  0.2713 -0.2268
  275MOL   Cl5233480   4.436   5.849   2.740 -0.1550 -0.5473 -0.1908
  275MOL    C5333481   4.240   6.052   2.726 -0.1106  0.5865  0.0444
  275MOL    H5433482   4.294   6.090   2.640  0.5764 -1.5521 -0.4971
  275MOL    H5533483   4.135   6.065   2.701 -0.7175 -3.6435  0.0021
  275MOL    C5633484   4.249   6.143   2.857 -0.4508 -0.4021  0.0896
  275MOL   Cl5733485   4.401   6.091   2.944  0.4982 -0.2708 -0.2061
  275MOL   Cl5833486   4.103   6.127   2.954  0.1209  0.5933 -0.1019
  275MOL    C5933487   4.266   6.287   2.795  0.2291  0.0047 -0.4843
  275MOL    H6033488   4.350   6.275   2.727 -1.1359 -3.1969 -1.6908
  275MOL    H6133489   4.175   6.306   2.738 -0.3803 -2.8822 -0.5480
  275MOL    C6233490   4.300   6.397   2.885  0.4333  0.5694  0.0818
  275MOL   Cl6333491   4.477   6.391   2.931  0.2080 -0.0189  0.0032
  275MOL   Cl6433492   4.209   6.386   3.033  0.0104 -0.4362  0.3656
  275MOL    C6533493   4.273   6.536   2.827  0.0705 -0.0753  0.1868
  275MOL    H6633494   4.165   6.550   2.828  0.2030  1.5907 -2.7006
  275MOL    H6733495   4.318   6.606   2.897  1.3710 -0.8966  0.1904
  275MOL    C6833496   4.316   6.575   2.682 -1.2421 -0.7946 -0.0698
  275MOL   Cl6933497   4.240   6.489   2.550  0.3790  0.1283 -0.0212
  275MOL   Cl7033498   4.497   6.556   2.658  0.4240  0.1237  0.5003
  275MOL    C7133499   4.281   6.723   2.660  0.2008 -0.0544 -0.3691
  275MOL    H7233500   4.187   6.738   2.712 -0.2409 -0.2092 -1.1254
  275MOL    H7333501   4.346   6.781   2.726 -0.8995  1.2135 -0.3865
  275MOL    C7433502   4.282   6.789   2.526 -0.1558  0.1074  0.2241
  275MOL   Cl7533503   4.276   6.967   2.557  0.1409  0.3006 -0.0124
  275MOL   Cl7633504   4.123   6.745   2.444  0.0307 -0.7556 -0.4207
  275MOL    C7733505   4.393   6.759   2.418 -0.0420 -0.1548  1.0417
  275MOL    H7833506   4.405   6.650   2.416 -1.8688 -0.3764  1.4336
  275MOL    H7933507   4.340   6.792   2.329 -0.9354  0.5620  1.8331
  275MOL    C8033508   4.536   6.833   2.413 -0.7417 -0.4377 -0.0536
  275MOL   Cl8133509   4.648   6.731   2.312 -0.1145 -0.3459  0.3110
  275MOL   Cl8233510   4.605   6.847   2.576  0.3359 -0.1268  0.2926
  275MOL    C8333511   4.522   6.971   2.341 -0.5685 -0.1460 -0.4159
  275MOL    H8433512   4.471   6.951   2.246 -0.6148  0.5608 -0.5473
  275MOL    H8533513   4.447   7.034   2.389 -1.1478 -1.4617  0.4146
  275MOL    C8633514   4.658   7.058   2.299  0.0064  0.2545  0.1898
  275MOL   Cl8733515   4.590   7.194   2.208  0.0615 -0.3757  0.0621
  275MOL   Cl8833516   4.764   6.968   2.180  0.4357  0.1689 -0.2049
  275MOL    C8933517   4.750   7.118   2.410 -0.1401  0.6719 -0.6185
  275MOL    H9033518   4.770   7.031   2.473 -1.5247  1.0051  0.3001
  275MOL    H9133519   4.849   7.146   2.374  0.3049 -0.7552 -0.5464
  275MOL    C9233520   4.712   7.230   2.510  0.1113 -0.3372  0.0215
  275MOL   Cl9333521   4.559   7.186   2.596  0.3358  0.4394  0.0038
  275MOL   Cl9433522   4.680   7.386   2.435  0.4874 -0.3153  0.0702
  275MOL    C9533523   4.836   7.247   2.612 -0.2264  0.1257  0.0682
  275MOL    H9633524   4.841   7.151   2.662 -2.2647 -1.1221 -2.0081
  275MOL    H9733525   4.930   7.245   2.556 -0.8556  1.1396 -1.0642
  275MOL    C9833526   4.834   7.370   2.714 -0.7309 -0.5755  0.0462
  275MOL   Cl9933527   4.876   7.518   2.624  0.2899  0.0130  0.3242
  275MOL  Cl10033528   4.963   7.346   2.832 -0.1976 -0.1324 -0.2673
  275MOL   C10133529   4.701   7.387   2.796 -0.3390  0.2527  0.2205
  275MOL   H10233530   4.623   7.399   2.721 -1.9325  0.2250  1.8322
  275MOL   H10333531   4.678   7.293   2.845  0.0109 -0.2511 -0.5776
  275MOL   C10433532   4.692   7.489   2.916 -0.4400  0.3388  0.0260
  275MOL  Cl10533533   4.761   7.646   2.879 -0.2019  0.2412 -0.1135
  275MOL  Cl10633534   4.761   7.418   3.061 -0.2654 -0.3566 -0.2844
  275MOL   C10733535   4.545   7.525   2.961 -0.0984 -0.2510  0.0998
  275MOL   H10833536   4.567   7.607   3.029 -3.1619  0.6428  0.0827
  275MOL   H10933537   4.503   7.578   2.876 -0.4794 -0.4099  0.1885
  275MOL   C11033538   4.442   7.432   3.023  0.3586 -0.6100  0.5634
  275MOL  Cl11133539   4.486   7.406   3.193  0.0651 -0.2542 -0.2434
  275MOL  Cl11233540   4.430   7.270   2.939 -0.0038  0.4452  0.3812
  275MOL   C11333541   4.291   7.480   3.013 -0.1325  0.1139 -0.3558
  275MOL   H11433542   4.256   7.479   2.910 -0.9931 -0.2760 -0.0642
  275MOL   H11533543   4.232   7.409   3.071  2.3947 -0.9325  0.9781
  275MOL   C11633544   4.237   7.618   3.073 -0.1360 -0.1432 -0.3439
  275MOL  Cl11733545   4.344   7.758   3.035 -0.3770  0.1158  0.0498
  275MOL  Cl11833546   4.211   7.608   3.249  0.5258 -0.0562 -0.0520
  275MOL   C11933547   4.100   7.643   3.008  0.5088  0.4414 -0.3954
  275MOL   H12033548   4.031   7.564   3.037  0.3140  1.7651  2.9836
  275MOL   H12133549   4.066   7.742   3.037  0.6936  0.1528  0.8711
  275MOL   H12233550   4.100   7.633   2.900 -1.3053  1.9026 -0.5442
  276MOL     C133551   2.626   2.617   1.888  0.0031  1.0738 -0.0878
  276MOL    Cl233552   2.490   2.694   1.797  0.0544 -0.0057 -0.3741
  276MOL    Cl333553   2.554   2.469   1.971  0.1298  0.4382 -0.0030
  276MOL     C433554   2.738   2.556   1.790  0.1265 -0.1428 -0.4656
  276MOL     H533555   2.799   2.491   1.853  0.9764  0.6713 -0.4335
  276MOL     H633556   2.685   2.499   1.714  0.2907  0.5912 -1.1271
  276MOL     H733557   2.665   2.677   1.970  1.2447 -2.3337  1.8938
  276MOL     C833558   2.833   2.652   1.723 -1.0300 -0.3581 -0.2156
  276MOL    Cl933559   2.883   2.770   1.854  0.2675 -0.1320  0.3126
  276MOL   Cl1033560   2.742   2.755   1.607 -0.6001 -0.1649  0.0772
  276MOL    C1133561   2.965   2.607   1.649 -0.0084  0.2921  0.0498
  276MOL    H1233562   3.000   2.685   1.581  2.2351 -1.1598 -0.4986
  276MOL    H1333563   3.043   2.597   1.724  0.5258  0.3227 -0.5022
  276MOL    C1433564   2.966   2.478   1.565  1.0127 -0.7340  0.5663
  276MOL   Cl1533565   2.828   2.498   1.455 -0.5615  0.1144  0.5440
  276MOL   Cl1633566   2.946   2.331   1.661 -0.3296  0.2473  0.1151
  276MOL    C1733567   3.091   2.479   1.474 -0.3364  0.5010 -0.5094
  276MOL    H1833568   3.081   2.394   1.406 -0.2751  0.1505 -0.0800
  276MOL    H1933569   3.086   2.570   1.413  0.7034 -0.1737 -1.6077
  276MOL    C2033570   3.238   2.473   1.520 -0.6215 -0.0261 -0.1647
  276MOL   Cl2133571   3.255   2.350   1.653  0.2376 -0.0141  0.4529
  276MOL   Cl2233572   3.296   2.633   1.582  0.4063  0.1951  0.2607
  276MOL    C2333573   3.344   2.446   1.403 -0.2406  0.3427 -0.3081
  276MOL    H2433574   3.303   2.362   1.349  4.3068 -0.9477 -2.0085
  276MOL    H2533575   3.343   2.536   1.341 -0.0284  1.3147  1.0570
  276MOL    C2633576   3.496   2.406   1.431  0.5297  0.0946 -0.1933
  276MOL   Cl2733577   3.577   2.415   1.276  0.3595 -0.1342 -0.1578
  276MOL   Cl2833578   3.506   2.241   1.484  0.1870 -0.2442  0.1767
  276MOL    C2933579   3.574   2.497   1.530  0.1865  0.1809 -0.2379
  276MOL    H3033580   3.559   2.600   1.499  0.6777  0.5666  0.7801
  276MOL    H3133581   3.519   2.479   1.622 -0.5683  0.7015 -0.5838
  276MOL    C3233582   3.730   2.477   1.549  0.1224 -0.3124  0.0070
  276MOL   Cl3333583   3.753   2.576   1.687 -0.4629 -0.3025 -0.2066
  276MOL   Cl3433584   3.811   2.547   1.409  0.2597 -0.9193  0.2014
  276MOL    C3533585   3.787   2.331   1.580  0.1409 -0.0590 -0.1918
  276MOL    H3633586   3.724   2.288   1.659 -0.7497  3.7091  1.2254
  276MOL    H3733587   3.766   2.263   1.497  0.8300 -1.1102  0.4713
  276MOL    C3833588   3.939   2.306   1.619 -0.4138  0.5841  0.1471
  276MOL   Cl3933589   3.952   2.136   1.664 -0.3747  0.1798 -0.1033
  276MOL   Cl4033590   3.973   2.403   1.773 -0.2313  0.1802 -0.1911
  276MOL    C4133591   4.025   2.335   1.490  0.1650 -0.3695  0.0713
  276MOL    H4233592   3.986   2.273   1.409 -1.0877  0.1706  0.2381
  276MOL    H4333593   4.018   2.441   1.463 -0.8127  0.0927  2.0108
  276MOL    C4433594   4.177   2.321   1.477 -0.3376  0.3841 -1.5143
  276MOL   Cl4533595   4.200   2.384   1.314 -0.2824  0.2636 -0.1213
  276MOL   Cl4633596   4.221   2.143   1.488  0.1005  0.0565 -0.2962
  276MOL    C4733597   4.250   2.404   1.588  0.0010 -0.1184  0.1420
  276MOL    H4833598   4.192   2.491   1.620  1.1628  0.8067 -0.2353
  276MOL    H4933599   4.270   2.334   1.669 -0.0684 -1.2367 -0.8014
  276MOL    C5033600   4.389   2.465   1.556 -0.5857  0.1187 -0.0605
  276MOL   Cl5133601   4.382   2.603   1.438  0.2752  0.1910 -0.3208
  276MOL   Cl5233602   4.495   2.331   1.479  0.2362 -0.3623 -0.0278
  276MOL    C5333603   4.485   2.504   1.675  0.4972  0.2295 -0.4590
  276MOL    H5433604   4.489   2.419   1.744  1.2052 -0.6159 -1.5162
  276MOL    H5533605   4.591   2.510   1.648  1.1201 -1.9838  1.3116
  276MOL    C5633606   4.449   2.632   1.765 -0.0951 -0.5838  0.2334
  276MOL   Cl5733607   4.283   2.603   1.830  0.0508 -0.3546  0.0368
  276MOL   Cl5833608   4.444   2.779   1.667  0.0848 -0.2078  0.3219
  276MOL    C5933609   4.532   2.649   1.898  0.2283 -0.1479  0.6523
  276MOL    H6033610   4.516   2.743   1.952 -0.2842  0.3623 -0.3696
  276MOL    H6133611   4.501   2.577   1.973 -0.1425  0.2012  0.8356
  276MOL    C6233612   4.691   2.651   1.888  0.6064  0.6181 -0.0249
  276MOL   Cl6333613   4.742   2.757   1.755  0.1679 -0.0747  0.3250
  276MOL   Cl6433614   4.744   2.485   1.851  0.1113 -0.1547 -0.1566
  276MOL    C6533615   4.767   2.690   2.016  0.4460  0.0867 -0.6484
  276MOL    H6633616   4.757   2.607   2.085 -1.1849  0.1846 -0.7542
  276MOL    H6733617   4.873   2.685   1.989  0.2669  1.4580 -1.6848
  276MOL    C6833618   4.736   2.821   2.101 -0.7444 -0.0384 -0.0752
  276MOL   Cl6933619   4.578   2.804   2.185 -0.5435 -0.0869  0.5644
  276MOL   Cl7033620   4.732   2.964   1.999 -0.4364 -0.3678 -0.5272
  276MOL    C7133621   4.841   2.846   2.219  0.4822  0.6487  0.0019
  276MOL    H7233622   4.926   2.881   2.160  0.0943 -0.7134 -1.4329
  276MOL    H7333623   4.791   2.922   2.279 -1.2397 -1.4110  1.2500
  276MOL    C7433624   4.908   2.733   2.310  0.0310 -0.0196  0.3063
  276MOL   Cl7533625   5.024   2.630   2.212 -0.0676 -0.0408 -0.2744
  276MOL   Cl7633626   4.786   2.630   2.377  0.0236 -0.2632  0.1144
  276MOL    C7733627   4.987   2.806   2.425 -0.4824  0.2083  0.4542
  276MOL    H7833628   5.063   2.859   2.367 -1.6959 -1.4054 -2.7458
  276MOL    H7933629   4.928   2.889   2.463 -1.1413 -0.1112  0.1409
  276MOL    C8033630   5.045   2.725   2.544  0.5961 -0.4315 -0.2419
  276MOL   Cl8133631   5.110   2.569   2.504 -0.2221 -0.2831  0.1473
  276MOL   Cl8233632   4.916   2.696   2.665  0.3665  0.0707 -0.1746
  276MOL    C8333633   5.159   2.798   2.627 -0.2579  0.5136 -0.4088
  276MOL    H8433634   5.191   2.741   2.714 -3.3409 -2.3051 -0.9980
  276MOL    H8533635   5.251   2.800   2.568 -0.8915  2.7417 -1.3572
  276MOL    C8633636   5.142   2.941   2.689  0.5136 -0.8682 -0.0418
  276MOL   Cl8733637   5.012   2.959   2.799  0.5644 -0.1392  0.1669
  276MOL   Cl8833638   5.107   3.070   2.564  0.0390  0.1988 -0.2234
  276MOL    C8933639   5.277   2.995   2.761  0.5758  0.0034 -0.1374
  276MOL    H9033640   5.354   2.995   2.684 -2.1572  0.5220 -3.0321
  276MOL    H9133641   5.270   3.100   2.788 -0.0565  0.1428 -0.8211
  276MOL    C9233642   5.340   2.926   2.891 -0.0367 -0.3416 -0.2439
  276MOL   Cl9333643   5.488   3.026   2.936  0.4050  0.4828 -0.1769
  276MOL   Cl9433644   5.391   2.769   2.844 -0.2548  0.2598 -0.3015
  276MOL    C9533645   5.244   2.902   3.015 -0.2850 -0.3523  0.1313
  276MOL    H9633646   5.190   2.995   3.033  0.3690  0.1167 -0.3126
  276MOL    H9733647   5.176   2.823   2.982  1.2555 -1.9441  0.6473
  276MOL    C9833648   5.299   2.869   3.159 -0.2631 -0.0045  0.6865
  276MOL   Cl9933649   5.360   3.026   3.224  0.3222 -0.1972 -0.0801
  276MOL  Cl10033650   5.431   2.743   3.145  0.3882  0.1169  0.3009
  276MOL   C10133651   5.193   2.812   3.254  0.2823  0.2907 -0.1340
  276MOL   H10233652   5.244   2.775   3.344  0.4425  2.2263  0.5981
  276MOL   H10333653   5.131   2.894   3.291  1.1288 -0.4514  3.1659
  276MOL   C10433654   5.092   2.701   3.206  0.3601 -0.1374 -0.5502
  276MOL  Cl10533655   5.164   2.592   3.090 -0.1805 -0.0440 -0.0488
  276MOL  Cl10633656   4.954   2.770   3.121  0.4063  0.0939  0.5866
  276MOL   C10733657   5.042   2.623   3.337 -0.3307 -0.0892 -0.6550
  276MOL   H10833658   4.992   2.530   3.309 -0.8833 -0.2169  0.6965
  276MOL   H10933659   5.127   2.577   3.388 -0.4080 -1.4155 -1.7021
  276MOL   C11033660   4.969   2.698   3.455 -0.3426  0.1829  0.0497
  276MOL  Cl11133661   4.898   2.849   3.410 -0.0533  0.2787  0.1271
  276MOL  Cl11233662   5.086   2.729   3.584 -0.0600 -0.0615  0.0771
  276MOL   C11333663   4.865   2.615   3.519 -0.1827  0.2495  0.0077
  276MOL   H11433664   4.908   2.525   3.562  0.1293  0.2084 -0.3912
  276MOL   H11533665   4.844   2.677   3.607  1.2298 -0.7004  1.0256
  276MOL   C11633666   4.741   2.566   3.440  0.6987 -0.5840  0.3166
  276MOL  Cl11733667   4.608   2.554   3.560 -0.0203  0.0665 -0.2938
  276MOL  Cl11833668   4.767   2.400   3.377 -0.4270 -0.0651 -0.1205
  276MOL   C11933669   4.676   2.649   3.322 -0.5246 -0.3763  0.4304
  276MOL   H12033670   4.582   2.607   3.287 -0.6388  0.7517 -0.6684
  276MOL   H12133671   4.633   2.742   3.361 -0.3532  0.4043 -1.1772
  276MOL   H12233672   4.746   2.660   3.239 -1.5073 -0.0800 -0.3802
  277MOL     C133673   3.664   1.024   3.871 -0.4200 -0.2842 -0.4715
  277MOL    Cl233674   3.667   0.885   3.766 -0.3111  0.3080  0.1533
  277MOL    Cl333675   3.828   1.101   3.860  0.3511 -0.1683  0.2565
  277MOL     C433676   3.564   1.130   3.820  0.6904  0.5077  0.0373
  277MOL     H533677   3.594   1.224   3.866 -1.9859  0.4307  2.0706
  277MOL     H633678   3.580   1.124   3.712  0.1675  0.1196 -0.0205
  277MOL     H733679   3.659   0.995   3.976 -0.6810  2.1618  0.2122
  277MOL     C833680   3.416   1.107   3.862  0.3958  0.0998 -0.4719
  277MOL    Cl933681   3.334   1.258   3.832 -0.0390  0.2401  0.2587
  277MOL   Cl1033682   3.417   1.105   4.044  0.1933 -0.2673 -0.6342
  277MOL    C1133683   3.340   0.979   3.812 -0.1488 -0.6351 -0.2394
  277MOL    H1233684   3.410   0.903   3.845 -0.6431 -1.1089 -0.2753
  277MOL    H1333685   3.257   0.974   3.884 -0.8516  0.8529 -0.9138
  277MOL    C1433686   3.295   0.954   3.667  0.5692  0.2806 -0.5938
  277MOL   Cl1533687   3.433   0.955   3.547  0.2108 -0.3680 -0.1271
  277MOL   Cl1633688   3.185   1.082   3.610 -0.0123 -0.2380 -0.3044
  277MOL    C1733689   3.203   0.831   3.650  0.4301  0.8129  0.4513
  277MOL    H1833690   3.099   0.856   3.671 -1.1204 -4.1366 -0.6647
  277MOL    H1933691   3.213   0.806   3.544 -0.2384 -0.7495  0.7338
  277MOL    C2033692   3.227   0.687   3.719 -0.2691 -0.3217 -0.5140
  277MOL   Cl2133693   3.178   0.685   3.892 -0.1774 -0.1616  0.5329
  277MOL   Cl2233694   3.409   0.667   3.734  0.2237  0.4763 -0.1378
  277MOL    C2333695   3.177   0.570   3.638  0.5077 -0.1078  0.2758
  277MOL    H2433696   3.228   0.573   3.542  0.9548 -0.9289  0.4847
  277MOL    H2533697   3.215   0.488   3.699  0.6265 -0.3078 -0.0670
  277MOL    C2633698   3.032   0.535   3.596  0.1656  0.3698  1.1036
  277MOL   Cl2733699   2.978   0.669   3.489 -0.0344  0.3459 -0.0778
  277MOL   Cl2833700   2.932   0.527   3.736  0.2314 -0.3108 -0.1471
  277MOL    C2933701   3.008   0.415   3.502 -0.0288 -0.1640  0.1783
  277MOL    H3033702   2.901   0.396   3.496 -0.0324  0.1659 -0.8564
  277MOL    H3133703   3.041   0.445   3.403 -1.7531 -2.4331 -1.1513
  277MOL    C3233704   3.065   0.274   3.534  0.1129  0.2994  0.3985
  277MOL   Cl3333705   3.028   0.226   3.710  0.0793  0.3407 -0.0792
  277MOL   Cl3433706   3.239   0.287   3.507  0.2623 -0.1604  0.0778
  277MOL    C3533707   3.005   0.152   3.453 -0.3443  0.4088 -0.2616
  277MOL    H3633708   3.077   0.071   3.471  0.7991  1.6720  1.0316
  277MOL    H3733709   2.905   0.125   3.487  0.4793 -2.0174  0.3343
  277MOL    C3833710   2.983   0.164   3.295 -0.3571 -0.3382 -0.0194
  277MOL   Cl3933711   3.120   0.247   3.214  0.0411 -0.0241  0.1826
  277MOL   Cl4033712   2.839   0.273   3.248  0.0642  0.4384  0.2882
  277MOL    C4133713   2.958   0.022   3.233  0.1304 -0.3324  0.9384
  277MOL    H4233714   2.921   0.033   3.131 -2.9009 -0.7451  1.9407
  277MOL    H4333715   3.052   9.148   3.227 -0.4260 -1.1625 -0.4210
  277MOL    C4433716   2.851   9.108   3.289 -0.1741 -0.6878  0.4200
  277MOL   Cl4533717   2.687   9.176   3.323  0.4204 -0.3466 -0.2603
  277MOL   Cl4633718   2.925   9.031   3.435 -0.2040 -0.3585 -0.1856
  277MOL    C4733719   2.827   8.990   3.202  0.1722 -0.4532  0.1099
  277MOL    H4833720   2.781   8.909   3.259 -0.1784  0.1308  0.6695
  277MOL    H4933721   2.750   9.016   3.129  1.3661  0.4630 -0.8433
  277MOL    C5033722   2.924   8.905   3.118 -0.3301 -0.8827 -0.8041
  277MOL   Cl5133723   3.063   8.850   3.211  0.2282 -0.0052 -0.0188
  277MOL   Cl5233724   2.976   9.013   2.984  0.4820 -0.2571  0.6721
  277MOL    C5333725   2.853   8.782   3.054  1.1687 -0.8545  0.1099
  277MOL    H5433726   2.780   8.833   2.991 -0.0117  0.1451  2.2364
  277MOL    H5533727   2.931   8.731   2.997  0.8100  0.4487 -1.6096
  277MOL    C5633728   2.772   8.680   3.135 -0.0767  0.2837 -0.3814
  277MOL   Cl5733729   2.749   8.554   3.010  0.2297  0.0262 -0.1441
  277MOL   Cl5833730   2.616   8.751   3.176  0.4303  0.1408  0.2686
  277MOL    C5933731   2.844   8.605   3.257  0.1648 -0.3828  0.2007
  277MOL    H6033732   2.929   8.552   3.214 -1.8029 -2.5587 -1.0780
  277MOL    H6133733   2.885   8.681   3.324 -0.4693 -0.4457  0.6640
  277MOL    C6233734   2.771   8.518   3.358 -0.2402  0.4099  0.6027
  277MOL   Cl6333735   2.694   8.391   3.263  0.1690  0.4629  0.0915
  277MOL   Cl6433736   2.638   8.599   3.435  0.1074 -0.2693 -0.2964
  277MOL    C6533737   2.863   8.449   3.464 -0.2264  0.1416  0.0362
  277MOL    H6633738   2.796   8.392   3.528 -1.1281 -0.4831 -1.4393
  277MOL    H6733739   2.914   8.371   3.408  1.0792  0.4800  0.7319
  277MOL    C6833740   2.967   8.525   3.548 -0.0958  0.3595  0.3144
  277MOL   Cl6933741   2.904   8.686   3.595  0.2586 -0.0410  0.1281
  277MOL   Cl7033742   3.103   8.570   3.445 -0.0073 -0.0454 -0.1546
  277MOL    C7133743   3.027   8.460   3.679 -0.5415 -0.1391  0.1191
  277MOL    H7233744   3.115   8.520   3.704  0.0531 -0.3928 -1.3165
  277MOL    H7333745   2.948   8.478   3.752 -0.4132  1.0782 -0.0184
  277MOL    C7433746   3.052   8.309   3.677 -0.1448 -0.0683  0.4030
  277MOL   Cl7533747   3.150   8.264   3.531  0.2411 -0.1536  0.0616
  277MOL   Cl7633748   2.907   8.212   3.681 -0.5394 -0.1612 -0.1098
  277MOL    C7733749   3.130   8.262   3.799 -0.7365 -0.4755 -0.0487
  277MOL    H7833750   3.138   8.153   3.803 -3.5171 -0.7033  0.5569
  277MOL    H7933751   3.230   8.293   3.772 -1.9983  3.8894 -0.0065
  277MOL    C8033752   3.105   8.319   3.948 -0.1898 -0.4210  1.3052
  277MOL   Cl8133753   2.933   8.319   3.974  0.2496  0.7687  0.2643
  277MOL   Cl8233754   3.161   8.483   3.967 -0.2306  0.0127 -0.4307
  277MOL    C8333755   3.172   8.225   4.058  0.8565 -0.7313 -0.2537
  277MOL    H8433756   3.121   8.130   4.043 -1.5463  0.5580 -0.6022
  277MOL    H8533757   3.274   8.208   4.024  1.1294  0.1462  0.1081
  277MOL    C8633758   3.186   8.253   4.210  0.0880 -0.2787 -0.2349
  277MOL   Cl8733759   3.313   8.382   4.229 -0.1802 -0.0792 -0.2580
  277MOL   Cl8833760   3.234   8.109   4.294  0.2460 -0.0138  0.1684
  277MOL    C8933761   3.062   8.317   4.277  0.4847  0.3082  0.0196
  277MOL    H9033762   3.104   8.383   4.353  0.0450  1.8211 -1.0276
  277MOL    H9133763   3.039   8.396   4.205  0.2738 -2.0252 -2.5363
  277MOL    C9233764   2.939   8.235   4.329  0.0065 -0.3184  0.1900
  277MOL   Cl9333765   2.975   8.158   4.487 -0.0954 -0.0729  0.1603
  277MOL   Cl9433766   2.904   8.101   4.216 -0.2229 -0.1702  0.1847
  277MOL    C9533767   2.813   8.326   4.338 -0.5990 -0.8433  0.3500
  277MOL    H9633768   2.781   8.340   4.235 -1.8984  0.8651  0.9551
  277MOL    H9733769   2.739   8.253   4.369 -0.4155 -1.4193 -0.5776
  277MOL    C9833770   2.802   8.463   4.408 -0.2042 -0.0301 -0.1808
  277MOL   Cl9933771   2.629   8.474   4.401  0.0877  0.3510  0.0174
  277MOL  Cl10033772   2.867   8.594   4.309  0.1620 -0.0805  0.3513
  277MOL   C10133773   2.843   8.471   4.557  0.3807 -0.7684  0.1287
  277MOL   H10233774   2.765   8.420   4.615 -0.2797 -0.9484 -0.8932
  277MOL   H10333775   2.920   8.398   4.583  0.7494  0.3154  2.1620
  277MOL   C10433776   2.861   8.603   4.635  0.4438  0.3552 -0.5228
  277MOL  Cl10533777   3.026   8.664   4.591 -0.2393  0.0327  0.4597
  277MOL  Cl10633778   2.876   8.553   4.810  0.2890  0.1069 -0.0958
  277MOL   C10733779   2.763   8.724   4.612 -0.4147 -0.3225  0.5005
  277MOL   H10833780   2.738   8.731   4.507  0.3206 -0.0009  0.3389
  277MOL   H10933781   2.666   8.683   4.638 -1.0615  0.7761 -0.1410
  277MOL   C11033782   2.789   8.877   4.659  0.3291 -0.5139  0.3987
  277MOL  Cl11133783   2.636   8.958   4.630  0.1889  0.0325 -0.1482
  277MOL  Cl11233784   2.917   8.946   4.558  0.0849  0.0006  0.2611
  277MOL   C11333785   2.843   8.882   4.809 -0.1595  0.3918 -0.0278
  277MOL   H11433786   2.932   8.821   4.827  0.8607  1.7252 -0.5246
  277MOL   H11533787   2.875   8.984   4.828  0.4651 -0.3659  3.3815
  277MOL   C11633788   2.751   8.852   4.928  0.2918 -0.6890  0.2686
  277MOL  Cl11733789   2.620   8.728   4.904  0.3008 -0.6013 -0.0712
  277MOL  Cl11833790   2.674   9.008   4.973 -0.3981 -0.3303  0.0891
  277MOL   C11933791   2.822   8.785   5.045  0.3432  0.1241  0.0154
  277MOL   H12033792   2.892   8.862   5.077 -0.4481  1.0963 -0.5597
  277MOL   H12133793   2.756   8.751   5.125  0.9537 -2.4841 -0.5279
  277MOL   H12233794   2.884   8.700   5.017  0.6594  0.7542 -1.2616
  278MOL     C133795   5.003   4.364   4.126 -0.0444  0.0727  0.5609
  278MOL    Cl233796   5.132   4.400   4.019 -0.0913  0.4450 -0.1720
  278MOL    Cl333797   4.893   4.273   4.020  0.2003  0.3564  0.0095
  278MOL     C433798   5.048   4.280   4.246  0.0955 -0.4530 -0.5227
  278MOL     H533799   4.958   4.242   4.292  0.9128  1.7579  3.0969
  278MOL     H633800   5.120   4.205   4.213  1.0655  0.3535 -0.2580
  278MOL     H733801   4.959   4.458   4.158  0.6012 -0.1434  2.1298
  278MOL     C833802   5.127   4.354   4.360  0.6743  0.5065  0.3504
  278MOL    Cl933803   5.018   4.488   4.404  0.0767 -0.1672  0.0612
  278MOL   Cl1033804   5.278   4.412   4.304 -0.0737 -0.2639 -0.2321
  278MOL    C1133805   5.156   4.268   4.488  0.0650  0.8532  0.7683
  278MOL    H1233806   5.231   4.200   4.447 -1.6489  0.4956 -1.9038
  278MOL    H1333807   5.195   4.324   4.573  1.2654 -0.3060  0.9991
  278MOL    C1433808   5.046   4.180   4.555 -0.5798  0.4128 -0.3575
  278MOL   Cl1533809   5.017   4.037   4.442 -0.2472  0.0312 -0.2291
  278MOL   Cl1633810   4.892   4.270   4.598  0.2157  0.0104 -0.1987
  278MOL    C1733811   5.102   4.130   4.695 -0.4783 -0.5552  0.0930
  278MOL    H1833812   5.209   4.115   4.684 -0.5150 -0.7789  0.0411
  278MOL    H1933813   5.094   4.212   4.766 -0.5821 -0.0722 -0.4727
  278MOL    C2033814   5.043   4.015   4.772 -0.1057  0.6861 -0.1878
  278MOL   Cl2133815   5.127   4.021   4.922  0.5071  0.5574  0.2238
  278MOL   Cl2233816   5.083   3.859   4.691  0.3174  0.1708  0.3527
  278MOL    C2333817   4.894   4.017   4.787 -0.3804  0.2269 -0.2229
  278MOL    H2433818   4.873   4.110   4.840 -1.0866 -1.0407  1.7886
  278MOL    H2533819   4.839   4.021   4.693  0.4777 -0.3855 -0.7516
  278MOL    C2633820   4.818   3.905   4.868 -1.0814  0.4684 -0.5128
  278MOL   Cl2733821   4.800   3.765   4.759  0.0094 -0.1755  0.3528
  278MOL   Cl2833822   4.647   3.960   4.898  0.0484 -0.5740 -0.1318
  278MOL    C2933823   4.862   3.853   5.004 -0.1839  0.6230  0.6851
  278MOL    H3033824   4.811   3.757   5.013 -0.1709  0.8170  3.3547
  278MOL    H3133825   4.964   3.821   4.987  0.1607  1.6676  0.7331
  278MOL    C3233826   4.842   3.929   5.147  0.1774 -0.7429  0.2132
  278MOL   Cl3333827   4.694   3.864   5.220  0.1879 -0.2102  0.1795
  278MOL   Cl3433828   4.820   4.103   5.118  0.2652  0.3304 -0.1924
  278MOL    C3533829   4.963   3.913   5.239  0.5696  0.4740  0.2959
  278MOL    H3633830   5.047   3.915   5.169  0.6265  2.0273  0.3951
  278MOL    H3733831   4.974   4.008   5.291  0.1966  1.0204 -0.6052
  278MOL    C3833832   4.986   3.800   5.338 -0.0073  0.0785  0.1355
  278MOL   Cl3933833   4.933   3.654   5.266 -0.1822 -0.2556 -0.2061
  278MOL   Cl4033834   4.890   3.824   5.486  0.1262 -0.0041  0.0109
  278MOL    C4133835   5.138   3.790   5.380  0.0630  0.0083 -0.4548
  278MOL    H4233836   5.149   3.712   5.456 -1.7914  0.3192  0.1790
  278MOL    H4333837   5.196   3.742   5.302  0.3741  0.5082 -0.5321
  278MOL    C4433838   5.228   3.902   5.434  0.6350 -0.0902  0.3349
  278MOL   Cl4533839   5.140   3.984   5.563 -0.2959 -0.0367 -0.1487
  278MOL   Cl4633840   5.257   4.025   5.304  0.0247  0.1668 -0.3560
  278MOL    C4733841   5.366   3.862   5.485  0.0773  0.5628 -0.2268
  278MOL    H4833842   5.434   3.946   5.494 -0.0735  0.4422  2.5209
  278MOL    H4933843   5.347   3.836   5.590 -2.2432 -0.9689 -0.9845
  278MOL    C5033844   5.455   3.748   5.421 -0.6107 -0.0186  0.1641
  278MOL   Cl5133845   5.454   3.767   5.245 -0.0835 -0.1377  0.2233
  278MOL   Cl5233846   5.395   3.587   5.466  0.3360 -0.3997 -0.1893
  278MOL    C5333847   5.610   3.763   5.460 -0.3801  0.0707 -0.0884
  278MOL    H5433848   5.667   3.695   5.397 -0.3548  1.3554 -1.5028
  278MOL    H5533849   5.650   3.856   5.418  1.6201  0.3983  2.4300
  278MOL    C5633850   5.667   3.765   5.607 -0.6198  0.0428  0.1503
  278MOL   Cl5733851   5.605   3.639   5.710  0.2298  0.0804 -0.0218
  278MOL   Cl5833852   5.620   3.921   5.690 -0.0556  0.0883  0.0835
  278MOL    C5933853   5.823   3.761   5.584 -0.0930  0.1485 -0.2602
  278MOL    H6033854   5.852   3.665   5.542 -0.9778 -1.0312  1.7820
  278MOL    H6133855   5.846   3.836   5.508 -1.9511  1.8100  0.7659
  278MOL    C6233856   5.918   3.816   5.702  0.5711  0.2819  0.0421
  278MOL   Cl6333857   5.923   3.993   5.699 -0.0180 -0.3324 -0.2019
  278MOL   Cl6433858   6.075   3.753   5.656  0.2816  0.1980  0.1481
  278MOL    C6533859   5.875   3.768   5.845 -0.1615 -0.5993 -0.0831
  278MOL    H6633860   5.777   3.810   5.866  0.3514  0.9122 -0.6331
  278MOL    H6733861   5.860   3.660   5.850 -2.3099 -0.4358 -1.9742
  278MOL    C6833862   5.967   3.815   5.968 -0.6464 -0.3615  0.5284
  278MOL   Cl6933863   5.936   3.983   6.003 -0.2577 -0.0771  0.1501
  278MOL   Cl7033864   6.150   3.810   5.942  0.1571 -0.1021 -0.2741
  278MOL    C7133865   5.921   3.741   6.093 -0.5606 -0.5128  0.0409
  278MOL    H7233866   5.991   3.788   6.161 -2.6513  1.9948  0.5259
  278MOL    H7333867   5.833   3.786   6.139 -0.5078  0.6664 -0.9709
  278MOL    C7433868   5.926   3.587   6.122 -0.1600 -0.0553  0.1156
  278MOL   Cl7533869   6.058   3.500   6.027  0.1360 -0.1119  0.0593
  278MOL   Cl7633870   5.771   3.514   6.085  0.2509 -0.1042 -0.3056
  278MOL    C7733871   5.954   3.562   6.275  0.0145 -0.7474 -0.1093
  278MOL    H7833872   6.054   3.602   6.294 -0.1289 -0.1334 -0.6362
  278MOL    H7933873   5.881   3.623   6.327  0.8460  2.2218 -2.2798
  278MOL    C8033874   5.963   3.419   6.339  0.8486 -0.2890  0.1741
  278MOL   Cl8133875   6.080   3.306   6.259 -0.2020  0.0363 -0.3278
  278MOL   Cl8233876   5.812   3.339   6.333 -0.1345 -0.0870 -0.0689
  278MOL    C8333877   6.017   3.416   6.489 -0.1735  0.2905 -0.0147
  278MOL    H8433878   6.018   3.314   6.528  1.6201  0.5152  0.5785
  278MOL    H8533879   6.123   3.441   6.490 -0.5383  1.9050 -0.0522
  278MOL    C8633880   5.955   3.507   6.600 -0.1803 -0.0294  0.0863
  278MOL   Cl8733881   5.782   3.470   6.627 -0.0371  0.1616 -0.3112
  278MOL   Cl8833882   5.981   3.680   6.572 -0.0741 -0.1301 -0.0254
  278MOL    C8933883   6.019   3.480   6.741  0.5144 -0.5438 -0.3441
  278MOL    H9033884   5.981   3.558   6.809  0.4939  0.3663 -1.3799
  278MOL    H9133885   5.973   3.392   6.786 -3.2267  2.2705  1.7290
  278MOL    C9233886   6.177   3.469   6.769  0.1615  0.1875 -1.4271
  278MOL   Cl9333887   6.282   3.585   6.675 -0.1588  0.1593  0.6410
  278MOL   Cl9433888   6.238   3.310   6.710 -0.1732 -0.0564 -0.0531
  278MOL    C9533889   6.218   3.488   6.918  0.4532  0.2954  0.4048
  278MOL    H9633890   6.203   3.387   6.954 -2.8381  1.0562  1.2996
  278MOL    H9733891   6.326   3.501   6.918  0.6665 -1.2974 -1.2812
  278MOL    C9833892   6.152   3.592   7.014 -0.1712  0.8215 -0.0357
  278MOL   Cl9933893   5.987   3.550   7.072 -0.2783 -0.5108 -0.4163
  278MOL  Cl10033894   6.141   3.745   6.925  0.0634  0.1154  0.0439
  278MOL   C10133895   6.250   3.625   7.139  0.6185 -0.0052 -0.3663
  278MOL   H10233896   6.355   3.625   7.109  0.1225  3.3390 -2.3269
  278MOL   H10333897   6.243   3.728   7.174  1.9063 -1.2507  3.9281
  278MOL   C10433898   6.248   3.542   7.269  0.0524  0.4853  0.1245
  278MOL  Cl10533899   6.096   3.563   7.357 -0.1538 -0.1908  0.0860
  278MOL  Cl10633900   6.374   3.625   7.376  0.0842 -0.4562 -0.5362
  278MOL   C10733901   6.280   3.388   7.247  0.9085 -0.4418  0.2022
  278MOL   H10833902   6.194   3.340   7.200  0.1101  1.4314 -0.2710
  278MOL   H10933903   6.356   3.377   7.169  2.2529  0.9105  1.3037
  278MOL   C11033904   6.325   3.295   7.365 -0.6997  1.4751  0.3490
  278MOL  Cl11133905   6.213   3.306   7.501  0.3327  0.1119  0.1588
  278MOL  Cl11233906   6.494   3.331   7.411  0.3944  0.0242 -0.3764
  278MOL   C11333907   6.318   3.143   7.311  0.5458  0.0398  0.1671
  278MOL   H11433908   6.209   3.132   7.317  0.1646  2.6147 -1.2273
  278MOL   H11533909   6.343   3.146   7.205  1.6227 -0.8356  0.3955
  278MOL   C11633910   6.380   3.026   7.383 -0.2309  0.4139  0.1065
  278MOL  Cl11733911   6.548   3.018   7.332 -0.0072 -0.1757 -0.1425
  278MOL  Cl11833912   6.303   2.879   7.309 -0.0041 -0.2361  0.3827
  278MOL   C11933913   6.366   3.020   7.536 -0.2389 -0.6552  0.1198
  278MOL   H12033914   6.405   3.113   7.577 -3.0608  0.4740  0.3510
  278MOL   H12133915   6.264   3.035   7.569 -1.0006 -0.5590 -2.1725
  278MOL   H12233916   6.411   2.929   7.575 -0.2411 -1.6053 -1.9779
  279MOL     C133917   5.985   7.949   3.822 -0.5381 -0.7154  0.2800
  279MOL    Cl233918   6.154   7.946   3.884 -0.1040  0.0328  0.0678
  279MOL    Cl333919   5.899   7.815   3.894 -0.0833 -0.1455  0.2402
  279MOL     C433920   5.917   8.086   3.864 -0.0446 -1.1201 -0.0049
  279MOL     H533921   5.814   8.083   3.828 -0.0050  0.7752 -0.2985
  279MOL     H633922   5.914   8.090   3.973  0.0400  0.3666 -0.0490
  279MOL     H733923   5.985   7.932   3.715  2.2671  0.0292  0.1350
  279MOL     C833924   5.980   8.222   3.809  0.1330  0.2018  0.4797
  279MOL    Cl933925   5.843   8.337   3.800  0.0350 -0.0649  0.1646
  279MOL   Cl1033926   6.045   8.195   3.643  0.0290 -0.2474 -0.1542
  279MOL    C1133927   6.087   8.275   3.900  0.6098 -0.0904 -0.3888
  279MOL    H1233928   6.058   8.258   4.003  2.0828  1.3458  0.2828
  279MOL    H1333929   6.166   8.201   3.884 -2.3376 -3.5149  0.1371
  279MOL    C1433930   6.133   8.425   3.890  0.3372 -0.1903 -0.2839
  279MOL   Cl1533931   6.295   8.425   3.972  0.0098 -0.1152  0.0214
  279MOL   Cl1633932   6.019   8.535   3.982 -0.2637  0.0480 -0.3568
  279MOL    C1733933   6.160   8.480   3.745 -0.3352  0.3106  0.5357
  279MOL    H1833934   6.237   8.411   3.712  0.5382  0.2671  2.5720
  279MOL    H1933935   6.061   8.462   3.704  0.1607 -1.6038  0.1758
  279MOL    C2033936   6.206   8.616   3.706  0.9615  0.2636 -0.3269
  279MOL   Cl2133937   6.209   8.603   3.533 -0.0061 -0.1675  0.0612
  279MOL   Cl2233938   6.370   8.643   3.764  0.0363 -0.4089 -0.0622
  279MOL    C2333939   6.113   8.734   3.757  0.1021  0.4577  0.2995
  279MOL    H2433940   6.007   8.708   3.760 -0.2077  1.8482  2.8638
  279MOL    H2533941   6.132   8.738   3.864  1.8197 -0.0803  0.0389
  279MOL    C2633942   6.107   8.874   3.680  0.5400 -0.9836  0.1759
  279MOL   Cl2733943   5.984   8.971   3.774  0.0608  0.3416  0.1905
  279MOL   Cl2833944   6.017   8.847   3.530  0.5979  0.1976 -0.0521
  279MOL    C2933945   6.249   8.940   3.676 -0.2566 -0.1832  0.1767
  279MOL    H3033946   6.286   8.943   3.779 -0.1695  1.5960  0.1185
  279MOL    H3133947   6.296   8.866   3.612 -1.1021  0.3166 -1.0457
  279MOL    C3233948   6.259   9.092   3.625 -0.9462  0.0021  0.2704
  279MOL   Cl3333949   6.432   9.126   3.635  0.2130 -0.3523 -0.3452
  279MOL   Cl3433950   6.171   0.025   3.736 -0.2272 -0.2034  0.0531
  279MOL    C3533951   6.218   9.125   3.483  0.4731  0.4572  0.3123
  279MOL    H3633952   6.113   9.100   3.485  0.8202 -0.9169  1.4814
  279MOL    H3733953   6.218   0.054   3.475 -0.7705  0.3932 -0.6630
  279MOL    C3833954   6.293   9.090   3.349 -0.2897  0.9743  0.0558
  279MOL   Cl3933955   6.346   8.918   3.370  0.1333 -0.4633  0.0014
  279MOL   Cl4033956   6.450   0.005   3.311  0.3557 -0.2607 -0.1968
  279MOL    C4133957   6.199   9.094   3.226 -0.4386  0.7224 -0.7113
  279MOL    H4233958   6.251   9.051   3.140  1.4671  0.6936  0.4153
  279MOL    H4333959   6.129   9.010   3.228 -0.2891  0.4738 -3.6063
  279MOL    C4433960   6.136   0.048   3.178  0.4318  0.1621  0.7868
  279MOL   Cl4533961   6.008   0.102   3.288  0.4563 -0.3383  0.1059
  279MOL   Cl4633962   6.057   0.004   3.033 -0.1662  0.0315  0.1324
  279MOL    C4733963   6.233   0.168   3.167 -0.0537 -0.1051 -0.4421
  279MOL    H4833964   6.264   0.193   3.268 -0.1451  1.0925 -0.7071
  279MOL    H4933965   6.323   0.124   3.122 -0.7338 -1.8249 -0.1666
  279MOL    C5033966   6.208   0.305   3.091  0.3220  0.1582  0.4019
  279MOL   Cl5133967   6.051   0.375   3.141  0.5012 -0.1671 -0.3534
  279MOL   Cl5233968   6.197   0.278   2.917 -0.7708 -0.1965  0.0364
  279MOL    C5333969   6.326   0.398   3.138  0.5280 -0.7640 -0.2164
  279MOL    H5433970   6.320   0.432   3.241  0.9129 -0.1518 -0.3946
  279MOL    H5533971   6.418   0.340   3.135 -0.5345 -2.4869  0.1160
  279MOL    C5633972   6.352   0.533   3.072  0.4760  0.2195  0.1958
  279MOL   Cl5733973   6.199   0.618   3.021  0.0276 -0.0520  0.0794
  279MOL   Cl5833974   6.468   0.502   2.923 -0.1232  0.0784  0.0997
  279MOL    C5933975   6.440   0.630   3.172  0.0980  0.1132  0.6269
  279MOL    H6033976   6.372   0.665   3.249 -0.8238  0.1484 -0.1765
  279MOL    H6133977   6.496   0.554   3.225  0.0470 -1.1569 -1.0706
  279MOL    C6233978   6.534   0.751   3.133 -0.2481  0.4755 -0.3919
  279MOL   Cl6333979   6.687   0.697   3.061  0.1135  0.2721  0.1967
  279MOL   Cl6433980   6.575   0.840   3.282 -0.1531 -0.1592 -0.4255
  279MOL    C6533981   6.455   0.836   3.025 -0.9429 -0.4423 -0.4286
  279MOL    H6633982   6.459   0.775   2.934 -0.9781 -0.0731 -0.6787
  279MOL    H6733983   6.350   0.848   3.054 -0.6565 -1.4055  1.0912
  279MOL    C6833984   6.506   0.983   2.990  0.0766 -0.3488  0.2120
  279MOL   Cl6933985   6.478   1.086   3.132 -0.0351 -0.2215 -0.2501
  279MOL   Cl7033986   6.397   1.050   2.868  0.2374 -0.5068  0.4996
  279MOL    C7133987   6.651   1.001   2.942  0.8876  0.1350  0.1576
  279MOL    H7233988   6.671   1.108   2.949 -2.4391  0.7615  0.8844
  279MOL    H7333989   6.719   0.961   3.017 -1.7578 -0.2270  2.4821
  279MOL    C7433990   6.698   0.970   2.792  1.0557  0.4304 -0.3896
  279MOL   Cl7533991   6.612   0.836   2.717  0.6654  0.1027 -0.1682
  279MOL   Cl7633992   6.870   0.923   2.823 -0.0707  0.0089 -0.0160
  279MOL    C7733993   6.687   1.093   2.698  0.3515 -0.1003  0.5173
  279MOL    H7833994   6.585   1.113   2.668  0.8996  1.9825 -0.0387
  279MOL    H7933995   6.711   1.181   2.758 -3.1733  1.3179 -0.0386
  279MOL    C8033996   6.767   1.103   2.564 -0.1022  0.0408 -0.2009
  279MOL   Cl8133997   6.925   1.171   2.598  0.3704  0.1650  0.1904
  279MOL   Cl8233998   6.680   1.224   2.466 -0.0172  0.2507 -0.4400
  279MOL    C8333999   6.783   0.963   2.491  0.3530 -0.6358 -0.6010
  279MOL    H8434000   6.843   0.900   2.556 -2.6818  0.3620  3.2999
  279MOL    H8534001   6.680   0.933   2.473 -0.1414  0.2814  0.6152
  279MOL    C8634002   6.865   0.952   2.359 -0.1778  0.3068  0.7382
  279MOL   Cl8734003   6.780   1.024   2.223 -0.3425 -0.3046  0.0697
  279MOL   Cl8834004   6.865   0.776   2.332  0.7288 -0.1563  0.3787
  279MOL    C8934005   7.013   1.005   2.360 -0.0587 -0.6105 -0.1535
  279MOL    H9034006   7.013   1.114   2.352  0.2589 -0.5421  0.7227
  279MOL    H9134007   7.051   0.980   2.459  0.2310  0.4837  0.0153
  279MOL    C9234008   7.121   0.966   2.246 -0.0630  0.1509  0.2583
  279MOL   Cl9334009   7.179   0.801   2.287 -0.4893  0.3547 -0.1413
  279MOL   Cl9434010   7.253   1.079   2.271 -0.0789  0.0706  0.1513
  279MOL    C9534011   7.081   0.980   2.100 -0.3303 -0.0119 -0.1555
  279MOL    H9634012   7.009   0.900   2.083  0.1076 -0.8865  1.9147
  279MOL    H9734013   7.027   1.075   2.100  1.8351  1.2416 -1.1553
  279MOL    C9834014   7.185   0.989   1.985  0.8558 -0.4919  0.2138
  279MOL   Cl9934015   7.221   1.167   1.969 -0.0833  0.0901 -0.2356
  279MOL  Cl10034016   7.093   0.946   1.841 -0.0259 -0.1118 -0.1257
  279MOL   C10134017   7.316   0.895   1.986 -0.0388 -0.2459 -0.4560
  279MOL   H10234018   7.364   0.912   2.083 -1.1262 -1.3888  0.3011
  279MOL   H10334019   7.273   0.795   1.973  1.7400 -0.8925 -1.5241
  279MOL   C10434020   7.440   0.906   1.891 -0.1211 -0.4051 -0.3814
  279MOL  Cl10534021   7.512   1.073   1.895  0.2542 -0.1717 -0.0316
  279MOL  Cl10634022   7.373   0.871   1.735 -0.1307 -0.2573 -0.1588
  279MOL   C10734023   7.554   0.799   1.926  0.3317 -0.7238 -0.6460
  279MOL   H10834024   7.599   0.832   2.020  0.5200 -1.4201 -0.4895
  279MOL   H10934025   7.508   0.703   1.945 -1.6219  0.4437  0.7044
  279MOL   C11034026   7.682   0.782   1.834  0.1730 -0.5523  0.0235
  279MOL  Cl11134027   7.648   0.714   1.671 -0.2104  0.4694  0.5641
  279MOL  Cl11234028   7.787   0.666   1.918 -0.1213 -0.1246 -0.3014
  279MOL   C11334029   7.770   0.911   1.805  0.1523 -0.2080  0.3096
  279MOL   H11434030   7.716   0.985   1.747 -1.1049 -1.4189 -0.1067
  279MOL   H11534031   7.773   0.975   1.892  0.1885  0.7524 -0.3926
  279MOL   C11634032   7.923   0.903   1.767  0.1745 -0.2964 -0.0383
  279MOL  Cl11734033   8.025   0.873   1.917  0.2514 -0.0553  0.1832
  279MOL  Cl11834034   7.980   1.054   1.692 -0.1842  0.0933  0.2983
  279MOL   C11934035   7.955   0.799   1.659 -0.3899  0.6424  0.5697
  279MOL   H12034036   8.060   0.808   1.630 -0.0077 -1.5277  1.1628
  279MOL   H12134037   7.942   0.695   1.687  1.4560  0.2392  0.0400
  279MOL   H12234038   7.889   0.821   1.575 -0.7566 -1.4779  0.2677
  280MOL     C134039   7.046   1.009   7.483 -0.6047 -0.3275 -0.1979
  280MOL    Cl234040   6.923   0.885   7.503  0.0647 -0.2144 -0.1289
  280MOL    Cl334041   7.196   0.942   7.558  0.0751  0.1816 -0.1133
  280MOL     C434042   7.050   1.052   7.333 -0.2035 -0.2609 -0.0802
  280MOL     H534043   7.076   0.963   7.275 -0.8126 -0.9387  0.6631
  280MOL     H634044   6.946   1.069   7.305  0.2466  2.0350 -0.3976
  280MOL     H734045   7.015   1.099   7.537  1.6422 -0.8941  2.1742
  280MOL     C834046   7.131   1.175   7.292 -0.2265  0.1044 -0.2636
  280MOL    Cl934047   7.088   1.308   7.404  0.2382 -0.4333  0.0974
  280MOL   Cl1034048   7.096   1.217   7.124  0.0627 -0.2068 -0.0202
  280MOL    C1134049   7.288   1.156   7.307  0.1958  0.2441  0.2782
  280MOL    H1234050   7.307   1.140   7.413  1.0829 -1.8583 -0.1703
  280MOL    H1334051   7.315   1.058   7.267  0.0471  0.4107 -0.2274
  280MOL    C1434052   7.392   1.258   7.244  0.0932  0.3309  0.3942
  280MOL   Cl1534053   7.433   1.170   7.099  0.0496  0.1073  0.2872
  280MOL   Cl1634054   7.536   1.257   7.345 -0.0977 -0.1134 -0.3022
  280MOL    C1734055   7.345   1.404   7.212 -0.1255  0.1247 -0.1149
  280MOL    H1834056   7.257   1.408   7.147  0.1140  1.1196 -0.3797
  280MOL    H1934057   7.309   1.446   7.305  1.7169  0.0182  0.6643
  280MOL    C2034058   7.450   1.517   7.167 -0.3210 -0.0030  0.0177
  280MOL   Cl2134059   7.543   1.461   7.030  0.4346  0.2567 -0.2595
  280MOL   Cl2234060   7.554   1.547   7.301  0.0469 -0.1001  0.1848
  280MOL    C2334061   7.374   1.650   7.133  0.0069 -1.3662  0.0793
  280MOL    H2434062   7.445   1.733   7.124 -1.2549 -0.2482  0.2788
  280MOL    H2534063   7.331   1.634   7.034  0.2187  1.7815 -0.5796
  280MOL    C2634064   7.269   1.722   7.237  0.9273  0.0604  0.8673
  280MOL   Cl2734065   7.119   1.622   7.222 -0.0269  0.3755  0.0245
  280MOL   Cl2834066   7.225   1.877   7.149 -0.0617  0.1010 -0.0600
  280MOL    C2934067   7.317   1.757   7.380  0.0658  0.2117 -0.0949
  280MOL    H3034068   7.372   1.669   7.414 -0.8387 -0.8476 -1.3498
  280MOL    H3134069   7.396   1.832   7.372  0.3518 -0.0506  0.2481
  280MOL    C3234070   7.217   1.802   7.487  0.4423  0.5404  0.4745
  280MOL   Cl3334071   7.324   1.823   7.634  0.1464 -0.3027  0.1004
  280MOL   Cl3434072   7.105   1.666   7.515 -0.1659 -0.4968 -0.2551
  280MOL    C3534073   7.148   1.936   7.455  0.2300 -0.5087 -0.2828
  280MOL    H3634074   7.230   1.987   7.405 -0.6922  1.3888  0.0974
  280MOL    H3734075   7.064   1.907   7.392 -0.3794  0.9975 -0.1938
  280MOL    C3834076   7.084   2.024   7.568 -0.7732 -0.0608  0.1052
  280MOL   Cl3934077   6.983   2.140   7.488  0.0860 -0.1945 -0.3447
  280MOL   Cl4034078   7.214   2.117   7.642 -0.1140 -0.0221 -0.0457
  280MOL    C4134079   7.002   1.940   7.673 -0.3281  0.4896 -0.3659
  280MOL    H4234080   6.921   1.897   7.613  0.5266 -2.1719  0.3081
  280MOL    H4334081   7.053   1.851   7.709 -0.0462  0.3635 -1.0582
  280MOL    C4434082   6.941   2.005   7.801 -0.3364  0.8217  0.9484
  280MOL   Cl4534083   6.889   2.174   7.775  0.1503  0.0689 -0.1309
  280MOL   Cl4634084   7.073   2.006   7.925 -0.1583 -0.1104 -0.2293
  280MOL    C4734085   6.815   1.929   7.851  0.5659  0.1186  0.2098
  280MOL    H4834086   6.726   1.973   7.805  0.8133 -0.1005 -0.4927
  280MOL    H4934087   6.805   1.829   7.810 -2.2238  0.5997 -0.3981
  280MOL    C5034088   6.780   1.917   8.002  0.1568 -0.3090 -0.3031
  280MOL   Cl5134089   6.892   1.814   8.093  0.2785 -0.4243 -0.1867
  280MOL   Cl5234090   6.610   1.840   8.016 -0.3470 -0.1619  0.2480
  280MOL    C5334091   6.777   2.060   8.067 -1.1785  0.2152  0.6190
  280MOL    H5434092   6.881   2.090   8.060 -0.4830 -1.9777  1.2508
  280MOL    H5534093   6.719   2.134   8.012  1.2075  1.1695 -0.6911
  280MOL    C5634094   6.723   2.077   8.214  0.5915 -0.2229 -0.2204
  280MOL   Cl5734095   6.546   2.090   8.204 -0.6135  0.1254 -0.3838
  280MOL   Cl5834096   6.756   2.246   8.262  0.0924 -0.3910  0.1814
  280MOL    C5934097   6.760   1.971   8.326  0.0213  0.3249 -0.8568
  280MOL    H6034098   6.685   1.982   8.405  1.2342 -1.2905  0.5854
  280MOL    H6134099   6.724   1.871   8.303  0.1199  0.0582  0.1079
  280MOL    C6234100   6.903   1.975   8.399  0.2267  0.4255 -0.2617
  280MOL   Cl6334101   6.891   2.102   8.527 -0.0039 -0.2158 -0.0483
  280MOL   Cl6434102   7.039   2.025   8.290  0.4132  0.0676  0.0361
  280MOL    C6534103   6.951   1.831   8.449  0.2309 -0.8688 -0.6685
  280MOL    H6634104   6.870   1.759   8.450  0.8634 -1.6141  2.8738
  280MOL    H6734105   7.007   1.794   8.364  3.1495  1.3327  0.2122
  280MOL    C6834106   7.025   1.816   8.582 -0.4462 -0.1053 -0.0296
  280MOL   Cl6934107   7.092   1.651   8.546 -0.1079 -0.0280 -0.3730
  280MOL   Cl7034108   6.911   1.813   8.724 -0.2172  0.1077  0.1333
  280MOL    C7134109   7.146   1.906   8.605  0.0981  0.5494 -0.0340
  280MOL    H7234110   7.203   1.889   8.514  0.9462  0.5833  0.4841
  280MOL    H7334111   7.101   2.006   8.610  0.5140  0.6942  0.9969
  280MOL    C7434112   7.251   1.893   8.726  0.1070  0.2077 -0.1545
  280MOL   Cl7534113   7.316   1.729   8.740  0.3421  0.0558  0.4352
  280MOL   Cl7634114   7.170   1.943   8.882 -0.0575 -0.2217  0.0508
  280MOL    C7734115   7.369   1.994   8.719 -0.4153  0.0909 -0.0942
  280MOL    H7834116   7.418   1.971   8.814  0.9774  0.6403 -0.6701
  280MOL    H7934117   7.436   1.961   8.640 -1.2658 -0.9143 -0.4091
  280MOL    C8034118   7.360   2.147   8.682 -0.7801  0.3250  0.3183
  280MOL   Cl8134119   7.216   2.221   8.772  0.2348  0.2640  0.3755
  280MOL   Cl8234120   7.323   2.158   8.506 -0.0713 -0.0770  0.2165
  280MOL    C8334121   7.497   2.216   8.711  0.4730  0.7145  0.2309
  280MOL    H8434122   7.507   2.203   8.819 -4.2681  0.2104  0.7411
  280MOL    H8534123   7.581   2.164   8.665  0.4695  0.5047  0.4583
  280MOL    C8634124   7.519   2.369   8.696 -0.3303  0.4548 -0.2193
  280MOL   Cl8734125   7.686   2.400   8.760  0.2392 -0.0115 -0.0278
  280MOL   Cl8834126   7.406   2.463   8.805  0.2720  0.0173 -0.2165
  280MOL    C8934127   7.507   2.421   8.549  0.0055 -0.6939  0.0146
  280MOL    H9034128   7.549   2.349   8.479  2.2219  0.2350  0.3510
  280MOL    H9134129   7.401   2.413   8.522  0.5048  1.3091 -2.8464
  280MOL    C9234130   7.571   2.561   8.500 -0.0026  0.6329  0.1076
  280MOL   Cl9334131   7.503   2.593   8.333 -0.2126 -0.1990  0.0094
  280MOL   Cl9434132   7.750   2.541   8.476  0.0888 -0.1212  0.4133
  280MOL    C9534133   7.540   2.673   8.602  0.0613 -0.3605 -0.6348
  280MOL    H9634134   7.442   2.675   8.649  1.0079 -0.8128  1.4519
  280MOL    H9734135   7.607   2.648   8.685 -0.7888 -0.4398  0.0346
  280MOL    C9834136   7.557   2.824   8.567 -0.1832 -0.9866  0.1090
  280MOL   Cl9934137   7.540   2.912   8.728 -0.3147  0.1437  0.3601
  280MOL  Cl10034138   7.427   2.875   8.471  0.1309  0.0277 -0.2904
  280MOL   C10134139   7.690   2.856   8.502 -0.7358  0.3714  0.2109
  280MOL   H10234140   7.769   2.837   8.575  0.7216  1.0837 -1.1553
  280MOL   H10334141   7.710   2.794   8.415 -0.8134  2.4095 -1.3068
  280MOL   C10434142   7.727   2.998   8.438 -0.0840  0.1031  0.0906
  280MOL  Cl10534143   7.670   3.005   8.269 -0.1008 -0.4348  0.0253
  280MOL  Cl10634144   7.906   3.003   8.445  0.2615  0.1911 -0.2434
  280MOL   C10734145   7.669   3.124   8.526  0.6193  0.0886 -0.0843
  280MOL   H10834146   7.562   3.100   8.535  0.4299 -1.0078 -4.1998
  280MOL   H10934147   7.724   3.139   8.619 -0.2374  0.5072  0.3641
  280MOL   C11034148   7.664   3.274   8.468 -0.1492 -0.2231 -0.6846
  280MOL  Cl11134149   7.617   3.389   8.593  0.4681 -0.0455  0.4094
  280MOL  Cl11234150   7.548   3.284   8.341  0.4145  0.1425 -0.2488
  280MOL   C11334151   7.804   3.313   8.413  0.4372 -0.7812  1.1289
  280MOL   H11434152   7.868   3.333   8.499  0.4639 -0.8599  1.1271
  280MOL   H11534153   7.838   3.226   8.356 -1.0029 -0.7582  0.2052
  280MOL   C11634154   7.819   3.434   8.308  0.1946  0.0402  0.7699
  280MOL  Cl11734155   7.722   3.570   8.343  0.2509  0.0972 -0.1019
  280MOL  Cl11834156   7.777   3.385   8.135 -0.2829 -0.3580  0.1348
  280MOL   C11934157   7.966   3.485   8.293 -0.2817 -0.4232 -0.3740
  280MOL   H12034158   8.023   3.392   8.284  1.4457  0.4447  1.2961
  280MOL   H12134159   7.986   3.550   8.208  0.3773  0.9987  0.8597
  280MOL   H12234160   8.008   3.526   8.384 -0.7076  0.7223 -0.6901
  281MOL     C134161   0.543   7.161   0.338 -0.5178 -0.2979  0.3964
  281MOL    Cl234162   0.575   6.997   0.272 -0.3091  0.0966  0.0643
  281MOL    Cl334163   0.567   7.161   0.513 -0.0991 -0.2293  0.0099
  281MOL     C434164   0.637   7.268   0.272 -0.4108 -0.3413  0.0890
  281MOL     H534165   0.669   7.343   0.344 -4.5085  1.4720  0.1321
  281MOL     H634166   0.730   7.217   0.249  0.3003  0.5686  0.9084
  281MOL     H734167   0.439   7.185   0.319  0.0877  0.5629 -2.0815
  281MOL     C834168   0.574   7.335   0.141 -0.5369  0.7932  0.3387
  281MOL    Cl934169   0.426   7.425   0.190  0.3760 -0.2553  0.0333
  281MOL   Cl1034170   0.540   7.206   0.026 -0.1300 -0.4661 -0.1935
  281MOL    C1134171   0.676   7.440   0.078 -0.1427 -0.2141 -0.1256
  281MOL    H1234172   0.711   7.503   0.160 -3.0723 -0.1433  1.1322
  281MOL    H1334173   0.759   7.375   0.050 -0.7385 -0.5905 -1.0293
  281MOL    C1434174   0.629   7.526   9.134 -0.1103  0.0499  0.3884
  281MOL   Cl1534175   0.496   7.634   9.174 -0.1586  0.1123 -0.0995
  281MOL   Cl1634176   0.571   7.424   8.997 -0.8586 -0.1951  0.2114
  281MOL    C1734177   0.743   7.608   9.077  0.1897 -1.0332 -0.1371
  281MOL    H1834178   0.803   7.549   9.009 -1.3259 -1.9964 -0.6674
  281MOL    H1934179   0.690   7.684   9.019  0.3490 -0.7682  0.0636
  281MOL    C2034180   0.837   7.697   9.165 -0.1051  0.4607 -0.2415
  281MOL   Cl2134181   0.946   7.592   0.073  0.4173 -0.4118  0.1210
  281MOL   Cl2234182   0.738   7.796   0.098  0.4077  0.0266 -0.2073
  281MOL    C2334183   0.941   7.783   9.076 -0.3631  0.0656  0.1160
  281MOL    H2434184   0.995   7.840   9.152  0.0369 -0.3712  0.1554
  281MOL    H2534185   1.018   7.721   9.031  0.2063  2.0151 -1.6514
  281MOL    C2634186   0.883   7.889   8.974 -0.8129 -0.3206  0.6173
  281MOL   Cl2734187   0.727   7.961   9.024  0.3652  0.0117  0.1933
  281MOL   Cl2834188   0.848   7.802   8.824 -0.4354  0.1404  0.1175
  281MOL    C2934189   0.980   8.013   8.939  0.4937 -0.1072  0.1154
  281MOL    H3034190   0.932   8.046   8.847  1.6170  1.5452  0.0968
  281MOL    H3134191   0.964   8.086   9.019  1.5756 -1.9096  2.0572
  281MOL    C3234192   1.134   8.002   8.919  0.4780 -0.5282 -0.4764
  281MOL   Cl3334193   1.188   7.852   8.835 -0.0953 -0.4290  0.1050
  281MOL   Cl3434194   1.221   7.999   9.078  0.1944 -0.2411  0.4664
  281MOL    C3534195   1.188   8.117   8.821  0.7466 -0.4475  0.2740
  281MOL    H3634196   1.294   8.091   8.817  0.4846 -1.3010 -1.6013
  281MOL    H3734197   1.143   8.085   8.728  2.1793 -1.1585 -0.1867
  281MOL    C3834198   1.164   8.269   8.848  0.0588 -0.5857 -0.1336
  281MOL   Cl3934199   1.242   8.312   9.004 -0.1215  0.2183 -0.0104
  281MOL   Cl4034200   0.987   8.320   8.873 -0.1251 -0.3402 -0.1330
  281MOL    C4134201   1.234   8.368   8.747  0.5303  0.4672 -0.2352
  281MOL    H4234202   1.224   8.466   8.793  0.1088  0.7595 -0.9323
  281MOL    H4334203   1.340   8.343   8.759  0.0735 -1.6940 -0.5086
  281MOL    C4434204   1.208   8.372   8.592  0.1315  0.2133  0.2111
  281MOL   Cl4534205   1.036   8.399   8.561 -0.1475  0.2552 -0.1678
  281MOL   Cl4634206   1.254   8.213   8.523 -0.4652 -0.0130 -0.1873
  281MOL    C4734207   1.281   8.471   8.503 -0.2046 -0.4798  0.6968
  281MOL    H4834208   1.264   8.446   8.399 -0.4357  0.7699  0.4266
  281MOL    H4934209   1.239   8.570   8.522  0.5551  0.0360 -0.3114
  281MOL    C5034210   1.431   8.501   8.510 -0.5277  0.3015  0.3838
  281MOL   Cl5134211   1.522   8.344   8.510 -0.1169 -0.3930 -0.0123
  281MOL   Cl5234212   1.463   8.581   8.667 -0.1053 -0.1045 -0.2250
  281MOL    C5334213   1.498   8.596   8.400  0.4357  0.3292 -0.4409
  281MOL    H5434214   1.586   8.627   8.456 -0.0464  0.0374  0.4963
  281MOL    H5534215   1.539   8.545   8.313 -0.0317  1.6188 -1.4297
  281MOL    C5634216   1.421   8.723   8.345 -0.1511 -0.1076 -0.0651
  281MOL   Cl5734217   1.348   8.817   8.481 -0.3028 -0.1488 -0.3024
  281MOL   Cl5834218   1.288   8.666   8.242  0.2143  0.1719 -0.1205
  281MOL    C5934219   1.506   8.833   8.269 -0.0428  0.2844  0.4296
  281MOL    H6034220   1.452   8.911   8.214  0.9727  0.8000  0.1478
  281MOL    H6134221   1.570   8.895   8.332 -0.0865 -0.2928  1.0470
  281MOL    C6234222   1.611   8.792   8.162  0.5222 -0.2429 -0.4582
  281MOL   Cl6334223   1.537   8.708   8.030 -0.1233  0.4988  0.3662
  281MOL   Cl6434224   1.737   8.686   8.233 -0.4934  0.2253  0.4405
  281MOL    C6534225   1.694   8.920   8.113  0.4131  0.2407  0.4793
  281MOL    H6634226   1.772   8.941   8.187  0.7873  0.5478  0.0092
  281MOL    H6734227   1.754   8.885   8.028  1.0708  2.8202 -0.1700
  281MOL    C6834228   1.631   9.058   8.087 -0.8166 -0.5294  0.5966
  281MOL   Cl6934229   1.576   9.137   8.242 -0.2278 -0.1646  0.2170
  281MOL   Cl7034230   1.511   9.034   7.956  0.1866  0.0819 -0.2860
  281MOL    C7134231   1.747   9.145   8.026  0.3049  0.4073  0.2715
  281MOL    H7234232   1.834   9.115   8.085 -0.8543 -2.4042  0.6141
  281MOL    H7334233   1.771   9.109   7.927 -1.1046 -0.2617  0.1723
  281MOL    C7434234   1.734   0.121   8.026 -0.2687 -0.5113 -0.3366
  281MOL   Cl7534235   1.872   0.186   7.931 -0.1586  0.0797 -0.1897
  281MOL   Cl7634236   1.762   0.183   8.188 -0.0379  0.5021  0.0043
  281MOL    C7734237   1.601   0.180   7.969  0.5204  0.0030  0.7124
  281MOL    H7834238   1.600   0.149   7.864 -0.7296  1.1713  0.3747
  281MOL    H7934239   1.521   0.118   8.009 -1.3062  2.2128  0.5961
  281MOL    C8034240   1.552   0.328   7.980 -0.2005 -1.0472 -0.0281
  281MOL   Cl8134241   1.407   0.350   7.878 -0.0563  0.2059 -0.0357
  281MOL   Cl8234242   1.679   0.437   7.921 -0.1773 -0.2489 -0.0953
  281MOL    C8334243   1.515   0.371   8.124  0.0451 -0.0167  0.4692
  281MOL    H8434244   1.462   0.289   8.172  0.3830 -0.8879 -0.6423
  281MOL    H8534245   1.615   0.391   8.161  0.5070 -1.4124 -0.0027
  281MOL    C8634246   1.429   0.500   8.155  0.6540  0.0650 -0.4343
  281MOL   Cl8734247   1.247   0.470   8.130 -0.1856  0.0751 -0.0254
  281MOL   Cl8834248   1.480   0.636   8.052  0.3139 -0.2925 -0.0348
  281MOL    C8934249   1.448   0.568   8.298 -0.0485  0.9830  0.3764
  281MOL    H9034250   1.549   0.610   8.304 -0.4833  1.7959  2.3756
  281MOL    H9134251   1.389   0.659   8.311  1.9600  2.3448  0.3765
  281MOL    C9234252   1.418   0.481   8.428  0.6679 -0.0334  0.3961
  281MOL   Cl9334253   1.494   0.319   8.423  0.0224  0.0436  0.0921
  281MOL   Cl9434254   1.242   0.464   8.451  0.1868  0.2058 -0.0859
  281MOL    C9534255   1.458   0.554   8.561  0.6885 -1.0926 -0.3112
  281MOL    H9634256   1.378   0.627   8.576  0.6002 -1.2163 -0.1734
  281MOL    H9734257   1.429   0.485   8.641  3.1178  0.1645  1.7167
  281MOL    C9834258   1.596   0.629   8.595  0.2923 -0.4193 -0.5637
  281MOL   Cl9934259   1.596   0.674   8.770  0.1559 -0.1505  0.0339
  281MOL  Cl10034260   1.623   0.777   8.498  0.0679 -0.0435 -0.0217
  281MOL   C10134261   1.714   0.528   8.577 -0.6681 -0.3540  0.6801
  281MOL   H10234262   1.712   0.463   8.664  0.3418 -1.3257 -0.0160
  281MOL   H10334263   1.702   0.467   8.488 -0.3270  2.5427 -1.4365
  281MOL   C10434264   1.856   0.579   8.556  0.1591 -0.2118 -0.1543
  281MOL  Cl10534265   1.872   0.639   8.383  0.2223 -0.1489 -0.0063
  281MOL  Cl10634266   1.948   0.427   8.564  0.1719  0.0540 -0.3303
  281MOL   C10734267   1.914   0.686   8.656  0.2194 -0.0338 -0.2841
  281MOL   H10834268   1.871   0.784   8.634 -1.0762 -1.0266 -2.3374
  281MOL   H10934269   1.884   0.655   8.756  0.8396  0.8802  0.1992
  281MOL   C11034270   2.060   0.720   8.667 -0.7725 -0.4344  0.2789
  281MOL  Cl11134271   2.143   0.728   8.507 -0.3513  0.1267 -0.2045
  281MOL  Cl11234272   2.153   0.593   8.746 -0.1690 -0.3498  0.0629
  281MOL   C11334273   2.087   0.853   8.750 -0.2044 -0.0263 -0.0131
  281MOL   H11434274   2.098   0.833   8.857 -1.6343  1.7563  0.4902
  281MOL   H11534275   2.183   0.891   8.718  1.4202 -2.1123  2.1693
  281MOL   C11634276   2.003   0.983   8.740  0.3425  0.0540  0.3609
  281MOL  Cl11734277   1.846   0.958   8.812 -0.0097  0.0869 -0.0442
  281MOL  Cl11834278   1.975   1.026   8.571  0.0175  0.0197  0.0334
  281MOL   C11934279   2.063   1.100   8.813  1.3006 -0.0267 -0.5477
  281MOL   H12034280   1.990   1.180   8.804  0.6370 -0.3023  1.9024
  281MOL   H12134281   2.081   1.070   8.917 -0.5621 -0.1290 -0.2270
  281MOL   H12234282   2.157   1.139   8.775  1.8609 -0.2567  0.5872
  282MOL     C134283   3.204   7.933   5.180 -0.6599 -0.3353 -0.6179
  282MOL    Cl234284   3.119   7.777   5.174  0.3664  0.0759  0.0030
  282MOL    Cl334285   3.294   7.947   5.020  0.2436 -0.0345 -0.0766
  282MOL     C434286   3.107   8.059   5.197 -0.3004  0.0278 -1.1469
  282MOL     H534287   3.153   8.147   5.151  1.1511 -0.1933 -0.1525
  282MOL     H634288   3.027   8.034   5.128 -1.4257  0.5028 -0.0517
  282MOL     H734289   3.279   7.929   5.258 -1.1818 -0.8539 -0.1318
  282MOL     C834290   3.049   8.093   5.343 -0.0436  0.4521 -0.0197
  282MOL    Cl934291   3.177   8.188   5.424  0.3411 -0.0065 -0.0071
  282MOL   Cl1034292   3.022   7.956   5.457 -0.0458 -0.1083  0.0709
  282MOL    C1134293   2.927   8.184   5.315 -0.2547 -0.5440  0.4533
  282MOL    H1234294   2.900   8.240   5.404 -1.9003  2.1367 -1.6417
  282MOL    H1334295   2.951   8.252   5.233  0.7741  1.2622  2.2062
  282MOL    C1434296   2.786   8.126   5.288 -0.0973  0.0200  0.8730
  282MOL   Cl1534297   2.719   8.080   5.447  0.2747 -0.2437 -0.2860
  282MOL   Cl1634298   2.788   7.985   5.179  0.1204  0.5816  0.2299
  282MOL    C1734299   2.679   8.220   5.230 -0.4322  0.1320 -0.5329
  282MOL    H1834300   2.605   8.145   5.200  0.9866 -1.4744 -0.0783
  282MOL    H1934301   2.629   8.273   5.312 -1.1640 -2.4260  0.7225
  282MOL    C2034302   2.709   8.322   5.115 -0.0494  0.4750  0.0683
  282MOL   Cl2134303   2.836   8.258   5.007 -0.2223  0.3822 -0.1783
  282MOL   Cl2234304   2.755   8.474   5.198 -0.2585 -0.3554 -0.1766
  282MOL    C2334305   2.590   8.349   5.021  0.4142 -0.6292  0.5739
  282MOL    H2434306   2.636   8.423   4.955  0.8075 -1.0102  0.4244
  282MOL    H2534307   2.579   8.263   4.955 -1.8025  0.0965 -0.0527
  282MOL    C2634308   2.451   8.394   5.063 -0.8063 -0.1706 -0.5515
  282MOL   Cl2734309   2.448   8.542   5.163 -0.0795 -0.1266 -0.0429
  282MOL   Cl2834310   2.362   8.263   5.155  0.0738  0.1425 -0.5104
  282MOL    C2934311   2.368   8.424   4.931  0.4152  0.0174  0.5830
  282MOL    H3034312   2.264   8.430   4.960  0.7582  2.2867  1.4573
  282MOL    H3134313   2.388   8.525   4.896  2.3555 -1.6685 -3.5780
  282MOL    C3234314   2.377   8.329   4.807 -0.5707 -0.5403  0.3484
  282MOL   Cl3334315   2.371   8.148   4.853  0.3807 -0.0908  0.1921
  282MOL   Cl3434316   2.531   8.359   4.719 -0.1703  0.3396  0.2764
  282MOL    C3534317   2.273   8.350   4.696  0.0862 -0.2077  0.1974
  282MOL    H3634318   2.310   8.290   4.613  0.4942  0.6294 -0.2256
  282MOL    H3734319   2.185   8.303   4.740 -0.5917  1.4922  0.7129
  282MOL    C3834320   2.224   8.490   4.644 -0.4927 -0.7635 -0.2989
  282MOL   Cl3934321   2.355   8.592   4.574  0.6727 -0.0683  0.2490
  282MOL   Cl4034322   2.160   8.573   4.781  0.2692  0.1946 -0.3791
  282MOL    C4134323   2.111   8.478   4.535  0.5849  0.0608 -0.5989
  282MOL    H4234324   2.022   8.436   4.582  0.6829  1.8286  1.2281
  282MOL    H4334325   2.079   8.576   4.501 -0.1304 -0.4339 -1.3677
  282MOL    C4434326   2.129   8.393   4.409  0.0582  0.0619 -0.2749
  282MOL   Cl4534327   2.138   8.215   4.445 -0.1431  0.0535 -0.0921
  282MOL   Cl4634328   2.268   8.436   4.307  0.3214 -0.0224 -0.0469
  282MOL    C4734329   2.004   8.393   4.303  0.3450  0.9563 -0.3046
  282MOL    H4834330   2.046   8.338   4.218 -0.4987 -1.7760  0.9993
  282MOL    H4934331   1.920   8.342   4.349  2.6521  0.4342  3.5003
  282MOL    C5034332   1.935   8.522   4.248  0.0956 -0.1162  0.3742
  282MOL   Cl5134333   1.829   8.593   4.368 -0.4001 -0.0211 -0.2723
  282MOL   Cl5234334   1.823   8.458   4.123 -0.2977 -0.2817 -0.1255
  282MOL    C5334335   2.044   8.625   4.192  0.2618  0.4014 -0.8349
  282MOL    H5434336   2.099   8.661   4.278  0.5641  0.1758 -0.9321
  282MOL    H5534337   2.113   8.574   4.123  2.7000  1.2413  0.9278
  282MOL    C5634338   1.997   8.750   4.112  0.1548  0.5024  0.1950
  282MOL   Cl5734339   1.897   8.850   4.219  0.2332  0.1355  0.2960
  282MOL   Cl5834340   1.900   8.721   3.966 -0.2590 -0.4799 -0.2800
  282MOL    C5934341   2.115   8.843   4.075  0.4846 -0.0070 -0.4752
  282MOL    H6034342   2.164   8.797   3.990  3.7941  0.3387  1.1574
  282MOL    H6134343   2.066   8.936   4.049 -1.6685 -1.3176 -1.2326
  282MOL    C6234344   2.229   8.888   4.164 -0.0924 -0.0630  0.2525
  282MOL   Cl6334345   2.328   9.000   4.075  0.3836 -0.2143  0.3059
  282MOL   Cl6434346   2.332   8.735   4.176  0.2076 -0.2377  0.2482
  282MOL    C6534347   2.205   8.953   4.304  0.0124  0.4090 -0.8940
  282MOL    H6634348   2.129   8.890   4.348 -0.2480  1.4550  0.1904
  282MOL    H6734349   2.300   8.946   4.357  0.4027  1.8241 -1.3720
  282MOL    C6834350   2.144   9.094   4.327  0.0515  0.2857 -0.4122
  282MOL   Cl6934351   2.028   9.140   4.198 -0.4174  0.3237 -0.0796
  282MOL   Cl7034352   2.276   0.028   4.329 -0.0639 -0.0711 -0.0970
  282MOL    C7134353   2.057   9.109   4.458 -0.3567 -0.3837 -0.0644
  282MOL    H7234354   2.020   0.032   4.461  0.6056  0.0186 -1.3850
  282MOL    H7334355   1.964   9.055   4.445 -0.3069 -0.5737  0.3569
  282MOL    C7434356   2.106   9.079   4.605 -0.1149  0.2094  0.1773
  282MOL   Cl7534357   2.256   9.171   4.640  0.3159  0.1849 -0.2410
  282MOL   Cl7634358   2.159   8.909   4.624 -0.1218  0.2754  0.0335
  282MOL    C7734359   1.997   9.107   4.715 -0.2621 -0.1960  0.8072
  282MOL    H7834360   1.965   0.030   4.700  1.0950 -0.1697 -2.1269
  282MOL    H7934361   1.909   9.053   4.682 -0.1059 -0.0722  0.1789
  282MOL    C8034362   2.012   9.076   4.870  0.2998  0.1719  0.2575
  282MOL   Cl8134363   2.017   8.900   4.891  0.3999 -0.0595 -0.2524
  282MOL   Cl8234364   1.861   9.135   4.936 -0.4658  0.1029  0.0396
  282MOL    C8334365   2.127   9.153   4.931  0.3736  0.0759 -0.8747
  282MOL    H8434366   2.215   9.097   4.898  1.0785  1.0808 -0.7125
  282MOL    H8534367   2.125   0.069   4.879 -2.4601 -0.3309 -1.5952
  282MOL    C8634368   2.146   9.180   5.078 -0.9749 -0.2173  0.2111
  282MOL   Cl8734369   2.053   0.147   5.128 -0.0275  0.5109 -0.2512
  282MOL   Cl8834370   2.322   0.032   5.081 -0.0739  0.1599  0.1392
  282MOL    C8934371   2.100   9.067   5.165 -0.4414 -0.2394  0.2029
  282MOL    H9034372   1.991   9.069   5.158 -0.4068  1.8536  0.0573
  282MOL    H9134373   2.115   8.974   5.110  0.3676 -0.4441  0.7584
  282MOL    C9234374   2.144   9.062   5.313  0.3940  0.5361  0.5524
  282MOL   Cl9334375   2.057   8.930   5.383 -0.1746  0.1151  0.2823
  282MOL   Cl9434376   2.071   0.021   5.406 -0.3750  0.0077  0.2533
  282MOL    C9534377   2.293   9.046   5.345 -0.6710 -0.1028 -0.3509
  282MOL    H9634378   2.340   9.141   5.319  1.2071 -0.8415  0.2325
  282MOL    H9734379   2.290   9.045   5.454 -1.8574 -3.4190 -0.3666
  282MOL    C9834380   2.377   8.921   5.298  0.0966  0.4026 -0.1771
  282MOL   Cl9934381   2.348   8.887   5.122  0.5577  0.1185 -0.3251
  282MOL  Cl10034382   2.344   8.769   5.399 -0.4552 -0.0173  0.1438
  282MOL   C10134383   2.534   8.956   5.295  0.0703  0.6041 -0.1862
  282MOL   H10234384   2.566   8.881   5.224 -1.0202 -0.2237  0.1725
  282MOL   H10334385   2.557   9.051   5.248 -1.8856  2.5506  2.5984
  282MOL   C10434386   2.625   8.952   5.425  0.4458 -0.1360  0.8984
  282MOL  Cl10534387   2.659   8.784   5.454  0.1245  0.3282 -0.0478
  282MOL  Cl10634388   2.549   9.013   5.570 -0.1861  0.1312  0.2442
  282MOL   C10734389   2.757   9.026   5.390 -0.1586 -0.0508 -0.1572
  282MOL   H10834390   2.783   9.006   5.286 -0.7144 -0.3201 -0.2470
  282MOL   H10934391   2.736   9.133   5.390  1.6827  0.3501 -2.1058
  282MOL   C11034392   2.883   8.990   5.466 -0.2327 -0.1678 -0.5232
  282MOL  Cl11134393   2.988   9.126   5.425 -0.3309 -0.2317 -0.2890
  282MOL  Cl11234394   2.965   8.844   5.393  0.3199 -0.0193  0.0205
  282MOL   C11334395   2.862   8.970   5.620 -0.1694  0.0449 -0.1833
  282MOL   H11434396   2.829   9.067   5.657 -0.7321  0.2322 -1.1715
  282MOL   H11534397   2.785   8.897   5.646 -1.0914  1.2250  0.4274
  282MOL   C11634398   2.989   8.936   5.713 -0.2737  0.2247 -0.1270
  282MOL  Cl11734399   2.941   8.921   5.878  0.3847  0.1096  0.4112
  282MOL  Cl11834400   3.102   9.070   5.715  0.0729 -0.2026 -0.0117
  282MOL   C11934401   3.064   8.808   5.682  0.2733  0.4195 -0.1615
  282MOL   H12034402   3.000   8.722   5.666 -0.0109  0.6037 -0.0098
  282MOL   H12134403   3.131   8.815   5.595  0.1061  1.2366 -0.2339
  282MOL   H12234404   3.110   8.787   5.779 -0.7817 -0.5891  0.1254
  283MOL     C134405   4.578   0.983   7.633  0.4550  0.5247  0.6740
  283MOL    Cl234406   4.754   0.993   7.684  0.2997  0.2572 -0.0526
  283MOL    Cl334407   4.541   1.126   7.533  0.3337  0.0364 -0.2040
  283MOL     C434408   4.564   0.845   7.567  0.2301 -0.1233  0.6195
  283MOL     H534409   4.637   0.848   7.487 -0.5947 -1.1107 -0.1911
  283MOL     H634410   4.606   0.768   7.632  0.2801 -0.6687 -0.0549
  283MOL     H734411   4.513   0.987   7.720 -0.5672  1.5199 -0.1240
  283MOL     C834412   4.422   0.802   7.521  0.0185 -0.1302  0.1445
  283MOL    Cl934413   4.305   0.828   7.654 -0.6039 -0.2690 -0.4252
  283MOL   Cl1034414   4.427   0.628   7.490 -0.2683  0.2108 -0.3015
  283MOL    C1134415   4.364   0.878   7.394  0.2994  0.5375  0.2879
  283MOL    H1234416   4.262   0.841   7.387  0.5795  0.0645 -1.5572
  283MOL    H1334417   4.345   0.982   7.421 -0.9895  0.3339  0.2166
  283MOL    C1434418   4.430   0.868   7.256  0.0792 -0.4604 -0.5826
  283MOL   Cl1534419   4.403   0.706   7.185 -0.0704  0.1042  0.2024
  283MOL   Cl1634420   4.599   0.917   7.261  0.0711 -0.1158  0.0721
  283MOL    C1734421   4.366   0.967   7.155 -0.0630  0.2086 -0.2211
  283MOL    H1834422   4.398   1.067   7.185 -1.9195  0.6316  0.4038
  283MOL    H1934423   4.398   0.946   7.053  3.4691  4.4060 -0.1256
  283MOL    C2034424   4.213   0.995   7.134 -0.0896  0.1408  0.3405
  283MOL   Cl2134425   4.123   1.066   7.279 -0.2036  0.2165  0.0773
  283MOL   Cl2234426   4.125   0.837   7.093 -0.3433 -0.4026 -0.1787
  283MOL    C2334427   4.182   1.090   7.013 -0.0852 -0.8142  0.4191
  283MOL    H2434428   4.192   1.032   6.921  0.6831  0.1994 -0.1570
  283MOL    H2534429   4.075   1.112   7.009 -0.2670 -1.9027 -1.6145
  283MOL    C2634430   4.246   1.230   6.996 -0.2716  0.4941  0.8735
  283MOL   Cl2734431   4.172   1.320   6.856  0.7118 -0.3468  0.1208
  283MOL   Cl2834432   4.417   1.201   6.947  0.0066 -0.3466  0.2756
  283MOL    C2934433   4.226   1.315   7.124 -0.6029 -0.2857 -0.6791
  283MOL    H3034434   4.119   1.321   7.144 -0.9467 -1.7218 -1.9327
  283MOL    H3134435   4.266   1.256   7.206  0.1108 -0.4615 -1.1527
  283MOL    C3234436   4.274   1.458   7.132 -0.0917 -0.3700 -0.6462
  283MOL   Cl3334437   4.189   1.572   7.015  0.4435  0.0275  0.3576
  283MOL   Cl3434438   4.450   1.469   7.097  0.2109 -0.0122  0.2891
  283MOL    C3534439   4.262   1.516   7.284  0.3011 -0.4722 -0.8756
  283MOL    H3634440   4.346   1.472   7.338 -0.0867 -1.0793 -0.7628
  283MOL    H3734441   4.293   1.620   7.269 -2.1862  0.1441 -1.9773
  283MOL    C3834442   4.128   1.508   7.371 -0.1652 -0.5968  0.3529
  283MOL   Cl3934443   4.138   1.345   7.436  0.4397 -0.5748 -0.4142
  283MOL   Cl4034444   3.987   1.519   7.274 -0.1780  0.0964  0.0601
  283MOL    C4134445   4.118   1.601   7.493  0.0149 -0.2388 -0.4755
  283MOL    H4234446   4.027   1.577   7.548 -1.5304  3.0848 -1.4307
  283MOL    H4334447   4.202   1.564   7.552 -0.9808 -2.2435 -0.2755
  283MOL    C4434448   4.130   1.753   7.481  0.2753  0.2422 -0.1781
  283MOL   Cl4534449   4.299   1.812   7.456  0.0836 -0.0164 -0.3160
  283MOL   Cl4634450   4.077   1.818   7.637  0.1582 -0.3816  0.1267
  283MOL    C4734451   4.039   1.816   7.367 -0.2062 -0.2933  0.3841
  283MOL    H4834452   4.075   1.918   7.349 -2.7760  0.4125 -0.9544
  283MOL    H4934453   4.057   1.764   7.273 -2.4147  0.0816 -0.2757
  283MOL    C5034454   3.892   1.850   7.383  0.0955  0.1305 -0.4248
  283MOL   Cl5134455   3.881   2.004   7.470  0.2632  0.3641 -0.1791
  283MOL   Cl5234456   3.807   1.715   7.473  0.1114  0.1970  0.1984
  283MOL    C5334457   3.822   1.865   7.247 -0.7710  0.3391 -0.2898
  283MOL    H5434458   3.881   1.947   7.208 -0.3361  0.9503  1.5939
  283MOL    H5534459   3.840   1.775   7.189  1.7165  0.1075  0.7819
  283MOL    C5634460   3.680   1.918   7.218 -1.0006 -0.8644  0.8247
  283MOL   Cl5734461   3.657   1.891   7.042  0.0775 -0.2406  0.0521
  283MOL   Cl5834462   3.662   2.088   7.267  0.1846  0.2614  0.5680
  283MOL    C5934463   3.573   1.842   7.295 -0.2627  0.3530  0.3466
  283MOL    H6034464   3.596   1.735   7.292 -0.1729  0.3623  0.7503
  283MOL    H6134465   3.595   1.872   7.397 -1.4285 -1.0990  1.0426
  283MOL    C6234466   3.420   1.854   7.266  0.4812 -0.6830 -0.2887
  283MOL   Cl6334467   3.345   1.775   7.401  0.4760  0.0026  0.0461
  283MOL   Cl6434468   3.393   1.745   7.127 -0.2688 -0.0872  0.3907
  283MOL    C6534469   3.356   1.999   7.252  0.4836 -0.4518  0.2649
  283MOL    H6634470   3.410   2.061   7.324  3.7752 -2.8759 -0.0510
  283MOL    H6734471   3.384   2.030   7.152 -1.2470 -1.1809 -0.4631
  283MOL    C6834472   3.198   2.023   7.262 -0.5960  0.1977  0.3280
  283MOL   Cl6934473   3.143   2.020   7.431 -0.1457 -0.1899 -0.2210
  283MOL   Cl7034474   3.119   1.889   7.176 -0.0971  0.1974  0.3704
  283MOL    C7134475   3.141   2.147   7.179 -0.5025 -0.4217  0.6778
  283MOL    H7234476   3.171   2.127   7.076 -0.4058 -2.5178  1.0786
  283MOL    H7334477   3.033   2.155   7.193 -0.5291 -1.5608  1.2417
  283MOL    C7434478   3.200   2.290   7.206  0.4097 -0.0438  0.8524
  283MOL   Cl7534479   3.372   2.291   7.171  0.0463 -0.0143 -0.2394
  283MOL   Cl7634480   3.172   2.344   7.378 -0.3245 -0.0753  0.2302
  283MOL    C7734481   3.137   2.390   7.116  0.4526  0.7672 -0.2210
  283MOL    H7834482   3.056   2.439   7.170  0.7764 -2.0481  3.0054
  283MOL    H7934483   3.206   2.475   7.118 -0.4757  1.5032  1.2815
  283MOL    C8034484   3.108   2.364   6.964 -0.3513 -0.5882  0.1720
  283MOL   Cl8134485   3.055   2.515   6.892  0.0642  0.4162 -0.2486
  283MOL   Cl8234486   2.963   2.260   6.944  0.0796  0.0772 -0.2119
  283MOL    C8334487   3.238   2.317   6.885 -0.2248 -0.1484  0.3733
  283MOL    H8434488   3.313   2.395   6.897 -1.9072  1.1778  2.7466
  283MOL    H8534489   3.270   2.221   6.927 -0.7464 -0.4673  0.0510
  283MOL    C8634490   3.247   2.276   6.737  0.2056  0.6573  0.5572
  283MOL   Cl8734491   3.200   2.417   6.632 -0.0680  0.1890  0.0730
  283MOL   Cl8834492   3.149   2.130   6.712 -0.0745 -0.2191 -0.3899
  283MOL    C8934493   3.390   2.251   6.674  0.5752  0.5377 -0.6005
  283MOL    H9034494   3.367   2.208   6.576  0.3154  0.3544 -0.4608
  283MOL    H9134495   3.443   2.343   6.653  0.9859  0.6171  0.7345
  283MOL    C9234496   3.491   2.162   6.751  0.5428 -0.4775  0.1802
  283MOL   Cl9334497   3.431   2.003   6.796  0.2141 -0.3098  0.2292
  283MOL   Cl9434498   3.538   2.246   6.900 -0.2225  0.0749  0.3358
  283MOL    C9534499   3.607   2.151   6.651  0.3885  0.0881  0.6793
  283MOL    H9634500   3.563   2.130   6.553  0.8696 -0.0478  0.4942
  283MOL    H9734501   3.651   2.249   6.636  2.7493 -0.6895  2.3178
  283MOL    C9834502   3.732   2.059   6.677  0.6324  0.4498 -0.2391
  283MOL   Cl9934503   3.810   2.104   6.831 -0.4150  0.3014 -0.2790
  283MOL  Cl10034504   3.841   2.104   6.547 -0.2685 -0.4697  0.4141
  283MOL   C10134505   3.727   1.901   6.678  0.5523 -0.0298  0.4655
  283MOL   H10234506   3.825   1.861   6.703  0.3878 -1.8514 -1.6297
  283MOL   H10334507   3.649   1.874   6.749 -0.3323  0.4610 -0.3001
  283MOL   C10434508   3.658   1.822   6.557  0.2410  0.5527 -0.6171
  283MOL  Cl10534509   3.751   1.837   6.408  0.1206  0.0898 -0.0158
  283MOL  Cl10634510   3.495   1.882   6.519 -0.0504 -0.0754  0.3131
  283MOL   C10734511   3.651   1.670   6.575 -0.8612  0.0118  0.5972
  283MOL   H10834512   3.577   1.652   6.653 -0.4890 -0.0310  0.9435
  283MOL   H10934513   3.604   1.629   6.486  0.0401 -0.2921  0.2617
  283MOL   C11034514   3.776   1.576   6.624  0.4490  0.0400 -0.0970
  283MOL  Cl11134515   3.796   1.595   6.797 -0.0405 -0.0358 -0.2176
  283MOL  Cl11234516   3.928   1.638   6.552 -0.1068 -0.5695 -0.1268
  283MOL   C11334517   3.754   1.423   6.586 -0.1164 -0.1903  0.4159
  283MOL   H11434518   3.724   1.414   6.481  0.5946 -0.4376  0.2308
  283MOL   H11534519   3.850   1.372   6.573  0.9716  1.8360  0.3762
  283MOL   C11634520   3.679   1.327   6.686  0.4682 -0.1918 -0.4866
  283MOL  Cl11734521   3.651   1.173   6.599  0.4144 -0.0459  0.0824
  283MOL  Cl11834522   3.528   1.397   6.743 -0.4310 -0.2953 -0.1138
  283MOL   C11934523   3.773   1.277   6.805 -0.1705  0.4212  0.0932
  283MOL   H12034524   3.719   1.213   6.874  0.5082 -0.5572 -0.2776
  283MOL   H12134525   3.860   1.215   6.781 -1.4088 -0.6317 -1.7349
  283MOL   H12234526   3.813   1.355   6.871  1.8558 -0.4535 -0.0532
  284MOL     C134527   5.955   8.096   0.250 -0.1914  0.2304  0.0677
  284MOL    Cl234528   5.872   8.235   0.185  0.4556  0.1124 -0.3958
  284MOL    Cl334529   6.090   8.067   0.138  0.6753  0.3117 -0.1892
  284MOL     C434530   6.003   8.131   0.393  0.2131 -0.4974 -0.2145
  284MOL     H534531   6.107   8.165   0.391  0.4359 -0.7041  4.2726
  284MOL     H634532   5.938   8.211   0.429  1.7828  1.3196 -1.3294
  284MOL     H734533   5.890   8.008   0.254  0.2332 -0.0478  0.9735
  284MOL     C834534   6.000   8.025   0.503  0.5027  0.3040 -0.3045
  284MOL    Cl934535   6.117   8.074   0.628  0.3952  0.0904  0.5012
  284MOL   Cl1034536   6.052   7.873   0.428 -0.2040 -0.3879  0.0116
  284MOL    C1134537   5.859   8.022   0.564  0.1709  0.4828  0.7288
  284MOL    H1234538   5.845   8.111   0.625  0.5753  1.7694 -1.0111
  284MOL    H1334539   5.786   8.035   0.484  0.4913  2.5583  0.7332
  284MOL    C1434540   5.807   7.892   0.640 -0.3874  0.4693 -0.6578
  284MOL   Cl1534541   5.764   7.775   0.515 -0.0386 -0.0331 -0.2977
  284MOL   Cl1634542   5.648   7.929   0.711  0.6532 -0.2359 -0.0124
  284MOL    C1734543   5.888   7.820   0.744  0.2596 -0.1090 -0.5138
  284MOL    H1834544   5.834   7.726   0.759 -1.7971  1.1664  0.3248
  284MOL    H1934545   5.982   7.794   0.696 -0.4507 -1.0087 -1.4462
  284MOL    C2034546   5.903   7.878   0.886 -0.5755 -0.6738  0.8314
  284MOL   Cl2134547   5.779   7.803   0.983  0.2196 -0.1582 -0.2354
  284MOL   Cl2234548   5.883   8.049   0.896  0.0172 -0.1478  0.2989
  284MOL    C2334549   6.051   7.865   0.934 -0.6194 -0.2869  0.2022
  284MOL    H2434550   6.096   7.911   0.846 -2.1878 -3.4700 -2.3493
  284MOL    H2534551   6.068   7.929   1.021 -0.8989 -1.1320  0.8816
  284MOL    C2634552   6.119   7.739   0.979 -0.0660 -0.1093 -0.5473
  284MOL   Cl2734553   6.102   7.611   0.864  0.3232 -0.2618 -0.0906
  284MOL   Cl2834554   6.047   7.680   1.132 -0.1091 -0.0910  0.2387
  284MOL    C2934555   6.274   7.761   0.994 -0.2205  0.8890 -0.3894
  284MOL    H3034556   6.291   7.798   1.095 -3.9126 -0.9735  1.0273
  284MOL    H3134557   6.320   7.663   1.002 -2.4416 -0.0486  1.7983
  284MOL    C3234558   6.355   7.853   0.892  0.4718  0.0364  0.0829
  284MOL   Cl3334559   6.334   8.035   0.923 -0.3638 -0.0447 -0.2400
  284MOL   Cl3434560   6.303   7.829   0.725 -0.7439  0.3394 -0.2881
  284MOL    C3534561   6.503   7.831   0.897 -0.2672 -0.1591 -0.0788
  284MOL    H3634562   6.556   7.915   0.851  0.3645  0.1869  1.2603
  284MOL    H3734563   6.522   7.850   1.003 -0.9055 -0.7735  0.1526
  284MOL    C3834564   6.582   7.697   0.872 -0.4708  0.0502  0.0155
  284MOL   Cl3934565   6.507   7.592   0.755  0.1897  0.4754  0.1863
  284MOL   Cl4034566   6.590   7.605   1.023  0.3376 -0.2531 -0.0169
  284MOL    C4134567   6.725   7.714   0.815  0.3354 -0.1716  0.0503
  284MOL    H4234568   6.769   7.614   0.811 -0.1144 -0.3924  0.5290
  284MOL    H4334569   6.718   7.734   0.709 -0.6109 -1.0856 -0.0668
  284MOL    C4434570   6.830   7.805   0.878  0.6684  0.2275  0.3347
  284MOL   Cl4534571   6.832   7.804   1.065  0.0966  0.2673 -0.3009
  284MOL   Cl4634572   6.782   7.979   0.830  0.2356  0.1974  0.3215
  284MOL    C4734573   6.971   7.772   0.843  0.3725  0.2942 -0.6968
  284MOL    H4834574   7.042   7.845   0.881  0.8670 -1.3082  1.5515
  284MOL    H4934575   6.989   7.678   0.895 -0.3824  0.8645  0.6287
  284MOL    C5034576   7.011   7.758   0.697  0.3337 -0.8082  0.0105
  284MOL   Cl5134577   6.988   7.920   0.599  0.3133 -0.3410 -0.3168
  284MOL   Cl5234578   6.929   7.629   0.602 -0.0535 -0.0897 -0.0876
  284MOL    C5334579   7.162   7.721   0.683 -0.0499 -0.1618  0.0586
  284MOL    H5434580   7.190   7.687   0.583 -1.3173 -0.3202 -0.2397
  284MOL    H5534581   7.220   7.813   0.682  0.0316 -0.2158 -1.1367
  284MOL    C5634582   7.231   7.611   0.783 -0.1224 -0.3011  0.3840
  284MOL   Cl5734583   7.234   7.670   0.954 -0.2880 -0.0712  0.1294
  284MOL   Cl5834584   7.404   7.619   0.732 -0.2528 -0.1216  0.1698
  284MOL    C5934585   7.173   7.463   0.785 -0.1920 -0.5212 -0.2892
  284MOL    H6034586   7.077   7.463   0.837  0.6322  0.5095  1.2562
  284MOL    H6134587   7.130   7.452   0.685 -2.0889  0.1376  0.4339
  284MOL    C6234588   7.241   7.333   0.844  0.1233 -0.0372  0.0480
  284MOL   Cl6334589   7.355   7.363   0.982 -0.1160  0.2332 -0.2006
  284MOL   Cl6434590   7.351   7.265   0.717 -0.0163  0.0923 -0.2280
  284MOL    C6534591   7.153   7.208   0.881  0.7797 -0.2360  0.7637
  284MOL    H6634592   7.122   7.154   0.791  1.9361  0.0402  0.1882
  284MOL    H6734593   7.227   7.140   0.922  0.5037 -0.0851  1.5133
  284MOL    C6834594   7.030   7.223   0.978 -0.1372 -0.7235 -1.1111
  284MOL   Cl6934595   6.889   7.281   0.884  0.3518 -0.3587  0.2989
  284MOL   Cl7034596   7.052   7.329   1.113 -0.1045 -0.2980  0.2745
  284MOL    C7134597   6.987   7.089   1.042  0.0820  0.0770  0.4225
  284MOL    H7234598   6.925   7.129   1.123  2.1208 -0.2985  2.2002
  284MOL    H7334599   6.910   7.044   0.979  1.1027 -0.5522 -0.3798
  284MOL    C7434600   7.082   6.978   1.092  0.6367 -0.0221 -0.3656
  284MOL   Cl7534601   7.222   7.043   1.185 -0.1969  0.0996 -0.2455
  284MOL   Cl7634602   7.141   6.878   0.962 -0.3669  0.0811  0.3219
  284MOL    C7734603   7.013   6.879   1.190  0.8225  0.7782 -0.3624
  284MOL    H7834604   7.084   6.804   1.224 -1.7789 -0.5403  2.4680
  284MOL    H7934605   6.988   6.940   1.277  0.7251  0.3499 -0.0863
  284MOL    C8034606   6.874   6.799   1.169 -0.0279  0.4524  0.4607
  284MOL   Cl8134607   6.741   6.925   1.154  0.1507 -0.0478  0.4199
  284MOL   Cl8234608   6.849   6.713   1.316  0.5647  0.0119 -0.0553
  284MOL    C8334609   6.877   6.704   1.045 -0.5885  0.0990  0.9578
  284MOL    H8434610   6.866   6.773   0.961  0.7599  0.4249  1.0254
  284MOL    H8534611   6.979   6.666   1.038  0.0167  1.4370  2.1536
  284MOL    C8634612   6.782   6.590   1.037 -0.1909 -0.4114 -0.1125
  284MOL   Cl8734613   6.825   6.458   1.141 -0.2230  0.1635 -0.0649
  284MOL   Cl8834614   6.823   6.530   0.883 -0.3069 -0.0401  0.0225
  284MOL    C8934615   6.633   6.632   1.035  0.3516 -0.5552  0.0654
  284MOL    H9034616   6.601   6.656   1.136 -1.2779 -1.1533 -0.3002
  284MOL    H9134617   6.632   6.727   0.981  1.2416 -1.3223 -1.3173
  284MOL    C9234618   6.526   6.539   0.959  0.3306 -0.2342  0.2520
  284MOL   Cl9334619   6.378   6.571   1.052  0.3035  0.2375  0.2039
  284MOL   Cl9434620   6.564   6.360   0.960  0.4089 -0.3386 -0.1137
  284MOL    C9534621   6.499   6.585   0.812  0.0257 -0.0042 -0.5489
  284MOL    H9634622   6.511   6.693   0.810 -2.0233  0.2587  0.4172
  284MOL    H9734623   6.590   6.544   0.767  0.6345  0.4911  0.2098
  284MOL    C9834624   6.373   6.547   0.732  0.5828 -0.4947  0.0644
  284MOL   Cl9934625   6.250   6.670   0.770  0.0804 -0.0666 -0.0614
  284MOL  Cl10034626   6.309   6.394   0.780 -0.0187  0.1038  0.1599
  284MOL   C10134627   6.408   6.543   0.582  0.1401 -0.0185 -0.2075
  284MOL   H10234628   6.483   6.464   0.578  1.1334  0.7476  2.6887
  284MOL   H10334629   6.326   6.497   0.527 -0.7766  0.6004  0.6357
  284MOL   C10434630   6.462   6.666   0.508  0.3274 -0.3671 -0.6070
  284MOL  Cl10534631   6.609   6.755   0.583 -0.3928  0.3649 -0.6561
  284MOL  Cl10634632   6.335   6.788   0.497 -0.1969  0.4061 -0.0181
  284MOL   C10734633   6.493   6.641   0.360 -0.0872 -0.1349  0.3383
  284MOL   H10834634   6.400   6.638   0.303  0.3881 -0.2337 -0.4343
  284MOL   H10934635   6.535   6.732   0.316  0.6298 -0.4040  0.4699
  284MOL   C11034636   6.583   6.519   0.313  0.7365 -0.1927  0.0318
  284MOL  Cl11134637   6.482   6.372   0.286 -0.1996  0.0348  0.4805
  284MOL  Cl11234638   6.693   6.485   0.445  0.1543 -0.0976  0.1340
  284MOL   C11334639   6.670   6.550   0.187  0.0136  0.3145  0.1459
  284MOL   H11434640   6.715   6.648   0.203 -0.6990  0.7363 -0.4288
  284MOL   H11534641   6.753   6.479   0.181 -1.4561 -1.3567 -0.9829
  284MOL   C11634642   6.608   6.560   0.047  0.7868 -0.7189  1.2112
  284MOL  Cl11734643   6.724   6.658   9.127 -0.0719 -0.0009  0.2580
  284MOL  Cl11834644   6.445   6.633   0.045 -0.5651  0.4854  0.3029
  284MOL   C11934645   6.594   6.421   9.158  0.3333  0.1454 -0.9985
  284MOL   H12034646   6.672   6.354   0.014 -0.5881 -1.2438 -1.4933
  284MOL   H12134647   6.510   6.361   0.013 -0.3565  1.7716  0.1956
  284MOL   H12234648   6.590   6.427   9.049  0.2109  1.3082 -0.9287
  285MOL     C134649   6.146   1.848   4.308  0.2820 -0.5289 -0.3588
  285MOL    Cl234650   5.989   1.786   4.243 -0.2287 -0.2218  0.0308
  285MOL    Cl334651   6.241   1.899   4.170 -0.1983  0.1767 -0.0908
  285MOL     C434652   6.128   1.971   4.397  0.1471 -0.2856  0.4312
  285MOL     H534653   6.051   2.031   4.349 -0.9777  0.8221  3.5133
  285MOL     H634654   6.064   1.934   4.477 -0.1652 -1.7685 -0.4898
  285MOL     H734655   6.196   1.763   4.355  1.1149  0.2115  0.1104
  285MOL     C834656   6.250   2.053   4.449  0.0246  0.2744  0.1817
  285MOL    Cl934657   6.309   2.165   4.321  0.0561 -0.2498  0.1104
  285MOL   Cl1034658   6.380   1.928   4.463 -0.1226 -0.1294  0.0843
  285MOL    C1134659   6.219   2.121   4.580  0.1346 -0.3682  0.3458
  285MOL    H1234660   6.150   2.203   4.560  0.4529 -0.1888 -0.0528
  285MOL    H1334661   6.140   2.059   4.621 -1.1902  1.3863  0.4923
  285MOL    C1434662   6.323   2.154   4.684 -0.3460  0.0977  0.0446
  285MOL   Cl1534663   6.370   1.997   4.769 -0.5083  0.0703 -0.2279
  285MOL   Cl1634664   6.251   2.250   4.817  0.1748 -0.1679 -0.4467
  285MOL    C1734665   6.456   2.214   4.628  0.2469 -0.4143  0.0145
  285MOL    H1834666   6.543   2.194   4.691  0.9639  1.6592 -0.2774
  285MOL    H1934667   6.477   2.166   4.532 -1.8015 -2.6547  0.6488
  285MOL    C2034668   6.450   2.364   4.593 -0.0223 -0.4905 -0.3457
  285MOL   Cl2134669   6.505   2.466   4.734  0.2862 -0.2302 -0.3023
  285MOL   Cl2234670   6.289   2.433   4.552  0.1199  0.1048 -0.0498
  285MOL    C2334671   6.533   2.405   4.469  0.1840  0.1527  0.2514
  285MOL    H2434672   6.483   2.377   4.376  2.3971 -2.2109 -0.2677
  285MOL    H2534673   6.533   2.514   4.471  1.7833  0.1699 -0.4424
  285MOL    C2634674   6.677   2.351   4.433  0.4980  0.5051  0.0170
  285MOL   Cl2734675   6.686   2.173   4.401 -0.3170  0.2002 -0.2210
  285MOL   Cl2834676   6.786   2.382   4.569 -0.2115 -0.2045 -0.1153
  285MOL    C2934677   6.737   2.424   4.303  0.2677  0.1987  0.4558
  285MOL    H3034678   6.757   2.526   4.334  1.4834  0.2015 -0.3138
  285MOL    H3134679   6.839   2.390   4.283  0.9133  1.2215  1.9506
  285MOL    C3234680   6.667   2.417   4.169  0.6158  0.3924 -0.6330
  285MOL   Cl3334681   6.790   2.489   4.058  0.5850  0.3199  0.2166
  285MOL   Cl3434682   6.522   2.521   4.175 -0.0133 -0.2002 -0.0498
  285MOL    C3534683   6.622   2.271   4.110  0.0136  0.1071  0.3821
  285MOL    H3634684   6.706   2.204   4.132 -0.1192  0.2088  1.2355
  285MOL    H3734685   6.546   2.238   4.181  0.5753 -0.7403  0.6014
  285MOL    C3834686   6.584   2.246   3.961  0.2653 -0.1190 -0.0902
  285MOL   Cl3934687   6.489   2.091   3.964 -0.0939  0.2142 -0.0936
  285MOL   Cl4034688   6.733   2.218   3.864 -0.1246  0.2718 -0.1161
  285MOL    C4134689   6.512   2.362   3.888  0.3744 -0.6144  0.0695
  285MOL    H4234690   6.420   2.356   3.947 -0.1237  1.6995 -0.4342
  285MOL    H4334691   6.563   2.457   3.906  0.5432 -0.2306 -2.2890
  285MOL    C4434692   6.474   2.372   3.733 -0.4558  0.5407 -0.8002
  285MOL   Cl4534693   6.619   2.427   3.653 -0.1739 -0.0544  0.0732
  285MOL   Cl4634694   6.341   2.494   3.722 -0.0654 -0.2103 -0.0178
  285MOL    C4734695   6.426   2.233   3.686 -1.0573  0.1106  0.5859
  285MOL    H4834696   6.517   2.174   3.703 -0.2907  0.9524 -0.5285
  285MOL    H4934697   6.364   2.188   3.764 -0.5464  0.2905  1.1004
  285MOL    C5034698   6.362   2.211   3.551  0.5093 -0.3940  0.5818
  285MOL   Cl5134699   6.199   2.274   3.559  0.2905 -0.0027  0.2877
  285MOL   Cl5234700   6.353   2.031   3.543 -0.0617 -0.2659  0.0807
  285MOL    C5334701   6.447   2.253   3.424 -0.1658 -0.0358 -0.0525
  285MOL    H5434702   6.477   2.357   3.438 -1.2010  0.1493  0.8795
  285MOL    H5534703   6.539   2.194   3.423  0.8547  1.2834  4.8650
  285MOL    C5634704   6.385   2.251   3.279 -0.4791  0.8464 -0.4006
  285MOL   Cl5734705   6.322   2.085   3.237  0.0161  0.1947  0.3310
  285MOL   Cl5834706   6.529   2.269   3.169  0.0506  0.0474  0.2004
  285MOL    C5934707   6.265   2.344   3.243  0.2754 -0.7727 -0.3523
  285MOL    H6034708   6.227   2.318   3.144  2.2013 -0.2470 -1.2582
  285MOL    H6134709   6.179   2.325   3.307 -0.3594  1.2135 -0.5895
  285MOL    C6234710   6.283   2.505   3.237  0.5716  0.0555 -0.1238
  285MOL   Cl6334711   6.122   2.561   3.183 -0.0677 -0.0258  0.2114
  285MOL   Cl6434712   6.401   2.548   3.110  0.2507 -0.0751  0.1170
  285MOL    C6534713   6.327   2.573   3.368 -0.7830 -0.2973  0.3741
  285MOL    H6634714   6.274   2.528   3.452 -1.2224  0.1049  0.3167
  285MOL    H6734715   6.434   2.556   3.373 -1.0176 -1.9588  0.0911
  285MOL    C6834716   6.294   2.725   3.378 -0.7196  0.4356 -0.4059
  285MOL   Cl6934717   6.387   2.786   3.521  0.0651 -0.6511 -0.0125
  285MOL   Cl7034718   6.127   2.744   3.433 -0.1515 -0.0631  0.0762
  285MOL    C7134719   6.335   2.815   3.251 -0.5631  0.5582 -0.4907
  285MOL    H7234720   6.440   2.800   3.226 -0.5143 -0.8316  0.4332
  285MOL    H7334721   6.286   2.784   3.159 -1.2545 -0.1842  0.1117
  285MOL    C7434722   6.320   2.972   3.250 -0.4773  1.2968 -0.2343
  285MOL   Cl7534723   6.375   3.021   3.082 -0.0379 -0.0804  0.6328
  285MOL   Cl7634724   6.427   3.059   3.365 -0.3206 -0.1756  0.2060
  285MOL    C7734725   6.172   3.015   3.270  0.3519 -0.1282 -0.0024
  285MOL    H7834726   6.115   2.930   3.233  0.7407 -0.5438  0.3487
  285MOL    H7934727   6.150   3.014   3.377 -0.6135 -0.3232 -0.1992
  285MOL    C8034728   6.112   3.146   3.217 -1.1835 -0.2529 -0.1086
  285MOL   Cl8134729   6.226   3.283   3.221  0.1270 -0.1719  0.1622
  285MOL   Cl8234730   5.981   3.187   3.323  0.3618 -0.6202  0.0583
  285MOL    C8334731   6.069   3.129   3.069 -0.1531 -0.1563 -1.0050
  285MOL    H8434732   6.055   3.227   3.024 -1.6497  0.1619  0.1088
  285MOL    H8534733   6.152   3.089   3.011  0.6242  3.4173 -2.4944
  285MOL    C8634734   5.948   3.043   3.024  0.0291 -0.8689  0.1719
  285MOL   Cl8734735   5.786   3.121   3.055  0.2075  0.1604 -0.0198
  285MOL   Cl8834736   5.928   2.880   3.087  0.1659 -0.5852 -0.0978
  285MOL    C8934737   5.936   3.027   2.866 -0.6543  0.3333  0.1785
  285MOL    H9034738   5.857   2.954   2.853  2.6137 -3.3508  0.1834
  285MOL    H9134739   5.908   3.125   2.826  0.1395  0.6714  0.4359
  285MOL    C9234740   6.063   2.982   2.784 -0.5189 -0.2446  0.5102
  285MOL   Cl9334741   6.158   2.852   2.872 -0.1913  0.0330  0.0082
  285MOL   Cl9434742   6.168   3.124   2.755  0.0833 -0.2625  0.0721
  285MOL    C9534743   6.021   2.923   2.645  0.5637 -0.0639 -0.0181
  285MOL    H9634744   6.101   2.851   2.622  0.2604  0.2326 -2.1078
  285MOL    H9734745   5.942   2.852   2.669 -1.3243  2.1306  0.3749
  285MOL    C9834746   5.976   3.003   2.521 -0.2403 -0.1673  0.7593
  285MOL   Cl9934747   6.107   3.098   2.453 -0.1301  0.2676 -0.1149
  285MOL  Cl10034748   5.849   3.109   2.564  0.5162  0.1586 -0.5756
  285MOL   C10134749   5.929   2.896   2.417 -0.3273  0.6727  0.2244
  285MOL   H10234750   6.017   2.844   2.379 -1.5885  0.1687 -2.0382
  285MOL   H10334751   5.883   2.813   2.471 -0.0945  0.7055  0.4750
  285MOL   C10434752   5.833   2.931   2.302 -0.3526  0.1319  0.0493
  285MOL  Cl10534753   5.850   2.814   2.170 -0.1933  0.0598 -0.2842
  285MOL  Cl10634754   5.873   3.091   2.231  0.0972  0.2004 -0.5201
  285MOL   C10734755   5.680   2.950   2.333 -1.0555  0.8989 -0.1942
  285MOL   H10834756   5.667   3.038   2.396 -1.3193  2.2333 -2.0654
  285MOL   H10934757   5.619   2.982   2.249 -1.4534  1.5589  0.3479
  285MOL   C11034758   5.601   2.839   2.403  0.4896  0.3871 -0.3945
  285MOL  Cl11134759   5.435   2.895   2.385  0.4880 -0.2270  0.1444
  285MOL  Cl11234760   5.634   2.837   2.576  0.2292 -0.0341 -0.2338
  285MOL   C11334761   5.619   2.693   2.346 -0.5235  0.2312 -0.1917
  285MOL   H11434762   5.607   2.696   2.237  1.0351 -0.8368 -0.4210
  285MOL   H11534763   5.725   2.665   2.348 -0.9788 -1.4958  0.8563
  285MOL   C11634764   5.521   2.574   2.377 -0.4658  0.4093 -0.1705
  285MOL  Cl11734765   5.602   2.426   2.328  0.0494  0.1711 -0.0232
  285MOL  Cl11834766   5.381   2.585   2.267  0.0401  0.4854 -0.3342
  285MOL   C11934767   5.482   2.559   2.520  0.1870 -0.3009  0.7531
  285MOL   H12034768   5.414   2.476   2.536  1.3983 -0.8518  3.2407
  285MOL   H12134769   5.568   2.548   2.587 -1.5596 -2.6447  2.6654
  285MOL   H12234770   5.430   2.651   2.545 -1.2457 -0.7984 -0.3344
  286MOL     C134771   7.258   8.827   7.323 -0.0245  0.4917  0.7704
  286MOL    Cl234772   7.441   8.811   7.351  0.0285  0.6585 -0.0952
  286MOL    Cl334773   7.204   8.683   7.235  0.3693  0.1405 -0.2457
  286MOL     C434774   7.172   8.838   7.447 -0.2392 -0.2280  0.2980
  286MOL     H534775   7.074   8.794   7.426 -1.3157  1.6658  1.2523
  286MOL     H634776   7.207   8.775   7.529  1.0423 -1.1510 -0.9310
  286MOL     H734777   7.236   8.907   7.253 -0.9288 -1.5754 -1.3861
  286MOL     C834778   7.162   8.976   7.510  0.4276 -0.7319 -0.5965
  286MOL    Cl934779   7.062   9.087   7.399  0.0252  0.3149  0.3558
  286MOL   Cl1034780   7.324   9.055   7.536  0.4469 -0.1062 -0.1644
  286MOL    C1134781   7.074   8.972   7.645 -1.0222  0.3577 -0.2067
  286MOL    H1234782   7.075   9.077   7.674  3.0765  0.6637 -1.1424
  286MOL    H1334783   6.974   8.955   7.605 -0.7231 -0.8631 -0.4673
  286MOL    C1434784   7.107   8.874   7.759 -0.7011 -0.1223  0.5776
  286MOL   Cl1534785   7.280   8.837   7.771  0.0655 -0.0973 -0.4636
  286MOL   Cl1634786   7.025   8.731   7.707  0.2829  0.1399  0.0471
  286MOL    C1734787   7.051   8.910   7.897  0.4540  0.1562 -0.6762
  286MOL    H1834788   6.945   8.927   7.878  0.1762 -1.8483 -1.0035
  286MOL    H1934789   7.050   8.816   7.952 -0.1369 -0.5766 -1.9206
  286MOL    C2034790   7.108   9.024   7.983  0.3853 -0.0885 -0.5522
  286MOL   Cl2134791   7.167   9.179   7.906  0.2291  0.0124  0.1386
  286MOL   Cl2234792   7.257   8.945   8.049  0.3203 -1.1706  0.0964
  286MOL    C2334793   7.020   9.058   8.108 -0.6025 -0.4361 -0.5264
  286MOL    H2434794   7.028   8.983   8.186  1.7032  2.2607  1.9609
  286MOL    H2534795   7.074   9.134   8.164 -1.2373 -0.9182  0.7479
  286MOL    C2634796   6.873   9.102   8.100  0.3219 -0.3340  1.3583
  286MOL   Cl2734797   6.792   8.950   8.133  0.0307 -0.9923  0.5199
  286MOL   Cl2834798   6.836   9.163   7.928  0.1698 -0.2070  0.3825
  286MOL    C2934799   6.839   0.035   8.204  0.5249  0.0343  0.2572
  286MOL    H3034800   6.865   9.172   8.301 -0.4076 -0.7858  0.1537
  286MOL    H3134801   6.908   0.118   8.186 -1.5427  1.2327 -2.4690
  286MOL    C3234802   6.696   0.103   8.218 -0.3532  0.9610  0.0735
  286MOL   Cl3334803   6.680   0.227   8.089 -0.0408  0.1171  0.0137
  286MOL   Cl3434804   6.693   0.192   8.374  0.2704 -0.1499  0.3507
  286MOL    C3534805   6.581   9.179   8.219 -0.2440 -0.0224 -0.8527
  286MOL    H3634806   6.581   9.123   8.126 -1.2750 -2.9658  0.8383
  286MOL    H3734807   6.608   9.100   8.289 -0.4462 -0.7323 -1.5621
  286MOL    C3834808   6.430   0.034   8.254 -0.1846 -0.5795 -0.2132
  286MOL   Cl3934809   6.419   0.053   8.437 -0.0009 -0.3155  0.3210
  286MOL   Cl4034810   6.331   9.069   8.225 -0.0011  0.2591 -0.1155
  286MOL    C4134811   6.378   0.171   8.192  0.0473  0.0123 -0.3060
  286MOL    H4234812   6.425   0.254   8.246 -2.1235 -0.2002  2.0078
  286MOL    H4334813   6.404   0.165   8.087  1.4900 -0.7730  0.0758
  286MOL    C4434814   6.223   0.211   8.195 -0.5026 -0.2454  0.2698
  286MOL   Cl4534815   6.156   0.215   8.354  0.2827 -0.3327 -0.2565
  286MOL   Cl4634816   6.127   0.089   8.108  0.2796  0.1217 -0.3102
  286MOL    C4734817   6.181   0.343   8.123  0.1125 -0.5710 -0.4819
  286MOL    H4834818   6.171   0.327   8.016 -0.1055  1.7324 -0.8399
  286MOL    H4934819   6.075   0.363   8.141  0.5040  0.8965  0.2774
  286MOL    C5034820   6.259   0.476   8.147 -0.2075 -0.4918  0.4463
  286MOL   Cl5134821   6.424   0.466   8.062  0.1256 -0.0010  0.1219
  286MOL   Cl5234822   6.285   0.494   8.319  0.0886 -0.2110 -0.3633
  286MOL    C5334823   6.178   0.608   8.103 -0.4518 -0.4723 -0.8008
  286MOL    H5434824   6.087   0.616   8.162 -2.2337  1.5474 -3.7029
  286MOL    H5534825   6.230   0.699   8.134 -0.8030 -0.3701 -0.5037
  286MOL    C5634826   6.120   0.626   7.958  0.7008 -0.0963 -0.2604
  286MOL   Cl5734827   5.975   0.539   7.919  0.2239  0.5893 -0.1856
  286MOL   Cl5834828   6.238   0.588   7.827  0.0765  0.3660  0.5587
  286MOL    C5934829   6.102   0.782   7.915  0.5354  0.3961  0.2545
  286MOL    H6034830   6.186   0.844   7.946  0.3131  0.1538  1.3890
  286MOL    H6134831   6.107   0.795   7.807  1.8978  0.3335  0.3050
  286MOL    C6234832   5.975   0.868   7.969 -0.4716  0.5988  0.2211
  286MOL   Cl6334833   5.963   0.855   8.146 -0.3765 -0.0055 -0.0404
  286MOL   Cl6434834   5.821   0.808   7.902 -0.1715 -0.0469  0.1501
  286MOL    C6534835   5.981   1.021   7.927  0.5745 -0.0719  0.6304
  286MOL    H6634836   5.964   1.022   7.819  3.2749  0.7246  0.1780
  286MOL    H6734837   5.893   1.056   7.981 -1.7123 -1.4523 -2.0561
  286MOL    C6834838   6.099   1.115   7.961  0.6376 -0.3879 -0.1223
  286MOL   Cl6934839   6.242   1.061   7.865  0.2972  0.0040  0.0618
  286MOL   Cl7034840   6.150   1.107   8.134  0.3415  0.1181 -0.3266
  286MOL    C7134841   6.070   1.264   7.924  0.0818  0.2018  0.2380
  286MOL    H7234842   5.994   1.292   7.998 -0.2373  2.8552 -1.0426
  286MOL    H7334843   6.157   1.321   7.956  0.6915 -0.3790 -0.3811
  286MOL    C7434844   6.006   1.302   7.785  0.7027 -0.4735 -0.4729
  286MOL   Cl7534845   5.840   1.240   7.763 -0.0679  0.5303 -0.3918
  286MOL   Cl7634846   6.105   1.243   7.648  0.1033  0.2331 -0.3689
  286MOL    C7734847   6.008   1.460   7.782  0.2532 -0.3756  0.1679
  286MOL    H7834848   5.951   1.501   7.865  1.0924  0.2783  0.4282
  286MOL    H7934849   6.115   1.481   7.789  0.5486 -1.6270 -0.4550
  286MOL    C8034850   5.963   1.547   7.661 -0.7829 -0.5807 -0.3428
  286MOL   Cl8134851   6.039   1.498   7.502 -0.1119 -0.1124 -0.3533
  286MOL   Cl8234852   6.016   1.712   7.678 -0.5123 -0.0669  0.2441
  286MOL    C8334853   5.808   1.565   7.634 -0.0424  0.1521 -0.2659
  286MOL    H8434854   5.782   1.619   7.543 -1.0819 -0.0425 -0.0916
  286MOL    H8534855   5.783   1.463   7.605  0.7236 -0.5424  1.4205
  286MOL    C8634856   5.706   1.612   7.748  0.1695  0.1894 -0.5668
  286MOL   Cl8734857   5.740   1.776   7.796 -0.1534 -0.0039  0.4732
  286MOL   Cl8834858   5.699   1.504   7.893 -0.1935  0.2825 -0.0716
  286MOL    C8934859   5.564   1.619   7.695 -0.1350 -0.2558  0.0417
  286MOL    H9034860   5.507   1.694   7.750 -1.8841 -1.1433 -0.5114
  286MOL    H9134861   5.589   1.653   7.595  1.8914 -0.8616  0.3304
  286MOL    C9234862   5.471   1.498   7.688 -0.5148  0.4354  1.0526
  286MOL   Cl9334863   5.553   1.359   7.609  0.0282  0.2613  0.0164
  286MOL   Cl9434864   5.341   1.556   7.580 -0.1023  0.3767  0.0660
  286MOL    C9534865   5.398   1.448   7.825 -0.2350  0.3959 -0.0236
  286MOL    H9634866   5.478   1.388   7.868 -0.3913  1.0645  1.2433
  286MOL    H9734867   5.392   1.533   7.893  0.5867 -0.1819  0.7956
  286MOL    C9834868   5.263   1.368   7.838  0.3456  0.0059 -0.0141
  286MOL   Cl9934869   5.270   1.225   7.728  0.0525  0.0003  0.0093
  286MOL  Cl10034870   5.121   1.462   7.786 -0.6517  0.5348  0.1212
  286MOL   C10134871   5.237   1.311   7.981 -0.2360 -0.3790  0.2631
  286MOL   H10234872   5.137   1.268   7.970 -0.2404 -0.3777  0.2963
  286MOL   H10334873   5.311   1.237   8.008 -0.0517 -0.8824 -1.5397
  286MOL   C10434874   5.229   1.403   8.106  0.1552  0.2374 -0.3889
  286MOL  Cl10534875   5.170   1.577   8.068 -0.4352 -0.3536  0.1376
  286MOL  Cl10634876   5.404   1.416   8.169  0.1552 -0.2993  0.0872
  286MOL   C10734877   5.127   1.338   8.208 -0.2770  0.4569  0.0783
  286MOL   H10834878   5.037   1.301   8.159  0.5675 -1.8004  0.1368
  286MOL   H10934879   5.185   1.247   8.224 -0.2767  0.5276  0.4711
  286MOL   C11034880   5.097   1.401   8.342  0.0434 -0.7829  0.9132
  286MOL  Cl11134881   5.237   1.468   8.430  0.2518  0.1502 -0.1000
  286MOL  Cl11234882   5.040   1.260   8.437  0.1930  0.4758 -0.4828
  286MOL   C11334883   4.979   1.501   8.318 -0.5080 -0.0464 -0.1311
  286MOL   H11434884   5.000   1.583   8.248  0.4192 -0.9532 -0.9391
  286MOL   H11534885   4.899   1.442   8.274  0.0708 -1.6236  0.9027
  286MOL   C11634886   4.918   1.577   8.438 -0.2795 -0.3726 -0.2903
  286MOL  Cl11734887   4.764   1.635   8.378 -0.1744 -0.0327  0.2104
  286MOL  Cl11834888   5.030   1.710   8.487  0.1358  0.0095  0.2820
  286MOL   C11934889   4.898   1.498   8.569  0.5629  0.2846  0.1863
  286MOL   H12034890   4.989   1.446   8.598  0.2845 -0.8345 -0.8882
  286MOL   H12134891   4.885   1.572   8.647  0.0763  1.7597 -1.2667
  286MOL   H12234892   4.817   1.425   8.562  0.7483  0.0679  0.3077
  287MOL     C134893   5.498   8.071   5.375  0.9328 -0.2592 -0.6553
  287MOL    Cl234894   5.368   8.093   5.259  0.5804 -0.2399 -0.1469
  287MOL    Cl334895   5.527   7.896   5.386 -0.3799 -0.0466  0.1059
  287MOL     C434896   5.628   8.150   5.325  0.4242 -0.5321 -0.2688
  287MOL     H534897   5.712   8.100   5.373  0.1270 -0.0845  0.7261
  287MOL     H634898   5.632   8.134   5.217 -0.2175 -1.5874 -0.1463
  287MOL     H734899   5.464   8.102   5.474  2.6856 -0.8250  0.1377
  287MOL     C834900   5.627   8.298   5.367 -0.0513 -0.3117  0.6395
  287MOL    Cl934901   5.642   8.309   5.551  0.1373 -0.2854 -0.0547
  287MOL   Cl1034902   5.490   8.407   5.323  0.0458  0.2698 -0.1518
  287MOL    C1134903   5.760   8.371   5.320 -0.2182 -0.4400  0.4308
  287MOL    H1234904   5.753   8.477   5.346 -0.8281 -0.1994 -0.6996
  287MOL    H1334905   5.843   8.343   5.385 -0.4937 -1.4077  0.3784
  287MOL    C1434906   5.799   8.371   5.170  0.5410  0.0900  0.4672
  287MOL   Cl1534907   5.880   8.212   5.137 -0.0541 -0.0506  0.0182
  287MOL   Cl1634908   5.922   8.499   5.142  0.5294  0.4455 -0.0141
  287MOL    C1734909   5.680   8.373   5.066 -0.1507 -0.2176 -0.3805
  287MOL    H1834910   5.612   8.289   5.053  0.3446 -0.8115  0.8163
  287MOL    H1934911   5.609   8.440   5.115 -0.5535 -0.9922  0.0921
  287MOL    C2034912   5.706   8.435   4.923 -0.5616  0.4034 -0.2477
  287MOL   Cl2134913   5.711   8.610   4.933  0.1803  0.0879 -0.0621
  287MOL   Cl2234914   5.558   8.406   4.842  0.3214  0.7541  0.2717
  287MOL    C2334915   5.825   8.357   4.844  0.0098  0.0596  0.1824
  287MOL    H2434916   5.909   8.383   4.908 -0.3525 -0.0225  0.6935
  287MOL    H2534917   5.802   8.252   4.866 -0.2057 -0.0613 -0.6168
  287MOL    C2634918   5.866   8.395   4.694  0.3677 -0.6871 -0.3311
  287MOL   Cl2734919   5.855   8.561   4.673  0.1730 -0.1740  0.3647
  287MOL   Cl2834920   5.735   8.347   4.574  0.3586  0.3509 -0.3102
  287MOL    C2934921   6.008   8.342   4.641 -0.6448 -0.0701  0.1472
  287MOL    H3034922   5.990   8.242   4.603  0.9113 -0.4864  0.4771
  287MOL    H3134923   6.027   8.407   4.556  0.9840  0.2791  0.7590
  287MOL    C3234924   6.132   8.334   4.732 -0.0822 -0.3236  0.2321
  287MOL   Cl3334925   6.111   8.206   4.855 -0.2071  0.0624  0.3725
  287MOL   Cl3434926   6.149   8.494   4.807 -0.1724  0.3159 -0.2247
  287MOL    C3534927   6.269   8.317   4.661 -0.2379  0.0603 -0.1573
  287MOL    H3634928   6.273   8.408   4.602 -2.6566  0.3086 -0.0202
  287MOL    H3734929   6.342   8.325   4.741  1.6090 -1.7126 -1.5935
  287MOL    C3834930   6.316   8.198   4.577  0.0803 -0.9129 -1.4413
  287MOL   Cl3934931   6.238   8.200   4.422 -0.0425 -0.2323 -0.3524
  287MOL   Cl4034932   6.264   8.047   4.653  0.4742 -0.1774 -0.1338
  287MOL    C4134933   6.467   8.203   4.567 -0.5068 -0.8871  0.1673
  287MOL    H4234934   6.496   8.184   4.671  1.2517 -0.7894 -0.2831
  287MOL    H4334935   6.506   8.119   4.510  0.6966 -1.5629  1.9279
  287MOL    C4434936   6.542   8.327   4.509  0.8970  0.3959  0.7028
  287MOL   Cl4534937   6.520   8.484   4.592  0.0672  0.4507 -0.0090
  287MOL   Cl4634938   6.498   8.361   4.335  0.1470  0.0485 -0.0053
  287MOL    C4734939   6.699   8.298   4.505 -0.0453 -0.3322 -0.0602
  287MOL    H4834940   6.721   8.227   4.425  0.1323  0.2731 -0.5536
  287MOL    H4934941   6.728   8.398   4.473 -1.9332 -0.1211 -1.1426
  287MOL    C5034942   6.767   8.262   4.639  0.3146 -0.6579  0.3141
  287MOL   Cl5134943   6.769   8.087   4.649 -0.1621 -0.0032  0.1318
  287MOL   Cl5234944   6.702   8.336   4.795  0.1164  0.0086  0.0704
  287MOL    C5334945   6.924   8.298   4.627  0.1978  0.4821 -0.2447
  287MOL    H5434946   6.968   8.228   4.556  0.3550 -1.0761  1.3536
  287MOL    H5534947   6.923   8.403   4.598  2.1599  0.8661  0.9704
  287MOL    C5634948   7.020   8.295   4.760  0.1507  0.5444 -0.3235
  287MOL   Cl5734949   6.992   8.139   4.856  0.2122 -0.2509  0.0825
  287MOL   Cl5834950   6.989   8.430   4.867 -0.0017  0.0003 -0.1159
  287MOL    C5934951   7.172   8.282   4.723  0.5496 -0.6768 -0.0046
  287MOL    H6034952   7.227   8.279   4.817  1.0722  1.4092 -0.2022
  287MOL    H6134953   7.186   8.188   4.671 -0.1596 -0.3668 -0.7767
  287MOL    C6234954   7.242   8.399   4.647 -0.1950 -0.3586  0.5832
  287MOL   Cl6334955   7.245   8.557   4.743  0.2068 -0.1491 -0.1255
  287MOL   Cl6434956   7.161   8.436   4.493  0.1456 -0.1701  0.0721
  287MOL    C6534957   7.385   8.359   4.593  1.0312 -0.0551  0.1823
  287MOL    H6634958   7.398   8.295   4.506  0.3730 -1.3130  0.9992
  287MOL    H6734959   7.431   8.452   4.558 -2.2136  1.0938 -1.1793
  287MOL    C6834960   7.486   8.302   4.696 -0.4063 -0.2887  0.1364
  287MOL   Cl6934961   7.443   8.130   4.744 -0.1468  0.1895  0.4807
  287MOL   Cl7034962   7.485   8.407   4.839  0.1196 -0.3997 -0.6330
  287MOL    C7134963   7.639   8.290   4.653  0.4957 -0.0857 -1.0205
  287MOL    H7234964   7.682   8.390   4.654  1.5595 -0.5504  1.0948
  287MOL    H7334965   7.690   8.223   4.722  1.4382  2.3478  0.6981
  287MOL    C7434966   7.669   8.227   4.517 -0.6471  0.2868  0.8202
  287MOL   Cl7534967   7.647   8.346   4.384 -0.3291  0.1527 -0.0610
  287MOL   Cl7634968   7.554   8.098   4.472 -0.0299  0.0162  0.1257
  287MOL    C7734969   7.818   8.166   4.515 -0.3138 -0.4461 -0.5273
  287MOL    H7834970   7.824   8.089   4.592 -0.1530  0.0273 -0.0555
  287MOL    H7934971   7.834   8.111   4.422  0.7933  0.5374 -0.9266
  287MOL    C8034972   7.954   8.251   4.537 -0.2917  0.8432 -0.5121
  287MOL   Cl8134973   8.072   8.123   4.524 -0.0137 -0.3465 -0.3763
  287MOL   Cl8234974   7.960   8.332   4.697  0.2727 -0.1426 -0.8805
  287MOL    C8334975   7.954   8.356   4.417  0.5304  0.2826 -0.2213
  287MOL    H8434976   7.902   8.311   4.332  1.5132 -0.8625 -0.2280
  287MOL    H8534977   7.887   8.435   4.450 -0.1978 -0.0645 -0.8585
  287MOL    C8634978   8.090   8.430   4.377  0.4983 -0.3192  0.3616
  287MOL   Cl8734979   8.058   8.543   4.242  0.1460  0.0733 -0.0084
  287MOL   Cl8834980   8.182   8.301   4.297  0.0148 -0.2007  0.0010
  287MOL    C8934981   8.169   8.486   4.496 -0.0976 -0.4738 -0.0592
  287MOL    H9034982   8.100   8.531   4.568 -1.2414 -2.1725 -0.0624
  287MOL    H9134983   8.206   8.392   4.536  1.0698  0.0802  0.1850
  287MOL    C9234984   8.295   8.583   4.474 -0.5692 -0.4376  0.1244
  287MOL   Cl9334985   8.244   8.747   4.419 -0.2474 -0.2517 -0.2708
  287MOL   Cl9434986   8.402   8.521   4.344  0.4894 -0.0141 -0.0320
  287MOL    C9534987   8.396   8.595   4.595  0.1874  0.6834 -0.2774
  287MOL    H9634988   8.445   8.499   4.610  1.6767  1.3969 -0.5324
  287MOL    H9734989   8.477   8.662   4.567  0.5623  0.8915  1.2666
  287MOL    C9834990   8.346   8.635   4.736 -0.0219  0.2324  0.0019
  287MOL   Cl9934991   8.485   8.622   4.850  0.0024 -0.1877 -0.5885
  287MOL  Cl10034992   8.238   8.499   4.787 -0.1677  0.1791 -0.1940
  287MOL   C10134993   8.256   8.763   4.745 -0.7725 -0.6187  0.0890
  287MOL   H10234994   8.166   8.761   4.684 -0.2725  0.4420 -0.7010
  287MOL   H10334995   8.220   8.757   4.847  0.3905 -1.4426  0.4657
  287MOL   C10434996   8.317   8.908   4.721  0.3739 -0.7323  0.5988
  287MOL  Cl10534997   8.438   8.914   4.583 -0.4933  0.1242 -0.5239
  287MOL  Cl10634998   8.418   8.957   4.863  0.2263  0.0433 -0.2601
  287MOL   C10734999   8.207   9.013   4.704  0.4716  0.1143  0.4002
  287MOL   H10835000   8.137   8.968   4.633  0.2662 -0.0137  0.6839
  287MOL   H10935001   8.147   9.022   4.794  1.2895 -0.3847  0.9998
  287MOL   C11035002   8.231   9.166   4.647 -0.0596 -0.6458 -0.2197
  287MOL  Cl11135003   8.278   9.160   4.471 -0.0671 -0.2230 -0.5000
  287MOL  Cl11235004   8.372   0.048   4.726 -0.0609 -0.3864 -0.3094
  287MOL   C11335005   8.113   0.086   4.673 -0.1690 -0.0635 -0.2016
  287MOL   H11435006   8.092   0.106   4.778 -1.2722  2.5565 -0.8681
  287MOL   H11535007   8.148   0.183   4.637  0.9118 -0.4391 -0.1588
  287MOL   C11635008   7.973   0.068   4.611 -0.5998 -0.3946 -0.0671
  287MOL  Cl11735009   7.881   0.216   4.634  0.1455  0.1844  0.4679
  287MOL  Cl11835010   7.887   9.123   4.691  0.0469 -0.4463  0.0119
  287MOL   C11935011   7.966   0.033   4.464  0.2480  0.2805  0.5121
  287MOL   H12035012   7.863   0.011   4.434 -0.5918 -0.1722  3.4870
  287MOL   H12135013   7.997   0.123   4.411  0.8530 -0.1109  0.1995
  287MOL   H12235014   8.025   9.126   4.437 -0.1992 -0.0053  0.4568
  288MOL     C135015   5.951   8.997   4.863 -0.6763  0.5265  0.1564
  288MOL    Cl235016   5.870   9.019   5.021  0.1476  0.0426 -0.1801
  288MOL    Cl335017   6.106   8.909   4.886 -0.6256 -0.0594  0.0593
  288MOL     C435018   5.855   8.924   4.762  0.5099 -0.5563  0.0249
  288MOL     H535019   5.924   8.891   4.684  0.8779  0.0991  0.0671
  288MOL     H635020   5.818   8.828   4.798 -1.0465 -0.9285 -2.4255
  288MOL     H735021   5.968   9.097   4.822  1.5627 -0.0856 -0.4267
  288MOL     C835022   5.738   9.007   4.689 -0.8540  0.0714 -0.5873
  288MOL    Cl935023   5.818   9.140   4.605 -0.2613  0.1203 -0.3424
  288MOL   Cl1035024   5.624   9.069   4.814  0.1861 -0.2154 -0.2434
  288MOL    C1135025   5.662   8.921   4.581 -0.1086 -0.3787  0.2043
  288MOL    H1235026   5.734   8.870   4.518  0.9341  1.0800  0.1968
  288MOL    H1335027   5.622   8.844   4.648  0.8931  0.1639  1.4665
  288MOL    C1435028   5.563   8.973   4.480 -0.1300 -0.3943 -0.3017
  288MOL   Cl1535029   5.632   9.061   4.340  0.2979 -0.0286 -0.2810
  288MOL   Cl1635030   5.447   9.085   4.565  0.6248  0.0322 -0.0957
  288MOL    C1735031   5.461   8.866   4.430  0.0047 -0.0853  0.3390
  288MOL    H1835032   5.411   8.824   4.517 -1.5281  3.0046  1.0445
  288MOL    H1935033   5.382   8.920   4.378 -0.6462 -0.1298  1.2675
  288MOL    C2035034   5.497   8.738   4.348  0.3670  0.3590 -0.2697
  288MOL   Cl2135035   5.344   8.659   4.303  0.0283  0.3010 -0.2808
  288MOL   Cl2235036   5.585   8.618   4.448  0.1336 -0.5215 -0.0143
  288MOL    C2335037   5.593   8.752   4.224  0.6473 -0.5118  0.3813
  288MOL    H2435038   5.678   8.818   4.241 -0.3801  0.9268  0.0879
  288MOL    H2535039   5.643   8.658   4.202 -1.5665 -1.6610  0.0790
  288MOL    C2635040   5.528   8.808   4.088 -0.5606 -0.5308  0.5344
  288MOL   Cl2735041   5.670   8.866   4.004  0.1756  0.1986  0.2036
  288MOL   Cl2835042   5.433   8.955   4.104  0.3045  0.3243 -0.0923
  288MOL    C2935043   5.462   8.695   4.004  0.1425  0.6425  0.4772
  288MOL    H3035044   5.508   8.598   4.021 -1.3383 -0.0315  0.7901
  288MOL    H3135045   5.361   8.684   4.046  0.2598  0.2748  0.6665
  288MOL    C3235046   5.437   8.712   3.846  0.8805  0.7113  0.6673
  288MOL   Cl3335047   5.300   8.604   3.792 -0.2255 -0.0028 -0.1258
  288MOL   Cl3435048   5.581   8.656   3.749 -0.2528 -0.1745  0.3009
  288MOL    C3535049   5.398   8.856   3.805  0.4317 -0.0473  0.0368
  288MOL    H3635050   5.341   8.910   3.880 -0.7162  0.1233 -0.9484
  288MOL    H3735051   5.493   8.910   3.800 -0.6945  1.9908  0.2351
  288MOL    C3835052   5.331   8.885   3.668  0.4946 -0.2798 -0.0881
  288MOL   Cl3935053   5.380   8.769   3.542  0.1516 -0.3372  0.1118
  288MOL   Cl4035054   5.380   9.049   3.611  0.0012  0.3561 -0.0214
  288MOL    C4135055   5.173   8.884   3.671  0.1384  0.4443 -0.0645
  288MOL    H4235056   5.143   8.932   3.578  0.8625  0.3957 -0.3254
  288MOL    H4335057   5.136   8.781   3.663 -1.4374  0.8880  1.2108
  288MOL    C4435058   5.089   8.945   3.781 -0.3348  0.0202  0.0581
  288MOL   Cl4535059   5.166   9.103   3.837 -0.2541 -0.1388  0.3702
  288MOL   Cl4635060   5.085   8.826   3.910 -0.2645 -0.2391  0.2793
  288MOL    C4735061   4.940   8.971   3.737 -0.2772  0.3114  0.5331
  288MOL    H4835062   4.942   9.046   3.658  2.4360 -0.3291 -0.0530
  288MOL    H4935063   4.914   8.887   3.672  0.3613  0.4938  0.0367
  288MOL    C5035064   4.825   8.990   3.833  0.1221 -0.1393 -0.4626
  288MOL   Cl5135065   4.853   9.115   3.956 -0.2968 -0.1213  0.0796
  288MOL   Cl5235066   4.782   8.843   3.928 -0.0245 -0.0537 -0.0935
  288MOL    C5335067   4.691   9.036   3.767 -0.2162 -0.5505 -0.2107
  288MOL    H5435068   4.645   8.945   3.727  0.2514 -1.3722  1.0744
  288MOL    H5535069   4.624   9.053   3.851 -0.1203  2.3932 -0.6777
  288MOL    C5635070   4.680   9.147   3.658  0.6921  0.1021 -0.1482
  288MOL   Cl5735071   4.507   0.008   3.651 -0.3853 -0.0610 -0.2260
  288MOL   Cl5835072   4.723   9.080   3.499 -0.3889 -0.4816 -0.4023
  288MOL    C5935073   4.765   0.101   3.690 -0.3169 -0.4386 -0.0970
  288MOL    H6035074   4.741   0.127   3.793 -3.8973 -0.7301 -0.7926
  288MOL    H6135075   4.867   0.066   3.705  0.0702  1.4352  1.7883
  288MOL    C6235076   4.761   0.227   3.601 -0.4775  0.2579 -0.4880
  288MOL   Cl6335077   4.596   0.300   3.596  0.0093  0.4648 -0.3765
  288MOL   Cl6435078   4.814   0.199   3.437  0.3100  0.4924  0.0863
  288MOL    C6535079   4.855   0.343   3.643 -0.8136 -0.7130 -0.3289
  288MOL    H6635080   4.840   0.421   3.568  0.7036  1.4022  1.4643
  288MOL    H6735081   4.804   0.385   3.730 -0.3568 -0.1605 -0.3172
  288MOL    C6835082   5.006   0.321   3.682 -0.4176  0.1331  0.0389
  288MOL   Cl6935083   5.091   0.181   3.596 -0.1825  0.0511 -0.3679
  288MOL   Cl7035084   5.010   0.281   3.855 -0.1786 -0.0137 -0.0847
  288MOL    C7135085   5.083   0.454   3.658  0.8088 -0.1785 -0.0498
  288MOL    H7235086   5.049   0.511   3.745 -1.2680 -1.1531 -0.1810
  288MOL    H7335087   5.186   0.436   3.689  1.1927 -1.7488 -2.1524
  288MOL    C7435088   5.079   0.545   3.526  0.1720 -0.1095 -0.2728
  288MOL   Cl7535089   4.943   0.661   3.561  0.0935  0.0291 -0.1594
  288MOL   Cl7635090   5.040   0.452   3.381  0.0170  0.0568 -0.1258
  288MOL    C7735091   5.212   0.625   3.513  0.9700 -0.3139  0.1033
  288MOL    H7835092   5.220   0.683   3.605  1.9096  0.9395 -0.7479
  288MOL    H7935093   5.292   0.553   3.529  0.8102 -0.4246  0.4014
  288MOL    C8035094   5.256   0.698   3.379 -0.0636  0.1832 -0.5479
  288MOL   Cl8135095   5.131   0.814   3.319  0.0347 -0.4659  0.4878
  288MOL   Cl8235096   5.289   0.584   3.253 -0.1874  0.2947  0.2311
  288MOL    C8335097   5.396   0.773   3.391 -0.2794  0.1462 -0.2197
  288MOL    H8435098   5.466   0.696   3.423 -0.3540  0.3004  0.3286
  288MOL    H8535099   5.422   0.809   3.292 -1.3470 -0.8190 -0.8563
  288MOL    C8635100   5.420   0.880   3.493  0.1500  0.4657  0.3615
  288MOL   Cl8735101   5.429   0.802   3.649 -0.1690  0.3310 -0.3018
  288MOL   Cl8835102   5.312   1.022   3.486  0.5610  0.1596  0.0616
  288MOL    C8935103   5.557   0.937   3.462 -0.6239 -0.0871  0.8115
  288MOL    H9035104   5.619   0.849   3.443 -2.0942 -0.7889 -0.8270
  288MOL    H9135105   5.554   0.993   3.369  0.8177 -1.0639  0.1646
  288MOL    C9235106   5.639   1.027   3.561 -0.5831  0.8255  0.2079
  288MOL   Cl9335107   5.802   1.046   3.478  0.0166 -0.3384 -0.1165
  288MOL   Cl9435108   5.689   0.934   3.711  0.1140  0.0895  0.1621
  288MOL    C9535109   5.572   1.162   3.605 -0.0555 -0.4351 -0.1567
  288MOL    H9635110   5.528   1.198   3.512 -2.8820 -3.7218 -0.2198
  288MOL    H9735111   5.486   1.119   3.657 -0.6737  1.6933  0.5969
  288MOL    C9835112   5.648   1.274   3.684  0.3134 -0.1247  0.6510
  288MOL   Cl9935113   5.740   1.371   3.563 -0.3344 -0.1325  0.4578
  288MOL  Cl10035114   5.764   1.198   3.798 -0.4758 -0.2820  0.1033
  288MOL   C10135115   5.548   1.370   3.748 -0.3925 -0.7083  0.0468
  288MOL   H10235116   5.615   1.429   3.812 -0.0191 -2.8663  1.7234
  288MOL   H10335117   5.522   1.451   3.681  0.3180 -0.3530  0.1941
  288MOL   C10435118   5.425   1.332   3.834  0.1136  0.2210 -0.2103
  288MOL  Cl10535119   5.459   1.193   3.940  0.4578 -0.1909 -0.1713
  288MOL  Cl10635120   5.295   1.289   3.720 -0.1582 -0.0931 -0.3122
  288MOL   C10735121   5.358   1.443   3.933 -0.1399 -0.1468  0.1267
  288MOL   H10835122   5.270   1.408   3.987  1.0155 -0.5575  1.7882
  288MOL   H10935123   5.422   1.440   4.022 -0.7019  0.7769  0.5783
  288MOL   C11035124   5.335   1.594   3.901 -1.2702 -0.5984 -0.5936
  288MOL  Cl11135125   5.192   1.625   3.806 -0.3606  0.0853 -0.1607
  288MOL  Cl11235126   5.469   1.670   3.803 -0.2643  0.1929  0.1788
  288MOL   C11335127   5.317   1.680   4.030 -0.0535  0.1566 -0.8130
  288MOL   H11435128   5.323   1.782   3.991 -1.4503  0.6829  0.3256
  288MOL   H11535129   5.211   1.671   4.053  0.1364  0.9247  0.3996
  288MOL   C11635130   5.418   1.683   4.156 -0.3056  0.5460  0.0697
  288MOL  Cl11735131   5.589   1.681   4.106 -0.1722  0.2991  0.2614
  288MOL  Cl11835132   5.398   1.535   4.252 -0.3343 -0.0888 -0.0116
  288MOL   C11935133   5.395   1.809   4.245  0.0781 -0.1817  0.1148
  288MOL   H12035134   5.459   1.785   4.329 -1.4624 -1.0109  1.0652
  288MOL   H12135135   5.432   1.904   4.207  0.6887  0.5126  2.3510
  288MOL   H12235136   5.292   1.827   4.275  0.1248  0.1381  0.0865
  289MOL     C135137   0.343   2.759   4.454  0.3672  0.3030 -0.0127
  289MOL    Cl235138   0.278   2.658   4.321 -0.1446  0.1757  0.0405
  289MOL    Cl335139   0.359   2.931   4.395 -0.0306  0.0682 -0.4365
  289MOL     C435140   0.269   2.755   4.585  0.1766  0.6842 -0.4685
  289MOL     H535141   0.306   2.835   4.649 -1.8452  0.7896  0.6129
  289MOL     H635142   0.166   2.776   4.559 -0.3271 -0.4831  0.5455
  289MOL     H735143   0.444   2.725   4.476  0.3392 -0.6754 -1.3778
  289MOL     C835144   0.271   2.626   4.666 -0.2238 -0.2111  0.2066
  289MOL    Cl935145   0.432   2.563   4.681  0.0514  0.1424  0.0977
  289MOL   Cl1035146   0.187   2.498   4.566 -0.0190 -0.0992  0.2198
  289MOL    C1135147   0.211   2.627   4.805 -0.2598 -0.0391  0.1271
  289MOL    H1235148   0.206   2.529   4.852 -2.9946 -0.1666 -0.3877
  289MOL    H1335149   0.284   2.680   4.867 -1.2448  0.9688  0.4437
  289MOL    C1435150   0.074   2.691   4.839  0.3359 -0.0716 -0.6739
  289MOL   Cl1535151   9.121   2.622   4.740  0.0610 -0.1023 -0.2466
  289MOL   Cl1635152   0.084   2.865   4.807  0.1870  0.3796  0.2013
  289MOL    C1735153   0.032   2.659   4.991 -0.2602  0.2278  0.3848
  289MOL    H1835154   9.147   2.743   5.012 -1.9696 -0.3216 -2.4908
  289MOL    H1935155   9.153   2.568   4.993  0.8644 -0.4813  3.0609
  289MOL    C2035156   0.131   2.658   5.112 -0.1265  0.4242 -0.1779
  289MOL   Cl2135157   0.253   2.780   5.111 -0.2828 -0.1085  0.3474
  289MOL   Cl2235158   0.220   2.503   5.110 -0.0600 -0.3526  0.4918
  289MOL    C2335159   0.074   2.676   5.254 -0.8366 -0.4290  0.1088
  289MOL    H2435160   0.154   2.651   5.323 -0.9443 -2.6889 -0.5558
  289MOL    H2535161   0.054   2.781   5.273  2.2550 -0.0906  1.8009
  289MOL    C2635162   9.127   2.602   5.299 -0.0530 -0.4363  0.2840
  289MOL   Cl2735163   9.156   2.427   5.285  0.5621  0.1546  0.1172
  289MOL   Cl2835164   8.977   2.630   5.190 -0.3713 -0.2774 -0.2195
  289MOL    C2935165   9.092   2.627   5.456  0.7669 -0.5009 -0.3242
  289MOL    H3035166   9.010   2.558   5.473 -0.1904  0.1154 -2.3002
  289MOL    H3135167   9.173   2.578   5.511 -0.8980 -1.6911  1.1166
  289MOL    C3235168   9.030   2.751   5.517  0.7176 -0.5508 -0.0453
  289MOL   Cl3335169   8.873   2.801   5.447 -0.0643  0.0351 -0.1320
  289MOL   Cl3435170   9.145   2.882   5.499  0.0908  0.6665  0.6555
  289MOL    C3535171   8.987   2.744   5.668 -0.3083 -0.8400 -0.2784
  289MOL    H3635172   8.971   2.842   5.714  0.8422 -2.1650  3.1066
  289MOL    H3735173   8.886   2.701   5.672 -0.5338 -0.4102 -1.1030
  289MOL    C3835174   9.078   2.665   5.772 -0.3028  0.1555 -0.4178
  289MOL   Cl3935175   0.067   2.711   5.745 -0.0632  0.2538  0.3554
  289MOL   Cl4035176   9.080   2.487   5.749  0.0334 -0.0469  0.2689
  289MOL    C4135177   9.053   2.699   5.921  0.4106  0.5141  0.3410
  289MOL    H4235178   9.131   2.650   5.979  0.7489 -1.6560 -1.8254
  289MOL    H4335179   9.065   2.805   5.945 -0.7836  0.9031 -0.6989
  289MOL    C4435180   8.911   2.663   5.992 -0.1587 -0.2796  0.1493
  289MOL   Cl4535181   8.792   2.772   5.913  0.1650 -0.1038  0.2569
  289MOL   Cl4635182   8.910   2.714   6.162  0.2286 -0.3814 -0.0801
  289MOL    C4735183   8.841   2.524   5.964 -0.1727  0.2015 -0.0474
  289MOL    H4835184   8.737   2.538   5.993 -0.2283  2.0800 -1.0789
  289MOL    H4935185   8.839   2.513   5.855  0.9266 -1.6722  0.1083
  289MOL    C5035186   8.892   2.395   6.045 -0.3875  0.5033 -0.0996
  289MOL   Cl5135187   8.837   2.400   6.217  0.1043 -0.0409 -0.1974
  289MOL   Cl5235188   9.069   2.387   6.060 -0.2795  0.1357 -0.0608
  289MOL    C5335189   8.856   2.255   5.979 -0.1599  1.0240 -0.2681
  289MOL    H5435190   8.899   2.249   5.878 -1.1538 -1.5043 -0.5851
  289MOL    H5535191   8.898   2.178   6.045  0.6274  0.8914 -0.9033
  289MOL    C5635192   8.707   2.200   5.962  0.0546 -0.0768  0.1410
  289MOL   Cl5735193   8.611   2.316   5.865  0.4429  0.0907  0.0776
  289MOL   Cl5835194   8.631   2.165   6.118 -0.0997  0.0051  0.4621
  289MOL    C5935195   8.706   2.063   5.872 -0.2852  0.0481 -0.1206
  289MOL    H6035196   8.603   2.030   5.883 -1.0147  2.0034 -0.7622
  289MOL    H6135197   8.733   2.087   5.769 -0.6805  1.4382  0.0810
  289MOL    C6235198   8.796   1.941   5.913 -0.2824  0.5219  0.4457
  289MOL   Cl6335199   8.792   1.919   6.084 -0.5838 -0.1024  0.3072
  289MOL   Cl6435200   8.971   1.966   5.880 -0.6490  0.2253 -0.1555
  289MOL    C6535201   8.746   1.805   5.860 -0.6000 -0.0393  0.3383
  289MOL    H6635202   8.818   1.729   5.889 -1.5447 -1.6331 -1.4031
  289MOL    H6735203   8.657   1.777   5.917  0.4534 -1.5009  1.2999
  289MOL    C6835204   8.724   1.782   5.710 -0.8985  0.0619  0.4740
  289MOL   Cl6935205   8.849   1.861   5.611 -0.4626 -0.2745 -0.1579
  289MOL   Cl7035206   8.575   1.866   5.652 -0.1141  0.0427  0.3144
  289MOL    C7135207   8.707   1.639   5.661 -0.0091 -0.0822 -0.7650
  289MOL    H7235208   8.683   1.620   5.556 -0.8551 -3.4066 -0.0402
  289MOL    H7335209   8.805   1.593   5.671  0.2425  0.4385 -0.8233
  289MOL    C7435210   8.619   1.529   5.730 -0.7017 -0.4608 -1.0824
  289MOL   Cl7535211   8.445   1.577   5.740 -0.2896 -0.0353  0.3663
  289MOL   Cl7635212   8.679   1.504   5.893 -0.4267 -0.2213  0.1145
  289MOL    C7735213   8.624   1.400   5.640  0.0331  0.5702 -0.2360
  289MOL    H7835214   8.560   1.427   5.555 -0.3888 -0.7198 -0.3443
  289MOL    H7935215   8.721   1.394   5.590  0.4389 -1.7981  0.7476
  289MOL    C8035216   8.590   1.254   5.681  0.4980  0.1393  0.6599
  289MOL   Cl8135217   8.717   1.179   5.779 -0.0529  0.4954  0.2501
  289MOL   Cl8235218   8.608   1.163   5.525 -0.1596  0.0794 -0.2442
  289MOL    C8335219   8.448   1.233   5.745 -0.0485  0.3568  0.0751
  289MOL    H8435220   8.447   1.143   5.806  1.6111 -0.9984 -1.8324
  289MOL    H8535221   8.438   1.309   5.822  0.2962 -0.1835  0.6512
  289MOL    C8635222   8.315   1.224   5.655 -0.2006 -0.5764 -0.1174
  289MOL   Cl8735223   8.297   1.063   5.572 -0.3006  0.4153  0.2281
  289MOL   Cl8835224   8.313   1.348   5.523 -0.2911 -0.1436  0.1980
  289MOL    C8935225   8.186   1.247   5.740  0.3016 -0.0149  0.2949
  289MOL    H9035226   8.180   1.351   5.774  1.9032  0.3166 -0.4213
  289MOL    H9135227   8.097   1.239   5.678  0.3860  0.4605  0.1073
  289MOL    C9235228   8.156   1.164   5.867 -0.0823 -0.5503 -0.3741
  289MOL   Cl9335229   7.984   1.219   5.908 -0.3987 -0.0871  0.5235
  289MOL   Cl9435230   8.263   1.227   5.997 -0.2826 -0.1107 -0.4611
  289MOL    C9535231   8.159   1.007   5.852  0.1603  0.5081  0.0794
  289MOL    H9635232   8.109   0.981   5.758 -2.0901  1.4014  1.0133
  289MOL    H9735233   8.265   0.994   5.830 -0.1852 -0.0170 -1.3483
  289MOL    C9835234   8.106   0.910   5.955  0.4457  0.0985 -0.0907
  289MOL   Cl9935235   8.133   0.963   6.126  0.0141  0.1656  0.4812
  289MOL  Cl10035236   8.180   0.754   5.940 -0.3937 -0.2730 -0.1584
  289MOL   C10135237   7.954   0.881   5.949  0.3372  0.0076 -0.7659
  289MOL   H10235238   7.940   0.795   6.015  1.3651 -2.0361 -3.1200
  289MOL   H10335239   7.904   0.957   6.009 -0.5920  0.0853 -1.6214
  289MOL   C10435240   7.877   0.851   5.814 -0.0005 -0.1853  0.7943
  289MOL  Cl10535241   7.973   0.740   5.716  0.0148  0.5785 -0.2616
  289MOL  Cl10635242   7.853   0.999   5.727  0.0196 -0.2317 -0.2778
  289MOL   C10735243   7.735   0.795   5.853 -0.0131  0.2593 -0.7360
  289MOL   H10835244   7.746   0.691   5.885 -0.7983  0.4043  0.0438
  289MOL   H10935245   7.698   0.847   5.942 -0.0901  2.4976 -2.0470
  289MOL   C11035246   7.616   0.788   5.748 -0.2755 -0.4504  0.1123
  289MOL  Cl11135247   7.672   0.732   5.593  0.2889 -0.1256 -0.3037
  289MOL  Cl11235248   7.530   0.949   5.725  0.0980  0.0275  0.0246
  289MOL   C11335249   7.501   0.688   5.771  0.1644 -0.1207 -0.9152
  289MOL   H11435250   7.425   0.710   5.696 -1.6210 -0.0684  0.8592
  289MOL   H11535251   7.535   0.585   5.762 -0.3079 -0.3032 -0.6238
  289MOL   C11635252   7.438   0.686   5.912  0.3400  0.3090  0.0919
  289MOL  Cl11735253   7.550   0.614   6.031  0.1286 -0.1855  0.0192
  289MOL  Cl11835254   7.313   0.570   5.898  0.3194 -0.0483 -0.0746
  289MOL   C11935255   7.381   0.812   5.964 -0.1569 -0.0642 -0.4130
  289MOL   H12035256   7.333   0.815   6.062  0.8291  2.1362  0.0332
  289MOL   H12135257   7.448   0.897   5.978 -0.7125  0.9378 -3.3657
  289MOL   H12235258   7.311   0.855   5.892 -1.3137 -0.8019  0.2694
  290MOL     C135259   4.380   7.301   6.870  0.1293 -1.0358  0.1090
  290MOL    Cl235260   4.338   7.266   7.039 -0.0444  0.2649  0.0387
  290MOL    Cl335261   4.527   7.202   6.816  0.2623 -0.0797  0.0079
  290MOL     C435262   4.261   7.284   6.772 -0.1255 -0.0128  0.1130
  290MOL     H535263   4.258   7.175   6.759 -0.4456  0.1652 -1.3592
  290MOL     H635264   4.167   7.306   6.822 -0.0242 -0.3507  0.4567
  290MOL     H735265   4.414   7.404   6.870 -2.1194 -0.2590  0.0120
  290MOL     C835266   4.262   7.364   6.635 -0.1120  0.4525  0.5095
  290MOL    Cl935267   4.125   7.300   6.545  0.4671  0.0342 -0.0026
  290MOL   Cl1035268   4.403   7.317   6.537 -0.3022  0.3568  0.6004
  290MOL    C1135269   4.264   7.515   6.630 -0.2263  0.1879  0.4240
  290MOL    H1235270   4.352   7.563   6.673 -0.2980 -0.3752  1.2214
  290MOL    H1335271   4.261   7.542   6.525  1.3707 -0.7053  0.1427
  290MOL    C1435272   4.155   7.594   6.701  1.2968  0.4806 -0.1371
  290MOL   Cl1535273   4.161   7.564   6.879  0.1927 -0.3941  0.2982
  290MOL   Cl1635274   3.991   7.553   6.642 -0.0423  0.0737 -0.1777
  290MOL    C1735275   4.162   7.751   6.683  0.3592 -0.3446  0.7070
  290MOL    H1835276   4.126   7.779   6.585  1.0287 -0.2878  0.4720
  290MOL    H1935277   4.082   7.792   6.744 -1.1633  0.1191 -1.5406
  290MOL    C2035278   4.291   7.836   6.709 -0.5096  0.4959 -0.5256
  290MOL   Cl2135279   4.399   7.820   6.574 -0.0899 -0.0111  0.0193
  290MOL   Cl2235280   4.387   7.768   6.844  0.0180 -0.1469 -0.4928
  290MOL    C2335281   4.256   7.982   6.740  0.2162 -0.5345 -0.7973
  290MOL    H2435282   4.218   8.021   6.645 -0.7274  0.0868 -0.1768
  290MOL    H2535283   4.165   7.981   6.800  0.4250  0.3353 -0.4586
  290MOL    C2635284   4.350   8.089   6.814  0.2180 -0.1419  0.3364
  290MOL   Cl2735285   4.356   8.061   6.983 -0.4473 -0.0725  0.1715
  290MOL   Cl2835286   4.268   8.246   6.794  0.2057  0.1669  0.2140
  290MOL    C2935287   4.489   8.097   6.747  0.7161  0.3443 -0.4940
  290MOL    H3035288   4.519   7.992   6.740 -1.5756 -0.2249 -2.1075
  290MOL    H3135289   4.479   8.102   6.639 -0.4481  0.9482 -0.3624
  290MOL    C3235290   4.599   8.198   6.789 -0.0076 -0.4548 -0.3166
  290MOL   Cl3335291   4.556   8.357   6.725 -0.0026 -0.2719 -0.2814
  290MOL   Cl3435292   4.731   8.130   6.691 -0.2589  0.0988  0.0093
  290MOL    C3535293   4.641   8.202   6.936  0.1584 -0.4784  0.1202
  290MOL    H3635294   4.566   8.269   6.977  1.2070  0.5813  0.3105
  290MOL    H3735295   4.626   8.104   6.982 -0.8344  0.1182  1.0990
  290MOL    C3835296   4.775   8.266   6.987  0.0898 -0.0639  0.0255
  290MOL   Cl3935297   4.800   8.412   6.900 -0.1552  0.1499  0.1960
  290MOL   Cl4035298   4.907   8.155   6.953  0.1058 -0.8460  0.2235
  290MOL    C4135299   4.778   8.301   7.144 -0.0262  0.0776  0.2130
  290MOL    H4235300   4.886   8.310   7.162 -0.1829  0.5093  0.9818
  290MOL    H4335301   4.739   8.398   7.177  0.6064 -0.0088  1.2427
  290MOL    C4435302   4.714   8.205   7.240  0.0269 -0.6440 -0.3727
  290MOL   Cl4535303   4.744   8.033   7.206  0.4063 -0.1060 -0.2650
  290MOL   Cl4635304   4.539   8.244   7.254 -0.1495 -0.2968  0.2449
  290MOL    C4735305   4.758   8.237   7.392 -0.1317 -0.1228 -1.4512
  290MOL    H4835306   4.759   8.345   7.400  0.5192 -0.2486  0.4938
  290MOL    H4935307   4.676   8.212   7.459  0.1948  1.6073 -0.3858
  290MOL    C5035308   4.898   8.195   7.454 -0.2305 -0.5134 -0.0898
  290MOL   Cl5135309   4.894   8.280   7.610 -0.1017 -0.1489 -0.2764
  290MOL   Cl5235310   5.037   8.253   7.361  0.4002 -0.3239  0.0831
  290MOL    C5335311   4.918   8.039   7.482  0.6559  0.1933 -0.2314
  290MOL    H5435312   4.821   7.995   7.506 -0.4404  2.2794 -0.7628
  290MOL    H5535313   4.946   7.999   7.384 -0.3515  0.8490 -0.7926
  290MOL    C5635314   5.033   7.972   7.566 -0.6469 -0.1680 -0.0632
  290MOL   Cl5735315   5.018   7.793   7.537  0.2774  0.4934 -0.0566
  290MOL   Cl5835316   4.998   8.004   7.740 -0.2721 -0.4424 -0.0263
  290MOL    C5935317   5.171   8.024   7.534 -1.0317  0.7523 -0.7701
  290MOL    H6035318   5.181   8.024   7.425 -0.4577 -0.3640 -0.7282
  290MOL    H6135319   5.165   8.128   7.567  1.7350  0.5849  0.4197
  290MOL    C6235320   5.301   7.972   7.596  0.0062 -0.3105  0.5643
  290MOL   Cl6335321   5.336   7.802   7.535 -0.0633 -0.1365 -0.1268
  290MOL   Cl6435322   5.314   7.977   7.775 -0.3982 -0.2620 -0.1068
  290MOL    C6535323   5.427   8.062   7.558 -0.0251  0.1236  0.2082
  290MOL    H6635324   5.415   8.147   7.626  0.7210  1.4903 -1.3574
  290MOL    H6735325   5.514   8.009   7.596  0.2543 -1.3557 -2.3821
  290MOL    C6835326   5.460   8.124   7.415  0.0672  0.0054 -0.4433
  290MOL   Cl6935327   5.342   8.258   7.389 -0.2439 -0.5250  0.1404
  290MOL   Cl7035328   5.439   8.001   7.281  0.1846 -0.0670  0.1245
  290MOL    C7135329   5.596   8.196   7.406  0.0976 -0.0450 -0.1317
  290MOL    H7235330   5.588   8.282   7.340  0.4879  1.5717  1.8840
  290MOL    H7335331   5.598   8.244   7.504  0.9947 -2.5962  1.1397
  290MOL    C7435332   5.731   8.131   7.378  0.1107 -0.0930 -0.6113
  290MOL   Cl7535333   5.742   7.993   7.492 -0.1024  0.0113 -0.0136
  290MOL   Cl7635334   5.839   8.257   7.439 -0.0762  0.1992 -0.2261
  290MOL    C7735335   5.771   8.098   7.227  0.7991 -0.2640 -0.3538
  290MOL    H7835336   5.689   8.037   7.189  0.2836  0.1969  0.0077
  290MOL    H7935337   5.762   8.193   7.174 -0.9910  0.9152  1.9512
  290MOL    C8035338   5.908   8.032   7.192 -0.4055  0.7507  0.5945
  290MOL   Cl8135339   6.049   8.113   7.267  0.0278 -0.1642 -0.2480
  290MOL   Cl8235340   5.935   8.058   7.019 -0.0106 -0.6805  0.0399
  290MOL    C8335341   5.933   7.878   7.208 -0.2432 -0.5389  0.6303
  290MOL    H8435342   6.039   7.857   7.191 -0.5233 -1.9439  0.5124
  290MOL    H8535343   5.943   7.867   7.316  0.5319 -1.0999  0.5093
  290MOL    C8635344   5.847   7.754   7.151  0.4446  0.9520 -0.1834
  290MOL   Cl8735345   5.697   7.751   7.235 -0.0943 -0.3366 -0.0512
  290MOL   Cl8835346   5.935   7.604   7.211 -0.0938 -0.6795  0.0832
  290MOL    C8935347   5.813   7.752   6.996 -0.2579 -0.3180  0.6047
  290MOL    H9035348   5.758   7.841   6.966 -1.2534 -1.4464 -1.0494
  290MOL    H9135349   5.914   7.757   6.955 -0.6830 -0.1401 -0.4498
  290MOL    C9235350   5.738   7.638   6.924 -0.3116  0.2868 -0.2936
  290MOL   Cl9335351   5.790   7.660   6.754  0.2804  0.0405  0.2760
  290MOL   Cl9435352   5.571   7.682   6.932  0.1206  0.4599 -0.3323
  290MOL    C9535353   5.768   7.498   6.982 -0.0383  1.0328  0.1614
  290MOL    H9635354   5.874   7.490   7.003  0.1404  2.2928 -0.2664
  290MOL    H9735355   5.718   7.479   7.077 -0.7142 -0.1785 -0.4179
  290MOL    C9835356   5.729   7.369   6.905  0.2922  0.2140 -0.2766
  290MOL   Cl9935357   5.747   7.221   7.008 -0.7418 -0.1219  0.2967
  290MOL  Cl10035358   5.847   7.350   6.768 -0.3068 -0.0757 -0.0903
  290MOL   C10135359   5.583   7.373   6.853 -0.1498  0.4507  0.5854
  290MOL   H10235360   5.525   7.415   6.934 -1.8813 -0.4139 -0.1870
  290MOL   H10335361   5.575   7.455   6.781  1.7680 -0.0740 -0.2637
  290MOL   C10435362   5.502   7.248   6.817  0.3562  0.5946 -0.0723
  290MOL  Cl10535363   5.444   7.180   6.966 -0.0766 -0.4088  0.3996
  290MOL  Cl10635364   5.610   7.126   6.742 -0.2264 -0.0100  0.0171
  290MOL   C10735365   5.384   7.295   6.717  0.0890 -0.0856  0.4091
  290MOL   H10835366   5.326   7.380   6.752 -1.4050 -1.2790  0.8824
  290MOL   H10935367   5.436   7.346   6.636 -1.1909  0.2901 -0.1773
  290MOL   C11035368   5.285   7.209   6.642 -0.1943  0.4251 -0.3620
  290MOL  Cl11135369   5.188   7.302   6.536 -0.0598 -0.2567 -0.1241
  290MOL  Cl11235370   5.166   7.170   6.762  0.0212 -0.0521 -0.3967
  290MOL   C11335371   5.323   7.081   6.581 -0.2251 -0.6404  0.0952
  290MOL   H11435372   5.373   7.021   6.657 -2.1738  1.1525  2.8921
  290MOL   H11535373   5.235   7.024   6.555 -1.1875  1.2380 -0.8310
  290MOL   C11635374   5.399   7.064   6.449  0.2901  0.4923  0.1162
  290MOL  Cl11735375   5.534   7.175   6.427 -0.1129  0.0141  0.1619
  290MOL  Cl11835376   5.287   7.095   6.321  0.0649  0.1059 -0.4113
  290MOL   C11935377   5.446   6.918   6.434 -0.4153  0.7760 -0.3952
  290MOL   H12035378   5.529   6.897   6.503 -0.7479 -0.3356 -0.3171
  290MOL   H12135379   5.360   6.854   6.455 -1.3331  2.3447  0.7661
  290MOL   H12235380   5.479   6.905   6.331 -3.0667  1.3520 -1.3442
  291MOL     C135381   7.706   1.125   1.138 -0.1207 -0.4960  0.0417
  291MOL    Cl235382   7.736   0.980   1.038 -0.4210  0.1742 -0.6683
  291MOL    Cl335383   7.645   1.256   1.040  0.4487  0.0807  0.1030
  291MOL     C435384   7.602   1.110   1.249  0.1120 -0.4615 -0.0831
  291MOL     H535385   7.593   1.196   1.315 -0.5429 -0.9028  0.4056
  291MOL     H635386   7.503   1.109   1.205  0.1387 -1.2413 -0.1197
  291MOL     H735387   7.799   1.160   1.183 -1.9066  1.1343  2.6433
  291MOL     C835388   7.617   0.983   1.339 -0.6533  0.3985 -0.7190
  291MOL    Cl935389   7.544   1.019   1.498 -0.0207 -0.2289 -0.3448
  291MOL   Cl1035390   7.787   0.960   1.380 -0.3121 -0.2205  0.1599
  291MOL    C1135391   7.577   0.843   1.284  0.3913  0.4671 -0.2702
  291MOL    H1235392   7.657   0.803   1.223  0.6109  1.1615 -0.4453
  291MOL    H1335393   7.595   0.786   1.375  1.6205 -0.7685 -1.2739
  291MOL    C1435394   7.435   0.817   1.217 -0.3660 -0.4106 -0.5275
  291MOL   Cl1535395   7.418   0.871   1.044  0.0357  0.0408 -0.1155
  291MOL   Cl1635396   7.320   0.921   1.296  0.0757  0.3114  0.3196
  291MOL    C1735397   7.393   0.674   1.235 -0.3639  0.1869 -0.3988
  291MOL    H1835398   7.391   0.666   1.343  0.5625  2.6967 -0.1668
  291MOL    H1935399   7.286   0.670   1.211 -1.1633  1.8128  2.7278
  291MOL    C2035400   7.478   0.554   1.179  0.2294 -0.2503  0.7427
  291MOL   Cl2135401   7.384   0.410   1.195  0.6109 -0.1912  0.1852
  291MOL   Cl2235402   7.632   0.530   1.267 -0.0929  0.4042 -0.1241
  291MOL    C2335403   7.497   0.561   1.024 -0.1035 -0.0865  0.2462
  291MOL    H2435404   7.417   0.614   0.972 -0.5444  0.1767  1.1683
  291MOL    H2535405   7.564   0.647   1.018  0.3077 -0.4171  0.1209
  291MOL    C2635406   7.558   0.447   0.936  0.4366 -1.0881  0.0918
  291MOL   Cl2735407   7.621   0.529   0.790 -0.2932  0.1355  0.0163
  291MOL   Cl2835408   7.409   0.356   0.880  0.4632  0.6747  0.1188
  291MOL    C2935409   7.662   0.354   1.002  0.1754  0.5425  0.0804
  291MOL    H3035410   7.736   0.417   1.050  0.8987 -0.4930  0.3410
  291MOL    H3135411   7.620   0.300   1.087  0.7514 -1.9509 -1.1507
  291MOL    C3235412   7.749   0.259   0.907 -0.3617 -0.3047 -0.2973
  291MOL   Cl3335413   7.868   0.341   0.809 -0.2131  0.3534 -0.0069
  291MOL   Cl3435414   7.645   0.158   0.792 -0.2024 -0.0747  0.0839
  291MOL    C3535415   7.821   0.157   0.994 -0.7484  1.0953  0.5224
  291MOL    H3635416   7.875   0.096   0.921 -0.8073  2.0337 -0.3150
  291MOL    H3735417   7.905   0.217   1.029 -0.1072  3.2208 -4.1902
  291MOL    C3835418   7.761   0.060   1.099  0.3289 -0.1598 -0.1408
  291MOL   Cl3935419   7.586   0.028   1.076  0.3345  0.2203 -0.3007
  291MOL   Cl4035420   7.782   0.136   1.257  0.2022  0.0314  0.2460
  291MOL    C4135421   7.823   9.098   1.097  0.0032 -0.6165  0.2040
  291MOL    H4235422   7.762   9.042   1.169 -1.3746  1.2073  0.5007
  291MOL    H4335423   7.804   9.048   1.002  0.3935  1.7921 -1.1712
  291MOL    C4435424   7.975   9.070   1.135 -0.3769 -0.3125  1.4915
  291MOL   Cl4535425   7.980   9.067   1.315 -0.4915  0.5948  0.1893
  291MOL   Cl4635426   8.085   0.018   1.083  0.0457 -0.2501  0.1161
  291MOL    C4735427   8.028   8.931   1.071 -0.5653  0.1946 -0.2891
  291MOL    H4835428   8.121   8.901   1.119 -0.1204 -1.2906 -2.0416
  291MOL    H4935429   7.959   8.860   1.116  1.3598 -0.6987  1.3676
  291MOL    C5035430   8.048   8.905   0.916  0.0177  0.1510  0.5401
  291MOL   Cl5135431   8.220   8.884   0.878 -0.3296  0.5786  0.0658
  291MOL   Cl5235432   7.973   9.035   0.820 -0.0025  0.0885  0.1633
  291MOL    C5335433   7.990   8.758   0.884  0.2011 -0.1778  0.4973
  291MOL    H5435434   8.054   8.715   0.807  0.2289  2.5431 -1.0781
  291MOL    H5535435   8.029   8.695   0.963  1.8249  1.0274  0.6736
  291MOL    C5635436   7.846   8.723   0.844 -0.0423  0.5139 -0.2037
  291MOL   Cl5735437   7.732   8.777   0.970 -0.1296  0.0422  0.1745
  291MOL   Cl5835438   7.855   8.548   0.848 -0.3276  0.1427 -0.2807
  291MOL    C5935439   7.801   8.769   0.692  0.2933  0.1382 -0.5086
  291MOL    H6035440   7.841   8.867   0.665 -2.0569  1.7693  1.6938
  291MOL    H6135441   7.836   8.695   0.621  2.2018  1.3074 -0.8434
  291MOL    C6235442   7.650   8.770   0.653  0.1538 -0.6691  0.4937
  291MOL   Cl6335443   7.569   8.619   0.694  0.1145  0.0128  0.0166
  291MOL   Cl6435444   7.657   8.795   0.471  0.3623  0.0221  0.1493
  291MOL    C6535445   7.570   8.889   0.723 -0.5031 -0.2888  0.3081
  291MOL    H6635446   7.522   8.851   0.813 -0.6111 -0.5811  0.1297
  291MOL    H6735447   7.647   8.960   0.756 -1.3995  1.6555 -1.6407
  291MOL    C6835448   7.450   8.965   0.648 -0.4419  0.4124  0.5964
  291MOL   Cl6935449   7.343   8.834   0.574  0.0698 -0.0789  0.2288
  291MOL   Cl7035450   7.524   9.071   0.525  0.2619  0.2770 -0.0013
  291MOL    C7135451   7.390   9.063   0.757 -0.8023 -0.1596  0.1492
  291MOL    H7235452   7.420   9.040   0.859 -1.3350  1.4089  0.6806
  291MOL    H7335453   7.433   9.163   0.748  0.4186 -0.3501  3.5175
  291MOL    C7435454   7.238   9.098   0.751 -0.0652  0.2740 -0.1722
  291MOL   Cl7535455   7.207   0.068   0.849  0.2821  0.0223  0.2370
  291MOL   Cl7635456   7.148   8.956   0.819 -0.4365  0.1505  0.1561
  291MOL    C7735457   7.199   9.137   0.607 -1.0347 -0.0500  1.0491
  291MOL    H7835458   7.226   0.060   0.588  0.0734 -0.1233  2.1412
  291MOL    H7935459   7.250   9.070   0.538  2.1324  3.5217 -0.2375
  291MOL    C8035460   7.051   9.130   0.556  0.3957 -0.0493 -0.0377
  291MOL   Cl8135461   6.950   0.017   0.689 -0.1946 -0.2420  0.0856
  291MOL   Cl8235462   7.014   8.956   0.525 -0.3000  0.0865 -0.1235
  291MOL    C8335463   7.015   0.032   0.424  0.3956 -0.4919  0.3924
  291MOL    H8435464   6.908   0.018   0.406  0.3781  0.1967 -0.0624
  291MOL    H8535465   7.030   0.133   0.460  0.1474 -0.7133  1.1342
  291MOL    C8635466   7.086   0.011   0.288  0.4706  0.1122  0.4180
  291MOL   Cl8735467   7.258   0.047   0.297  0.6458  0.1763  0.2420
  291MOL   Cl8835468   7.017   0.133   0.178  0.0490  0.4380  0.2936
  291MOL    C8935469   7.076   9.045   0.225 -0.2553 -0.5079 -0.3623
  291MOL    H9035470   7.134   8.983   0.292 -1.1924 -1.2874 -0.2674
  291MOL    H9135471   6.970   9.025   0.241 -0.5473  0.7206 -0.6742
  291MOL    C9235472   7.117   9.002   0.073  0.3801  0.2647 -0.7274
  291MOL   Cl9335473   7.273   9.076   0.031 -0.0310 -0.3336 -0.2318
  291MOL   Cl9435474   7.005   9.077   9.133 -0.3055 -0.3073  0.2992
  291MOL    C9535475   7.131   8.847   0.036 -0.1658 -1.1568  0.5791
  291MOL    H9635476   7.107   8.849   9.110  0.3032  2.1676  0.4892
  291MOL    H9735477   7.237   8.824   0.039 -0.0205 -0.5400  0.1047
  291MOL    C9835478   7.052   8.737   0.110  0.4109  0.7409  0.1901
  291MOL   Cl9935479   6.890   8.801   0.133  0.3490  0.1843 -0.0535
  291MOL  Cl10035480   7.115   8.706   0.276 -0.2660  0.1314 -0.0942
  291MOL   C10135481   7.041   8.587   0.055  0.4083 -0.5118 -0.3592
  291MOL   H10235482   7.122   8.519   0.084 -0.5971 -1.8632 -0.6970
  291MOL   H10335483   6.954   8.554   0.112  0.0543  2.2821  0.8078
  291MOL   C10435484   7.017   8.563   9.084  0.4172  0.2559 -0.1675
  291MOL  Cl10535485   7.165   8.592   8.991  0.0812 -0.2014 -0.3398
  291MOL  Cl10635486   6.902   8.679   9.008  0.3141 -0.0932  0.8379
  291MOL   C10735487   6.955   8.426   9.051 -0.1839  0.6838  0.8386
  291MOL   H10835488   6.848   8.418   9.065 -0.1606 -0.9888  0.1532
  291MOL   H10935489   6.954   8.422   8.942  1.5576 -1.0497  0.8492
  291MOL   C11035490   7.018   8.294   9.095  0.0679 -0.1867 -0.8959
  291MOL  Cl11135491   7.020   8.282   0.094  0.0934  0.0554  0.0055
  291MOL  Cl11235492   7.191   8.282   9.045 -0.3088  0.1188 -0.1253
  291MOL   C11335493   6.932   8.170   9.044 -0.2068  0.1556 -0.4587
  291MOL   H11435494   6.994   8.086   9.076  2.2110  2.0145 -0.2033
  291MOL   H11535495   6.841   8.162   9.103 -0.0420 -0.1745 -0.2447
  291MOL   C11635496   6.887   8.148   8.892  0.1087  0.1241  0.3176
  291MOL  Cl11735497   6.768   8.267   8.831  0.3376  0.5462 -0.2577
  291MOL  Cl11835498   6.816   7.991   8.891  0.1264 -0.0021  0.3298
  291MOL   C11935499   6.999   8.142   8.783 -0.4231 -0.2837  0.2266
  291MOL   H12035500   6.951   8.112   8.690 -2.3534 -0.2849  1.1974
  291MOL   H12135501   7.050   8.238   8.776 -1.3441  0.1897 -0.1930
  291MOL   H12235502   7.081   8.078   8.813  1.0491  1.5408  0.1499
  292MOL     C135503   8.841   2.794   4.504  0.4622  0.1770  0.4084
  292MOL    Cl235504   8.751   2.900   4.620  0.0125  0.2776  0.2496
  292MOL    Cl335505   8.787   2.630   4.535  0.0611  0.0754  0.0337
  292MOL     C435506   8.824   2.834   4.360 -0.3885  0.0998 -0.2218
  292MOL     H535507   8.727   2.795   4.328 -1.0849  1.1227  0.5975
  292MOL     H635508   8.805   2.941   4.361 -2.0499 -0.1006 -3.7592
  292MOL     H735509   8.942   2.797   4.546  0.4581  0.1094  0.4235
  292MOL     C835510   8.945   2.791   4.270 -0.2107  0.0016 -0.1395
  292MOL    Cl935511   8.934   2.614   4.241 -0.0592  0.0884 -0.4234
  292MOL   Cl1035512   9.107   2.822   4.346  0.3696 -0.3291 -0.1133
  292MOL    C1135513   8.936   2.856   4.129  0.0357 -0.2200  0.7033
  292MOL    H1235514   9.030   2.846   4.075 -0.2961 -0.4416  0.1719
  292MOL    H1335515   8.862   2.794   4.080  0.6097 -0.3718  0.0351
  292MOL    C1435516   8.887   3.003   4.113  0.0740 -0.1455  0.2281
  292MOL   Cl1535517   8.977   3.111   4.225 -0.3376 -0.0694 -0.4062
  292MOL   Cl1635518   8.708   3.023   4.150 -0.5373  0.4388 -0.3924
  292MOL    C1735519   8.912   3.061   3.964  0.5658  0.1885  0.3299
  292MOL    H1835520   8.873   3.163   3.957  4.2398  1.5924 -0.6158
  292MOL    H1935521   9.020   3.068   3.958  0.6478 -2.0157 -0.9661
  292MOL    C2035522   8.868   2.975   3.843  0.5410 -1.2549  0.3084
  292MOL   Cl2135523   8.703   2.910   3.865 -0.1651  0.2556  0.3281
  292MOL   Cl2235524   8.975   2.829   3.824  0.8153 -0.0566 -0.0106
  292MOL    C2335525   8.861   3.064   3.710  0.0858 -0.1165  0.5685
  292MOL    H2435526   8.799   3.004   3.643 -0.4146 -0.4072  1.2796
  292MOL    H2535527   8.786   3.139   3.735  1.0224  1.2476 -0.6378
  292MOL    C2635528   8.987   3.113   3.634  0.3948 -0.5844 -0.0817
  292MOL   Cl2735529   9.047   2.977   3.540 -0.0214 -0.0092  0.4890
  292MOL   Cl2835530   9.123   3.160   3.749 -0.3692 -0.2794  0.3590
  292MOL    C2935531   8.955   3.230   3.529 -0.2171 -1.0943 -0.5819
  292MOL    H3035532   9.057   3.251   3.496 -0.4441  0.6997 -0.1828
  292MOL    H3135533   8.904   3.196   3.439 -1.7255 -0.4254  0.0026
  292MOL    C3235534   8.877   3.356   3.572 -0.5936  0.3441 -0.6075
  292MOL   Cl3335535   8.905   3.398   3.747  0.0495 -0.1381  0.2541
  292MOL   Cl3435536   8.700   3.325   3.558 -0.2944  0.0408  0.3254
  292MOL    C3535537   8.914   3.476   3.484  0.3044  0.7890 -0.8983
  292MOL    H3635538   8.844   3.557   3.509  1.5069  1.8037 -0.7960
  292MOL    H3735539   9.014   3.510   3.508  1.2912 -2.4295 -0.2288
  292MOL    C3835540   8.923   3.467   3.330 -0.1966 -0.7242 -0.1311
  292MOL   Cl3935541   8.795   3.365   3.251 -0.2042 -0.2116  0.2067
  292MOL   Cl4035542   9.080   3.402   3.261 -0.3283 -0.1597 -0.2929
  292MOL    C4135543   8.889   3.605   3.272  0.2747 -0.5990  0.5328
  292MOL    H4235544   8.900   3.592   3.164  1.8883 -0.1823  0.6375
  292MOL    H4335545   8.785   3.631   3.289 -0.1790 -1.0964 -1.3842
  292MOL    C4435546   8.961   3.740   3.308 -0.3782 -0.0880  0.3987
  292MOL   Cl4535547   9.137   3.707   3.332  0.1567 -0.2576 -0.1105
  292MOL   Cl4635548   8.899   3.798   3.467  0.4892  0.1175 -0.1752
  292MOL    C4735549   8.932   3.848   3.202 -0.8658  0.1508  0.5797
  292MOL    H4835550   8.972   3.802   3.113 -1.3619 -1.2440  1.0690
  292MOL    H4935551   8.824   3.864   3.198 -0.9201 -0.4497 -0.2347
  292MOL    C5035552   8.978   4.002   3.205  0.0336  0.0620 -0.0781
  292MOL   Cl5135553   8.908   4.075   3.340  0.0873  0.5770 -0.2931
  292MOL   Cl5235554   8.908   4.073   3.057  0.2620  0.0160 -0.0461
  292MOL    C5335555   9.131   4.016   3.209 -0.1896  0.0001  0.0390
  292MOL    H5435556   9.170   3.977   3.303  1.3554  0.3918 -0.4161
  292MOL    H5535557   9.178   3.947   3.139 -0.3846 -0.1933  0.0972
  292MOL    C5635558   0.023   4.158   3.201 -0.9282 -0.2735 -0.1056
  292MOL   Cl5735559   9.151   4.278   3.324  0.2451 -0.3366  0.3747
  292MOL   Cl5835560   9.166   4.234   3.052 -0.0020  0.1077 -0.0040
  292MOL    C5935561   0.178   4.145   3.214 -0.6005 -0.6382  0.3619
  292MOL    H6035562   0.213   4.102   3.120  0.3109 -1.8151  1.2266
  292MOL    H6135563   0.222   4.244   3.224 -1.2196 -0.1666 -1.2933
  292MOL    C6235564   0.246   4.059   3.316 -0.4764 -0.1027 -0.1465
  292MOL   Cl6335565   0.231   3.885   3.267 -0.2810  0.1715  0.0794
  292MOL   Cl6435566   0.164   4.080   3.478 -0.2065  0.2030 -0.1341
  292MOL    C6535567   0.401   4.078   3.326  0.5655  0.9514  0.0718
  292MOL    H6635568   0.413   4.008   3.409 -0.0364  2.4059  1.4015
  292MOL    H6735569   0.443   4.024   3.241 -2.2910 -1.7294  0.2314
  292MOL    C6835570   0.484   4.210   3.355 -0.4661 -0.1439 -0.8433
  292MOL   Cl6935571   0.405   4.286   3.491 -0.0992 -0.7177  0.3537
  292MOL   Cl7035572   0.486   4.322   3.211 -0.3987 -0.0153  0.0926
  292MOL    C7135573   0.632   4.173   3.389  0.4102 -0.1096 -0.0485
  292MOL    H7235574   0.629   4.108   3.477 -0.9323  0.9437  0.7170
  292MOL    H7335575   0.671   4.106   3.313  0.5052  0.7622 -0.7672
  292MOL    C7435576   0.747   4.282   3.412  0.5706  0.2475  0.4039
  292MOL   Cl7535577   0.791   4.347   3.254  0.1653 -0.5241  0.0888
  292MOL   Cl7635578   0.882   4.189   3.473  0.3203 -0.1324  0.2181
  292MOL    C7735579   0.699   4.399   3.506 -0.0228  1.0064  0.0840
  292MOL    H7835580   0.604   4.438   3.469 -1.4724 -0.4336  2.1233
  292MOL    H7935581   0.663   4.347   3.595 -1.4853  2.4424  0.3508
  292MOL    C8035582   0.795   4.515   3.551 -0.1392 -0.9132  0.4724
  292MOL   Cl8135583   0.965   4.457   3.565 -0.2308  0.2261  0.0148
  292MOL   Cl8235584   0.732   4.552   3.716 -0.3784 -0.0507 -0.5759
  292MOL    C8335585   0.799   4.649   3.461  0.3720 -0.2810  0.5164
  292MOL    H8435586   0.863   4.717   3.515  0.7155  0.1074 -0.3679
  292MOL    H8535587   0.865   4.628   3.377  1.1188 -1.0482  1.2842
  292MOL    C8635588   0.674   4.724   3.405 -0.6000 -0.3078  0.3671
  292MOL   Cl8735589   0.590   4.623   3.278 -0.0893 -0.3232  0.2440
  292MOL   Cl8835590   0.719   4.866   3.303 -0.2899 -0.4598 -0.2964
  292MOL    C8935591   0.560   4.764   3.508  0.1916  0.1679  0.1997
  292MOL    H9035592   0.476   4.787   3.443  2.4276  1.2224 -2.4351
  292MOL    H9135593   0.529   4.672   3.557  2.5161 -0.2921  0.8660
  292MOL    C9235594   0.584   4.878   3.610  0.2509  0.6850  0.1320
  292MOL   Cl9335595   0.520   5.034   3.541 -0.0473 -0.1803 -0.3662
  292MOL   Cl9435596   0.758   4.913   3.629  0.4349  0.3552  0.1999
  292MOL    C9535597   0.520   4.848   3.749 -1.3671  0.1697 -0.4808
  292MOL    H9635598   0.578   4.771   3.799 -1.2456  0.7654  0.2969
  292MOL    H9735599   0.536   4.939   3.807 -2.3266  1.2028 -1.8073
  292MOL    C9835600   0.376   4.787   3.767 -0.4009 -0.0619  0.7791
  292MOL   Cl9935601   0.355   4.616   3.707 -0.0376  0.2359 -0.0932
  292MOL  Cl10035602   0.249   4.883   3.673 -0.4278 -0.2600  0.2614
  292MOL   C10135603   0.312   4.779   3.912 -0.1157  0.1320  0.7543
  292MOL   H10235604   0.283   4.880   3.942  4.4178  1.2785  1.5753
  292MOL   H10335605   0.213   4.733   3.908  0.2436 -0.5154 -1.1554
  292MOL   C10435606   0.393   4.724   4.028 -0.0862  0.0353 -0.0851
  292MOL  Cl10535607   0.518   4.853   4.070 -0.0082  0.1296 -0.6209
  292MOL  Cl10635608   0.479   4.569   3.988  0.6115  0.0470 -0.2867
  292MOL   C10735609   0.308   4.685   4.154 -0.7235 -0.1781 -0.6052
  292MOL   H10835610   0.242   4.605   4.120 -1.9384  0.1384  0.9380
  292MOL   H10935611   0.366   4.638   4.233 -1.3024 -0.2578 -0.2188
  292MOL   C11035612   0.204   4.778   4.224 -0.2411  0.6549 -0.5753
  292MOL  Cl11135613   0.076   4.810   4.109 -0.1657  0.0248 -0.3300
  292MOL  Cl11235614   0.276   4.937   4.268 -0.1297 -0.0951  0.2004
  292MOL   C11335615   0.152   4.724   4.359  0.1567  1.4215  0.5187
  292MOL   H11435616   0.238   4.740   4.424  1.0065  0.5863 -0.3843
  292MOL   H11535617   0.075   4.786   4.405 -2.0404 -1.0348  0.2697
  292MOL   C11635618   0.101   4.573   4.359 -0.2898  0.9041  0.3320
  292MOL  Cl11735619   0.242   4.455   4.366  0.1583 -0.0743 -0.1068
  292MOL  Cl11835620   9.175   4.529   4.227 -0.2269  0.2000  0.0465
  292MOL   C11935621   0.025   4.548   4.493 -0.3190 -0.2484 -0.9406
  292MOL   H12035622   0.097   4.574   4.571  0.6897  1.2671 -2.3466
  292MOL   H12135623   9.116   4.610   4.500  0.6393  1.1053 -0.2095
  292MOL   H12235624   9.176   4.444   4.505 -0.5318 -0.2230 -1.2263
  293MOL     C135625   3.135   0.494   4.363 -0.1603  0.4702 -0.2851
  293MOL    Cl235626   3.275   0.402   4.324  0.2425 -0.2872  0.4137
  293MOL    Cl335627   3.181   0.630   4.473 -0.0373  0.1066 -0.5429
  293MOL     C435628   3.063   0.537   4.233  0.7670  0.1586  0.4815
  293MOL     H535629   3.127   0.616   4.194  0.1056  0.3423 -0.2456
  293MOL     H635630   3.072   0.449   4.169  1.0274 -0.2832  1.1290
  293MOL     H735631   3.078   0.423   4.423 -0.9474  1.3886  0.0633
  293MOL     C835632   2.909   0.574   4.245  0.0048 -0.3348 -0.7077
  293MOL    Cl935633   2.896   0.714   4.362 -0.4168  0.7645  0.8648
  293MOL   Cl1035634   2.827   0.436   4.322 -0.0950  0.5340  0.2801
  293MOL    C1135635   2.848   0.606   4.101  0.1305  0.4264 -0.8606
  293MOL    H1235636   2.892   0.694   4.053  2.6868  0.0241  0.6588
  293MOL    H1335637   2.875   0.522   4.036 -0.5080  0.0971 -0.7001
  293MOL    C1435638   2.700   0.620   4.079 -0.4546  0.3673 -1.2991
  293MOL   Cl1535639   2.630   0.455   4.056 -0.0011 -0.0556 -0.2402
  293MOL   Cl1635640   2.689   0.697   3.923  0.1304  0.4399  0.2760
  293MOL    C1735641   2.633   0.701   4.192 -0.2822  0.5903  0.0325
  293MOL    H1835642   2.627   0.624   4.269  0.4780 -1.6222 -2.0222
  293MOL    H1935643   2.698   0.785   4.212  0.7237  0.0570 -0.9337
  293MOL    C2035644   2.488   0.763   4.180  0.0796 -0.2306  0.0948
  293MOL   Cl2135645   2.498   0.920   4.094 -0.1069 -0.1401 -0.2695
  293MOL   Cl2235646   2.448   0.796   4.350 -0.4072  0.3559 -0.1687
  293MOL    C2335647   2.379   0.671   4.116 -0.6840 -0.2665 -0.8476
  293MOL    H2435648   2.397   0.668   4.008  1.6887  0.0409 -0.4722
  293MOL    H2535649   2.402   0.570   4.151  0.0236 -0.0858 -0.7880
  293MOL    C2635650   2.225   0.692   4.119 -0.4199  0.3451  0.5382
  293MOL   Cl2735651   2.191   0.868   4.083 -0.0949  0.3690 -0.5925
  293MOL   Cl2835652   2.170   0.654   4.278 -0.6323 -0.2727 -0.2679
  293MOL    C2935653   2.151   0.600   4.022 -0.1600 -0.1983 -0.0797
  293MOL    H3035654   2.210   0.604   3.930  1.3240 -1.0393  0.8156
  293MOL    H3135655   2.158   0.501   4.067  1.4966 -0.6209 -1.2093
  293MOL    C3235656   2.004   0.618   3.978 -0.1285 -0.9188 -0.5603
  293MOL   Cl3335657   2.004   0.752   3.868  0.0383 -0.0677  0.3733
  293MOL   Cl3435658   1.900   0.682   4.110 -0.0505 -0.2210 -0.0967
  293MOL    C3535659   1.936   0.497   3.914 -0.6294 -0.0488  0.1193
  293MOL    H3635660   1.830   0.523   3.908 -0.9725 -1.7554 -2.0882
  293MOL    H3735661   1.972   0.490   3.811  0.6549 -0.5234  0.5928
  293MOL    C3835662   1.937   0.351   3.970  0.0215  0.4445  0.2450
  293MOL   Cl3935663   1.878   0.357   4.140  0.0040  0.2208 -0.0410
  293MOL   Cl4035664   2.100   0.279   3.965 -0.0672  0.6277 -0.0362
  293MOL    C4135665   1.830   0.258   3.900  0.2320  0.1041 -0.4182
  293MOL    H4235666   1.838   0.165   3.956 -0.4036  0.7328  0.7287
  293MOL    H4335667   1.730   0.297   3.917 -0.2145 -0.5354 -1.5867
  293MOL    C4435668   1.825   0.236   3.748  0.8105  0.7647 -0.4937
  293MOL   Cl4535669   1.986   0.212   3.684  0.1024 -0.2279 -0.1103
  293MOL   Cl4635670   1.749   0.386   3.674  0.2032 -0.2895 -0.4720
  293MOL    C4735671   1.743   0.107   3.705 -0.0550  0.2001  0.5534
  293MOL    H4835672   1.639   0.139   3.711  0.0170  0.4743  0.3419
  293MOL    H4935673   1.764   0.110   3.599  1.6640  0.8194  0.9036
  293MOL    C5035674   1.765   9.152   3.774 -0.0501 -0.5381 -0.2498
  293MOL   Cl5135675   1.661   9.150   3.922 -0.5413  0.2590 -0.0527
  293MOL   Cl5235676   1.931   9.119   3.827 -0.0495  0.1261  0.0412
  293MOL    C5335677   1.719   9.028   3.692 -0.9581  0.1025  0.3007
  293MOL    H5435678   1.758   8.935   3.735 -1.1471  0.2250  0.7372
  293MOL    H5535679   1.613   9.024   3.720 -1.2533 -1.0789 -0.9323
  293MOL    C5635680   1.751   9.018   3.539 -0.4608  0.0366 -0.5154
  293MOL   Cl5735681   1.908   9.090   3.507  0.1060  0.0839 -0.0035
  293MOL   Cl5835682   1.638   9.124   3.454  0.3063  0.2578  0.0271
  293MOL    C5935683   1.748   8.881   3.467  0.0505 -0.5627 -0.0431
  293MOL    H6035684   1.737   8.899   3.360 -0.7146 -3.5993 -0.5182
  293MOL    H6135685   1.846   8.836   3.479  0.5357  0.4812 -0.0473
  293MOL    C6235686   1.637   8.774   3.501 -0.5505  0.1435  0.1944
  293MOL   Cl6335687   1.469   8.839   3.461  0.1581 -0.1550 -0.0955
  293MOL   Cl6435688   1.637   8.719   3.675 -0.3552 -0.0354  0.0232
  293MOL    C6535689   1.676   8.650   3.415 -0.2961  0.2017 -0.1255
  293MOL    H6635690   1.699   8.685   3.315 -1.2390  1.0863 -0.0481
  293MOL    H6735691   1.765   8.610   3.464 -0.9426  0.3228  1.1792
  293MOL    C6835692   1.582   8.526   3.408  0.7310 -0.1005 -0.0277
  293MOL   Cl6935693   1.578   8.439   3.576 -0.4496  0.3405  0.0789
  293MOL   Cl7035694   1.681   8.421   3.297  0.1309 -0.2584  0.2258
  293MOL    C7135695   1.435   8.542   3.356  0.4754  0.0214  0.1065
  293MOL    H7235696   1.377   8.554   3.448  1.7772 -1.7695  1.2151
  293MOL    H7335697   1.428   8.638   3.305  0.4369 -0.7386 -1.3295
  293MOL    C7435698   1.359   8.434   3.278 -0.2365 -0.0185  0.0831
  293MOL   Cl7535699   1.404   8.277   3.338 -0.4395 -0.2644  0.1994
  293MOL   Cl7635700   1.408   8.450   3.105  0.0833 -0.4533  0.1573
  293MOL    C7735701   1.205   8.432   3.284  0.9033 -0.3135 -0.1127
  293MOL    H7835702   1.169   8.348   3.225 -1.2948 -1.8432  3.2016
  293MOL    H7935703   1.184   8.405   3.388 -2.0983 -0.2698 -0.6901
  293MOL    C8035704   1.114   8.555   3.260  0.0735 -0.1424 -0.5061
  293MOL   Cl8135705   1.152   8.691   3.365  0.2754  0.1623 -0.0051
  293MOL   Cl8235706   0.949   8.497   3.300 -0.1223  0.1110 -0.1223
  293MOL    C8335707   1.120   8.604   3.112  0.0070 -0.2193  0.2976
  293MOL    H8435708   1.208   8.667   3.099 -0.3225  0.0566 -0.6504
  293MOL    H8535709   1.147   8.508   3.069  0.1732 -0.2605  0.4953
  293MOL    C8635710   0.995   8.668   3.044 -0.0869 -1.4574 -0.3916
  293MOL   Cl8735711   0.881   8.539   3.004 -0.2638 -0.2256 -0.1164
  293MOL   Cl8835712   1.069   8.715   2.885 -0.1168 -0.0423  0.0835
  293MOL    C8935713   0.940   8.798   3.128  0.7140  1.1296  0.3694
  293MOL    H9035714   0.925   8.763   3.230 -0.1069 -0.2071 -0.1873
  293MOL    H9135715   1.009   8.882   3.130 -1.2281  2.7952 -0.4255
  293MOL    C9235716   0.804   8.868   3.090 -0.0097 -0.2619  0.1318
  293MOL   Cl9335717   0.781   8.994   3.212 -0.3456  0.0792 -0.0679
  293MOL   Cl9435718   0.665   8.762   3.131  0.2990  0.1128  0.4487
  293MOL    C9535719   0.785   8.915   2.945  0.0248 -0.2881  0.5538
  293MOL    H9635720   0.814   8.835   2.878 -1.0962  0.5333 -0.9267
  293MOL    H9735721   0.681   8.934   2.919  0.5794  0.8069 -0.9066
  293MOL    C9835722   0.850   9.042   2.888  0.4718 -0.8435  0.2587
  293MOL   Cl9935723   0.745   9.178   2.950 -0.0279 -0.4007  0.2375
  293MOL  Cl10035724   0.819   9.048   2.710 -0.2113 -0.1472  0.0844
  293MOL   C10135725   1.004   9.070   2.932  0.5251 -1.0596  0.4709
  293MOL   H10235726   1.005   9.072   3.041 -0.6579  0.4050  0.4721
  293MOL   H10335727   1.061   8.978   2.918  3.1641  0.3691  1.4421
  293MOL   C10435728   1.094   0.001   2.874  0.2749  0.4580  0.3165
  293MOL  Cl10535729   1.007   0.151   2.860  0.0274 -0.1016 -0.3052
  293MOL  Cl10635730   1.139   9.126   2.706  0.2284 -0.3223  0.2429
  293MOL   C10735731   1.227   0.045   2.957  0.5573  0.2407  0.1248
  293MOL   H10835732   1.278   0.123   2.901 -1.5614  1.9219  0.4609
  293MOL   H10935733   1.180   0.081   3.049 -2.0533  1.7515 -1.7229
  293MOL   C11035734   1.340   9.129   2.998 -0.2033 -0.5330 -0.6408
  293MOL  Cl11135735   1.264   8.992   3.087  0.1146 -0.1813  0.0651
  293MOL  Cl11235736   1.440   0.047   3.121  0.2626 -0.1699 -0.2517
  293MOL   C11335737   1.420   9.081   2.874  0.0958  0.2081 -0.8866
  293MOL   H11435738   1.353   9.037   2.800  0.4204 -2.2164  0.2033
  293MOL   H11535739   1.464   9.162   2.816  0.9119 -0.0307 -0.6056
  293MOL   C11635740   1.522   8.965   2.897 -0.3476  0.3016  0.5473
  293MOL  Cl11735741   1.620   8.958   2.751 -0.1344  0.1193  0.2118
  293MOL  Cl11835742   1.447   8.800   2.910 -0.0758 -0.1708  0.0198
  293MOL   C11935743   1.618   8.971   3.019  0.0611  0.2135  0.1926
  293MOL   H12035744   1.690   8.890   3.015 -0.8629 -0.5022 -2.7929
  293MOL   H12135745   1.680   9.061   3.013 -1.3233  1.3028  1.7547
  293MOL   H12235746   1.564   8.986   3.113  1.4095  1.2422  0.8268
  294MOL     C135747   8.960   4.884   2.482  0.2542  0.0791  0.4739
  294MOL    Cl235748   8.869   4.902   2.632  0.1117 -0.0295  0.4109
  294MOL    Cl335749   9.122   4.818   2.529 -0.0762 -0.0219 -0.5334
  294MOL     C435750   8.884   4.790   2.381 -0.6422  0.2528 -0.4711
  294MOL     H535751   8.913   4.695   2.427  1.7689  0.3202 -1.7381
  294MOL     H635752   8.777   4.801   2.398 -0.5053 -1.7765  2.0486
  294MOL     H735753   8.980   4.988   2.456 -1.0058  0.6863  1.7944
  294MOL     C835754   8.920   4.802   2.237  0.2628 -0.3976  0.5743
  294MOL    Cl935755   9.074   4.718   2.200  0.2056 -0.0873  0.2212
  294MOL   Cl1035756   8.936   4.975   2.180 -0.1065 -0.1623 -0.1889
  294MOL    C1135757   8.806   4.753   2.146  0.4695  0.0703 -0.3881
  294MOL    H1235758   8.723   4.819   2.173 -0.5057 -1.3302  0.1220
  294MOL    H1335759   8.831   4.796   2.049 -0.6977  4.0891  1.0188
  294MOL    C1435760   8.760   4.606   2.131 -0.1044  0.4108 -1.1163
  294MOL   Cl1535761   8.735   4.536   2.290  0.1091  0.0414  0.2836
  294MOL   Cl1635762   8.879   4.505   2.050 -0.1620  0.0664  0.0227
  294MOL    C1735763   8.614   4.595   2.075 -0.2716  0.5890  0.0952
  294MOL    H1835764   8.601   4.487   2.072  0.7674  0.4571  0.3025
  294MOL    H1935765   8.546   4.638   2.149 -1.6905  0.4634 -1.0849
  294MOL    C2035766   8.576   4.664   1.937  0.1594  1.1030  0.4349
  294MOL   Cl2135767   8.578   4.843   1.947  0.2772 -0.0249  0.7266
  294MOL   Cl2235768   8.407   4.607   1.911 -0.3110 -0.3356  0.0709
  294MOL    C2335769   8.674   4.613   1.817  0.3762  0.0592 -0.4331
  294MOL    H2435770   8.761   4.678   1.827  0.1956  0.4461 -1.3292
  294MOL    H2535771   8.698   4.511   1.846 -2.2069  0.5054  3.8353
  294MOL    C2635772   8.636   4.622   1.669  0.3463 -0.7658 -0.6502
  294MOL   Cl2735773   8.565   4.782   1.635 -0.2056  0.1191  0.2906
  294MOL   Cl2835774   8.521   4.489   1.636  0.0586  0.2097 -0.1691
  294MOL    C2935775   8.745   4.610   1.569  0.3520  0.3249 -0.4996
  294MOL    H3035776   8.706   4.601   1.467  0.4163 -1.2744 -0.3882
  294MOL    H3135777   8.795   4.707   1.564 -1.3829  1.3018  0.5586
  294MOL    C3235778   8.863   4.506   1.587  0.2308 -0.3664 -0.3286
  294MOL   Cl3335779   8.800   4.348   1.624  0.1387  0.2896 -0.3588
  294MOL   Cl3435780   8.970   4.556   1.722 -0.0951  0.1563 -0.1904
  294MOL    C3535781   8.959   4.514   1.463 -0.5158 -0.0725 -0.6684
  294MOL    H3635782   9.017   4.606   1.477 -2.3721  0.9679  0.4227
  294MOL    H3735783   9.031   4.433   1.478  1.5021  1.7180 -0.3600
  294MOL    C3835784   8.915   4.505   1.314  0.0693  0.2483 -0.1262
  294MOL   Cl3935785   8.854   4.668   1.269  0.0337  0.4235 -0.3368
  294MOL   Cl4035786   8.789   4.385   1.281  0.1598  0.0637  0.1678
  294MOL    C4135787   9.036   4.464   1.227 -0.9590  0.3563  0.8954
  294MOL    H4235788   9.058   4.359   1.242 -0.8312  0.3145  0.4246
  294MOL    H4335789   8.988   4.466   1.130 -0.3048  2.9720  0.5813
  294MOL    C4435790   9.177   4.548   1.221 -0.1003 -0.0092  0.5754
  294MOL   Cl4535791   0.095   4.508   1.371  0.0918  0.5633  0.0307
  294MOL   Cl4635792   9.153   4.722   1.231  0.0212 -0.1611  0.1699
  294MOL    C4735793   0.085   4.510   1.093  0.3970  0.5204 -0.0958
  294MOL    H4835794   0.172   4.575   1.106  0.5407  0.7845 -2.2435
  294MOL    H4935795   0.126   4.412   1.120 -1.1867  0.5595  2.7206
  294MOL    C5035796   0.023   4.522   0.949 -0.1016  0.8000 -0.2434
  294MOL   Cl5135797   9.117   4.370   0.914 -0.1963  0.0423 -0.2939
  294MOL   Cl5235798   0.169   4.526   0.843  0.5072  0.3587 -0.3866
  294MOL    C5335799   9.110   4.646   0.919  0.1130 -0.2784  0.3983
  294MOL    H5435800   9.021   4.626   0.979  0.0029 -3.3967 -0.7338
  294MOL    H5535801   9.147   4.730   0.979  1.8343  0.1209 -1.1731
  294MOL    C5635802   9.081   4.699   0.768  0.3876  0.5212  0.3454
  294MOL   Cl5735803   9.060   4.556   0.661 -0.2675 -0.2353  0.4101
  294MOL   Cl5835804   0.048   4.772   0.703 -0.4621 -0.3587  0.0979
  294MOL    C5935805   8.959   4.797   0.751 -0.3643 -0.2363 -0.2734
  294MOL    H6035806   8.963   4.844   0.652  0.3844  0.3779  0.0444
  294MOL    H6135807   8.865   4.743   0.748 -0.7483  0.4726 -1.6361
  294MOL    C6235808   8.939   4.917   0.845 -0.1413 -0.0418  0.7496
  294MOL   Cl6335809   9.095   5.003   0.863 -0.1265  0.3041  0.1833
  294MOL   Cl6435810   8.901   4.870   1.020 -0.1628  0.0954  0.1949
  294MOL    C6535811   8.834   5.023   0.807 -0.3619 -0.4146 -0.1437
  294MOL    H6635812   8.818   5.077   0.900  0.2606 -2.0368  0.9303
  294MOL    H6735813   8.880   5.094   0.739 -1.2248  0.9248  0.6398
  294MOL    C6835814   8.697   4.987   0.744 -0.0043 -0.5995  0.5226
  294MOL   Cl6935815   8.730   4.922   0.579 -0.1225 -0.1041  0.1459
  294MOL   Cl7035816   8.608   5.141   0.712  0.4961 -0.0288 -0.1427
  294MOL    C7135817   8.625   4.886   0.835  0.0585  0.0970 -0.7717
  294MOL    H7235818   8.689   4.811   0.879 -0.9375 -1.4514 -1.9077
  294MOL    H7335819   8.596   4.950   0.918  3.2403 -0.1504  0.5663
  294MOL    C7435820   8.500   4.802   0.788 -0.7396 -0.4432  0.1571
  294MOL   Cl7535821   8.542   4.685   0.664 -0.0756  0.1572  0.6455
  294MOL   Cl7635822   8.382   4.901   0.710 -0.3215 -0.1970  0.4355
  294MOL    C7735823   8.427   4.720   0.897 -0.5988 -0.1073 -0.4736
  294MOL    H7835824   8.366   4.789   0.955 -1.2467 -1.4995  0.5392
  294MOL    H7935825   8.349   4.665   0.845 -1.6672 -0.2430  1.2083
  294MOL    C8035826   8.495   4.637   1.008  0.4580 -1.0508  0.1885
  294MOL   Cl8135827   8.570   4.750   1.122  0.0835 -0.1467  0.3475
  294MOL   Cl8235828   8.626   4.537   0.930  0.1696  0.3423 -0.3031
  294MOL    C8335829   8.400   4.540   1.085 -0.4084 -0.0227  0.1374
  294MOL    H8435830   8.464   4.493   1.160  1.7841  2.5968 -0.0060
  294MOL    H8535831   8.348   4.615   1.145  0.6145  0.8527 -0.0639
  294MOL    C8635832   8.305   4.435   1.023 -0.4461 -0.2837  0.1898
  294MOL   Cl8735833   8.391   4.338   0.896 -0.2712  0.4662 -0.2168
  294MOL   Cl8835834   8.181   4.529   0.951  0.0255  0.6257  0.3087
  294MOL    C8935835   8.240   4.333   1.123  0.7734 -0.6367  0.2544
  294MOL    H9035836   8.177   4.266   1.064 -0.0125  1.3363 -1.2079
  294MOL    H9135837   8.323   4.268   1.154  0.8727  0.6620  2.8399
  294MOL    C9235838   8.159   4.366   1.251  0.6327  0.0515 -0.4871
  294MOL   Cl9335839   8.016   4.472   1.216 -0.2301  0.3590 -0.1821
  294MOL   Cl9435840   8.269   4.443   1.359 -0.4775 -0.5276  0.1493
  294MOL    C9535841   8.094   4.242   1.330  0.4957  0.7053 -0.4158
  294MOL    H9635842   8.054   4.277   1.426  2.2151 -0.6378  0.8207
  294MOL    H9735843   8.008   4.217   1.267  0.3377  0.3238 -0.0552
  294MOL    C9835844   8.156   4.104   1.338 -0.4288 -0.5101 -0.2179
  294MOL   Cl9935845   8.315   4.113   1.415  0.4924  0.3147  0.0362
  294MOL  Cl10035846   8.181   4.036   1.174 -0.0975  0.0794 -0.0416
  294MOL   C10135847   8.073   4.004   1.417  0.4999  0.6743  0.1995
  294MOL   H10235848   8.000   3.953   1.355 -2.1866  1.7287  2.4081
  294MOL   H10335849   8.142   3.920   1.420 -2.2508 -1.7543 -2.0578
  294MOL   C10435850   8.022   4.023   1.561  0.3486 -1.2722  0.0823
  294MOL  Cl10535851   7.872   4.124   1.558  0.0319 -0.2755 -0.1002
  294MOL  Cl10635852   8.138   4.107   1.667  0.4100  0.2266  0.1743
  294MOL   C10735853   7.978   3.886   1.618 -0.6386 -0.1522  0.6445
  294MOL   H10835854   7.885   3.894   1.673 -1.2176  0.4931 -0.4090
  294MOL   H10935855   7.942   3.829   1.533  1.5748 -1.1400  0.3275
  294MOL   C11035856   8.084   3.791   1.692  0.2302 -0.7465 -0.4225
  294MOL  Cl11135857   8.010   3.633   1.725 -0.1617 -0.0392 -0.3054
  294MOL  Cl11235858   8.111   3.868   1.853 -0.1557 -0.3537  0.4270
  294MOL   C11335859   8.222   3.775   1.623 -0.2543  0.2898  0.6992
  294MOL   H11435860   8.260   3.874   1.598 -1.8104  0.2487 -2.0179
  294MOL   H11535861   8.286   3.750   1.708  1.4073  2.3383  0.0629
  294MOL   C11635862   8.249   3.674   1.513  0.1932 -0.1525 -0.0195
  294MOL  Cl11735863   8.115   3.654   1.404 -0.2142  0.0392 -0.3875
  294MOL  Cl11835864   8.303   3.523   1.579  0.3696  0.4071  0.0511
  294MOL   C11935865   8.374   3.706   1.428 -0.2966  0.1653  0.3109
  294MOL   H12035866   8.370   3.800   1.374 -3.1228 -0.3002 -0.3688
  294MOL   H12135867   8.461   3.709   1.493 -0.9231 -3.6741  1.4620
  294MOL   H12235868   8.383   3.633   1.348 -1.3606  0.1600  0.1907
  295MOL     C135869   6.180   3.701   3.071 -0.1125  0.6448 -0.4727
  295MOL    Cl235870   6.277   3.760   2.939 -0.0457  0.0128  0.1899
  295MOL    Cl335871   6.186   3.827   3.198 -0.0014 -0.0888 -0.0271
  295MOL     C435872   6.030   3.689   3.019  0.1956 -0.5757  0.5267
  295MOL     H535873   5.994   3.787   2.987  0.7112 -0.3901  0.5186
  295MOL     H635874   6.031   3.634   2.925  1.0187  0.5905 -0.1536
  295MOL     H735875   6.221   3.605   3.104 -2.3946 -0.5485 -0.9962
  295MOL     C835876   5.916   3.631   3.111  0.0881  0.1703  0.4233
  295MOL    Cl935877   5.884   3.744   3.248  0.1424 -0.1817  0.3080
  295MOL   Cl1035878   5.960   3.470   3.161  0.1404  0.2681 -0.0236
  295MOL    C1135879   5.784   3.608   3.037  0.2178 -0.7115 -0.0961
  295MOL    H1235880   5.722   3.548   3.103  0.6249 -3.2773 -1.9682
  295MOL    H1335881   5.727   3.701   3.031 -0.6511 -1.2862 -0.9167
  295MOL    C1435882   5.771   3.557   2.893 -0.3652 -0.9110 -0.3045
  295MOL   Cl1535883   5.879   3.416   2.863  0.0495  0.2654 -0.0538
  295MOL   Cl1635884   5.810   3.697   2.777 -0.0457 -0.1276  0.0861
  295MOL    C1735885   5.622   3.497   2.883  0.2965  0.3103  0.6895
  295MOL    H1835886   5.599   3.431   2.966 -1.3850  1.0088  0.7885
  295MOL    H1935887   5.559   3.582   2.908  0.1443  0.8523 -1.4532
  295MOL    C2035888   5.568   3.441   2.744 -0.4318 -0.1343  0.5895
  295MOL   Cl2135889   5.392   3.447   2.765 -0.1452  0.4336  0.2754
  295MOL   Cl2235890   5.628   3.275   2.722 -0.1089 -0.2813  0.5381
  295MOL    C2335891   5.606   3.517   2.605  0.0279  0.0669 -0.2638
  295MOL    H2435892   5.573   3.620   2.623  0.3659  0.2441 -0.6586
  295MOL    H2535893   5.714   3.520   2.592  0.2183 -3.8553  0.0122
  295MOL    C2635894   5.543   3.463   2.467 -0.0199  0.5041 -0.0507
  295MOL   Cl2735895   5.413   3.343   2.488  0.4782 -0.2914 -0.0780
  295MOL   Cl2835896   5.687   3.388   2.381  0.1998 -0.0678 -0.3530
  295MOL    C2935897   5.482   3.577   2.387  0.2713 -0.3293  0.6941
  295MOL    H3035898   5.409   3.542   2.314 -1.7079  0.0121  2.4411
  295MOL    H3135899   5.412   3.631   2.452  0.3935 -0.3812  0.8680
  295MOL    C3235900   5.567   3.682   2.309 -1.2528 -0.4466 -0.0223
  295MOL   Cl3335901   5.627   3.607   2.155  0.0828 -0.3083 -0.1924
  295MOL   Cl3435902   5.706   3.732   2.404 -0.2038 -0.2647 -0.4481
  295MOL    C3535903   5.487   3.812   2.277 -0.5742  0.8027  0.0988
  295MOL    H3635904   5.487   3.864   2.373  2.2871 -1.3802  1.3332
  295MOL    H3735905   5.550   3.869   2.209 -0.9405  0.3665 -0.6080
  295MOL    C3835906   5.340   3.812   2.220  0.5147  0.2872  0.3090
  295MOL   Cl3935907   5.227   3.745   2.343  0.5149 -0.2336 -0.0963
  295MOL   Cl4035908   5.308   3.713   2.081  0.2345  0.2551  0.2453
  295MOL    C4135909   5.314   3.958   2.178 -0.0522 -0.2189 -0.1538
  295MOL    H4235910   5.373   4.030   2.236  2.2071 -0.6609 -1.8459
  295MOL    H4335911   5.365   3.973   2.083 -0.0048  1.1304  0.0632
  295MOL    C4435912   5.162   4.005   2.165  0.2474 -0.5036 -0.0569
  295MOL   Cl4535913   5.182   4.154   2.068 -0.3317 -0.5002 -0.0383
  295MOL   Cl4635914   5.109   4.043   2.333  0.1354  0.5878  0.1106
  295MOL    C4735915   5.055   3.914   2.089 -0.1620 -0.4019  0.1039
  295MOL    H4835916   5.073   3.933   1.983 -1.9906 -1.6055 -0.4392
  295MOL    H4935917   5.073   3.810   2.114 -1.7086 -0.6800  0.0675
  295MOL    C5035918   4.901   3.947   2.103  0.2971  0.0037 -0.3055
  295MOL   Cl5135919   4.846   3.888   2.261  0.4808  0.0959  0.0083
  295MOL   Cl5235920   4.810   3.854   1.976 -0.0459 -0.1007 -0.0132
  295MOL    C5335921   4.861   4.102   2.099  0.0961 -0.5277 -0.2309
  295MOL    H5435922   4.898   4.155   2.187 -0.7662 -2.1077  1.1119
  295MOL    H5535923   4.914   4.144   2.013  0.2186 -1.4505 -0.6104
  295MOL    C5635924   4.715   4.154   2.073 -0.0821  0.2790 -0.6031
  295MOL   Cl5735925   4.737   4.329   2.065  0.0365 -0.0257 -0.2308
  295MOL   Cl5835926   4.611   4.130   2.213  0.1262 -0.1282  0.0955
  295MOL    C5935927   4.643   4.102   1.950  0.4106  0.3306 -0.2594
  295MOL    H6035928   4.716   4.083   1.872  1.7811 -0.5514  1.2088
  295MOL    H6135929   4.604   4.007   1.988  1.9210 -0.8405 -1.5778
  295MOL    C6235930   4.528   4.180   1.874  0.3285 -0.0318 -0.1130
  295MOL   Cl6335931   4.607   4.313   1.784 -0.0889 -0.6515  0.4631
  295MOL   Cl6435932   4.421   4.253   1.991 -0.1205 -0.1803 -0.4156
  295MOL    C6535933   4.444   4.092   1.777  0.0887  0.3999  0.4320
  295MOL    H6635934   4.362   4.158   1.750  0.3600  0.4486 -0.2789
  295MOL    H6735935   4.514   4.078   1.695  0.0469  0.0598  0.4536
  295MOL    C6835936   4.385   3.950   1.811 -0.4161 -0.5627 -0.2266
  295MOL   Cl6935937   4.315   3.952   1.976 -0.0986  0.4176 -0.3417
  295MOL   Cl7035938   4.507   3.827   1.810  0.2543 -0.1280  0.2526
  295MOL    C7135939   4.268   3.907   1.724 -0.2840 -0.5171  0.1622
  295MOL    H7235940   4.236   3.806   1.748  3.5726 -1.9318 -0.1799
  295MOL    H7335941   4.187   3.972   1.759  0.5361 -0.2083  1.5445
  295MOL    C7435942   4.278   3.925   1.571 -0.3392 -0.3783  0.1559
  295MOL   Cl7535943   4.425   3.853   1.502  0.1804  0.6750 -0.2562
  295MOL   Cl7635944   4.294   4.099   1.519 -0.3268  0.1681 -0.4246
  295MOL    C7735945   4.150   3.852   1.503  0.0942  0.1693 -0.1010
  295MOL    H7835946   4.167   3.858   1.395 -2.9568 -0.7846 -0.6844
  295MOL    H7935947   4.180   3.753   1.536 -1.2003 -0.0446  0.4285
  295MOL    C8035948   3.996   3.876   1.543  0.7723  0.3024  0.3221
  295MOL   Cl8135949   3.959   4.051   1.538 -0.3770  0.4166 -0.7493
  295MOL   Cl8235950   3.954   3.805   1.700 -0.2399  0.4122  0.1982
  295MOL    C8335951   3.903   3.812   1.440 -0.3637  0.0991 -0.3753
  295MOL    H8435952   3.806   3.861   1.450  0.1070  1.0467 -0.3408
  295MOL    H8535953   3.939   3.838   1.341  0.7044 -1.6857 -0.4693
  295MOL    C8635954   3.851   3.668   1.437 -0.0338  0.8482  0.0841
  295MOL   Cl8735955   3.725   3.644   1.562  0.3151 -0.0360 -0.0916
  295MOL   Cl8835956   3.988   3.555   1.466 -0.0251  0.1535  0.0021
  295MOL    C8935957   3.783   3.621   1.306 -0.0272 -0.0261  0.2881
  295MOL    H9035958   3.865   3.612   1.235 -1.1084 -1.4129 -0.8101
  295MOL    H9135959   3.739   3.521   1.311 -0.6116  0.2887  1.6901
  295MOL    C9235960   3.668   3.699   1.235 -0.7321 -0.0903 -0.1153
  295MOL   Cl9335961   3.637   3.601   1.077 -0.2830  0.0487 -0.1053
  295MOL   Cl9435962   3.729   3.860   1.177 -0.5781 -0.2053 -0.0879
  295MOL    C9535963   3.533   3.711   1.315  0.2527  0.3645 -1.4082
  295MOL    H9635964   3.502   3.611   1.346  0.8897  0.6659  0.2533
  295MOL    H9735965   3.553   3.764   1.408 -1.2348 -2.2578  0.4662
  295MOL    C9835966   3.409   3.788   1.261 -0.4105 -0.2993  0.3791
  295MOL   Cl9935967   3.288   3.742   1.376  0.1608  0.2498  0.3553
  295MOL  Cl10035968   3.359   3.725   1.097  0.3489 -0.0713 -0.2311
  295MOL   C10135969   3.429   3.941   1.266  0.1434 -0.5019 -0.1647
  295MOL   H10235970   3.493   3.975   1.347  1.9333 -2.6382 -0.6386
  295MOL   H10335971   3.475   3.958   1.169 -1.4750 -0.3973 -0.9402
  295MOL   C10435972   3.296   4.032   1.277 -0.6709  0.0273  0.0033
  295MOL  Cl10535973   3.351   4.196   1.235 -0.1676  0.1752  0.1727
  295MOL  Cl10635974   3.253   4.044   1.454  0.2283 -0.1023  0.6887
  295MOL   C10735975   3.178   3.993   1.183  0.5151  0.5618  0.3683
  295MOL   H10835976   3.209   3.985   1.079  0.1256  0.6900  0.2397
  295MOL   H10935977   3.143   3.891   1.192  0.8118  0.3454 -0.8893
  295MOL   C11035978   3.051   4.079   1.163 -0.1911 -0.4091  0.0422
  295MOL  Cl11135979   2.942   3.997   1.050 -0.2582 -0.1849 -0.0600
  295MOL  Cl11235980   3.095   4.233   1.078 -0.3614 -0.0608  0.0761
  295MOL   C11335981   2.970   4.129   1.290  0.8198 -0.3402  0.2463
  295MOL   H11435982   3.050   4.170   1.351  1.2022 -2.0502  0.9234
  295MOL   H11535983   2.895   4.205   1.272  1.3679  0.3104  0.6602
  295MOL   C11635984   2.900   4.017   1.376  0.5554  0.9150 -0.1398
  295MOL  Cl11735985   2.960   3.861   1.344  0.3012 -0.2968 -0.3768
  295MOL  Cl11835986   2.729   4.019   1.312  0.1011 -0.0149  0.0530
  295MOL   C11935987   2.884   4.043   1.530 -0.3587  0.2347 -0.0999
  295MOL   H12035988   2.980   4.056   1.579 -1.5360 -1.3262  2.7215
  295MOL   H12135989   2.843   4.141   1.552  0.9272  1.0776 -1.3754
  295MOL   H12235990   2.822   3.966   1.575 -0.8742  0.4740 -0.3973
  296MOL     C135991   6.476   7.650   0.025 -0.4480  0.9720 -0.0075
  296MOL    Cl235992   6.569   7.704   9.058  0.0164 -0.0130 -0.1417
  296MOL    Cl335993   6.576   7.522   0.092  0.1268  0.0084  0.1965
  296MOL     C435994   6.484   7.760   0.129  0.4356 -0.2110  0.0382
  296MOL     H535995   6.587   7.776   0.163 -0.1377 -2.5967  3.0527
  296MOL     H635996   6.466   7.847   0.066  4.7087 -0.2613 -1.4160
  296MOL     H735997   6.385   7.601   9.171 -0.1609 -0.0581  0.6628
  296MOL     C835998   6.399   7.762   0.250 -0.6602  0.4355 -0.8971
  296MOL    Cl935999   6.446   7.632   0.366  0.4505 -0.1321 -0.1199
  296MOL   Cl1036000   6.237   7.718   0.191  0.0202  0.0390  0.2825
  296MOL    C1136001   6.384   7.890   0.331 -1.0044  0.9844  0.5440
  296MOL    H1236002   6.322   7.952   0.267  0.3750  0.5255 -1.2946
  296MOL    H1336003   6.339   7.861   0.426  0.2374 -0.5596  0.7048
  296MOL    C1436004   6.507   7.970   0.378  0.1523  0.0464 -0.1807
  296MOL   Cl1536005   6.601   8.035   0.237 -0.0876 -0.0865 -0.6200
  296MOL   Cl1636006   6.626   7.874   0.466  0.1508 -0.3549 -0.1804
  296MOL    C1736007   6.461   8.096   0.460 -0.3208  0.0527  0.5328
  296MOL    H1836008   6.360   8.125   0.429 -0.1977 -0.4624 -0.3863
  296MOL    H1936009   6.431   8.059   0.558 -1.3896  2.4379  1.1400
  296MOL    C2036010   6.543   8.220   0.488 -0.0902  0.0978 -0.0183
  296MOL   Cl2136011   6.717   8.179   0.512 -0.0816  0.4991  0.5908
  296MOL   Cl2236012   6.478   8.300   0.646  0.2913  0.1708  0.5347
  296MOL    C2336013   6.542   8.331   0.374  0.6780  1.2963  0.0633
  296MOL    H2436014   6.583   8.424   0.413  1.5289  1.0128 -0.1429
  296MOL    H2536015   6.620   8.303   0.303  0.8940  1.8483  0.0750
  296MOL    C2636016   6.405   8.380   0.309  0.4947 -0.4980 -0.0700
  296MOL   Cl2736017   6.275   8.383   0.432  0.2051 -0.0751 -0.4749
  296MOL   Cl2836018   6.349   8.275   0.182 -0.0248 -0.3114 -0.0643
  296MOL    C2936019   6.410   8.527   0.264 -0.0341 -0.2090 -0.1830
  296MOL    H3036020   6.311   8.547   0.224  0.3988 -0.8320 -1.5916
  296MOL    H3136021   6.421   8.592   0.352 -1.5728 -1.3306  0.8513
  296MOL    C3236022   6.532   8.565   0.167  0.6336  0.0557 -0.7645
  296MOL   Cl3336023   6.538   8.471   0.018 -0.3337 -0.4415  0.4570
  296MOL   Cl3436024   6.701   8.557   0.243  0.2299  0.0747 -0.2023
  296MOL    C3536025   6.508   8.711   0.103 -0.3740 -0.4402 -0.2470
  296MOL    H3636026   6.591   8.735   0.037 -0.1820 -0.1422  0.0989
  296MOL    H3736027   6.413   8.695   0.052 -2.1181  2.1324  2.0128
  296MOL    C3836028   6.481   8.844   0.190  0.2001  0.7292 -0.3359
  296MOL   Cl3936029   6.600   8.860   0.330 -0.0573 -0.0832  0.1759
  296MOL   Cl4036030   6.315   8.836   0.263  0.0100 -0.0264 -0.3303
  296MOL    C4136031   6.470   8.973   0.101  0.4909 -0.3513  0.6185
  296MOL    H4236032   6.390   8.956   0.029  1.9864  0.9132 -1.3910
  296MOL    H4336033   6.421   9.050   0.161 -0.8975 -1.7403  1.3103
  296MOL    C4436034   6.585   9.050   0.029 -0.1933  0.1710  0.3877
  296MOL   Cl4536035   6.653   8.940   9.091 -0.3448 -0.2821  0.3493
  296MOL   Cl4636036   6.713   9.087   0.145 -0.0257  0.2869 -0.1317
  296MOL    C4736037   6.546   9.177   9.122  0.8636 -0.4265  0.1961
  296MOL    H4836038   6.640   0.045   9.093  0.2939  0.9086  0.5163
  296MOL    H4936039   6.489   9.152   9.033 -2.7397  1.0663  1.9787
  296MOL    C5036040   6.458   0.118   0.010 -0.3663  0.4438  0.2358
  296MOL   Cl5136041   6.533   0.193   0.157  0.3910  0.0360 -0.1978
  296MOL   Cl5236042   6.297   0.058   0.049  0.2707 -0.0667 -0.1897
  296MOL    C5336043   6.430   0.236   9.092 -0.1808 -0.2709 -0.7973
  296MOL    H5436044   6.346   0.196   9.035 -0.2768 -0.2005 -0.7032
  296MOL    H5536045   6.368   0.305   9.149  0.8759 -0.7873  1.0172
  296MOL    C5636046   6.546   0.306   9.009  0.3146  0.3493 -0.4637
  296MOL   Cl5736047   6.608   0.205   8.879 -0.1893  0.0957  0.4106
  296MOL   Cl5836048   6.675   0.370   9.111 -0.1210  0.1749  0.1492
  296MOL    C5936049   6.489   0.432   8.946 -0.8051  0.0345 -0.0459
  296MOL    H6036050   6.496   0.515   9.017  1.4710  1.3081 -1.7031
  296MOL    H6136051   6.572   0.460   8.882 -1.5506 -0.4031 -1.2157
  296MOL    C6236052   6.356   0.446   8.870 -0.2656 -0.7435 -0.2419
  296MOL   Cl6336053   6.213   0.458   8.982  0.5819 -0.0687  0.1182
  296MOL   Cl6436054   6.325   0.307   8.766  0.0550 -0.3751  0.1304
  296MOL    C6536055   6.352   0.571   8.781 -0.0732  0.2098 -0.7330
  296MOL    H6636056   6.415   0.542   8.696  1.2116 -1.1902  0.6702
  296MOL    H6736057   6.250   0.564   8.744 -0.3435 -0.1561  0.0845
  296MOL    C6836058   6.394   0.718   8.825  0.7209 -0.1760 -0.2429
  296MOL   Cl6936059   6.570   0.730   8.791  0.4869  0.2270 -0.4648
  296MOL   Cl7036060   6.362   0.750   8.998 -0.3269  0.0230 -0.5153
  296MOL    C7136061   6.333   0.826   8.738 -0.0471  0.1302  0.0317
  296MOL    H7236062   6.363   0.918   8.789  0.8818 -0.1546  0.0089
  296MOL    H7336063   6.381   0.827   8.641 -0.0431 -3.9637 -0.1077
  296MOL    C7436064   6.186   0.834   8.716 -0.2545 -0.0301  0.4472
  296MOL   Cl7536065   6.087   0.792   8.867  0.2286  0.2470  0.2319
  296MOL   Cl7636066   6.138   0.731   8.580  0.0431  0.0855 -0.2174
  296MOL    C7736067   6.142   0.986   8.691  0.2180 -0.5377  0.0641
  296MOL    H7836068   6.034   0.999   8.684  0.1320 -1.3380 -0.1841
  296MOL    H7936069   6.166   1.046   8.779  1.6265  1.1343 -1.4248
  296MOL    C8036070   6.177   1.059   8.559  0.5775  0.4725  0.2060
  296MOL   Cl8136071   6.057   1.012   8.427  0.1389 -0.2061 -0.1545
  296MOL   Cl8236072   6.346   1.038   8.507 -0.1197  0.4115 -0.4912
  296MOL    C8336073   6.161   1.209   8.583  0.5183  0.9963  0.1873
  296MOL    H8436074   6.236   1.239   8.656 -0.6674  2.3524  0.8684
  296MOL    H8536075   6.187   1.259   8.489  2.1507  1.9006  1.0908
  296MOL    C8636076   6.022   1.272   8.642 -0.1553  0.1383 -0.9394
  296MOL   Cl8736077   5.996   1.230   8.814 -0.0996  0.2830 -0.2093
  296MOL   Cl8836078   5.874   1.228   8.548 -0.1517  0.2974  0.4931
  296MOL    C8936079   6.021   1.424   8.659 -0.3251  0.2602 -0.2293
  296MOL    H9036080   5.917   1.454   8.664 -0.3870  0.1946 -0.9590
  296MOL    H9136081   6.071   1.451   8.752 -0.2696  2.1546 -0.7787
  296MOL    C9236082   6.070   1.513   8.543 -0.0928  0.5071 -0.3049
  296MOL   Cl9336083   6.255   1.501   8.521 -0.0681 -0.0770 -0.2841
  296MOL   Cl9436084   6.030   1.678   8.598 -0.1356  0.1566  0.0775
  296MOL    C9536085   5.997   1.485   8.406 -0.1569  0.2572  0.6787
  296MOL    H9636086   5.976   1.380   8.387 -0.4855  0.5078 -0.4408
  296MOL    H9736087   5.895   1.522   8.418 -0.1098  0.7655 -0.3873
  296MOL    C9836088   6.068   1.528   8.271 -0.5690 -0.1461  0.1465
  296MOL   Cl9936089   5.940   1.505   8.146  0.1450  0.5001 -0.1346
  296MOL  Cl10036090   6.187   1.405   8.240  0.2960  0.1641  0.2494
  296MOL   C10136091   6.130   1.675   8.267  0.4452  0.1906 -0.4920
  296MOL   H10236092   6.040   1.736   8.265  1.3410  1.5544  0.0801
  296MOL   H10336093   6.182   1.694   8.360  3.0409 -0.7958 -1.6816
  296MOL   C10436094   6.230   1.727   8.157 -0.2581 -0.1760 -0.7044
  296MOL  Cl10536095   6.200   1.653   7.995  0.2650  0.1355 -0.2785
  296MOL  Cl10636096   6.391   1.669   8.217  0.1461  0.0023 -0.0386
  296MOL   C10736097   6.244   1.882   8.154  0.0577  0.1364 -0.2200
  296MOL   H10836098   6.304   1.911   8.240 -0.1793 -0.1292  0.0360
  296MOL   H10936099   6.307   1.893   8.066 -0.4710 -3.0447 -1.0715
  296MOL   C11036100   6.123   1.977   8.156 -0.1717 -0.1199  0.3256
  296MOL  Cl11136101   6.051   1.982   8.319 -0.1646 -0.2752  0.2396
  296MOL  Cl11236102   6.002   1.920   8.041  0.0335  0.2664 -0.1158
  296MOL   C11336103   6.171   2.120   8.113 -0.1517  0.0571  0.2182
  296MOL   H11436104   6.245   2.135   8.191 -2.1981 -0.3038  2.2943
  296MOL   H11536105   6.215   2.102   8.015  1.5446  1.5873  0.6823
  296MOL   C11636106   6.082   2.244   8.089  0.1462  0.5919 -0.0450
  296MOL  Cl11736107   5.985   2.242   7.940 -0.2498 -0.1372 -0.2426
  296MOL  Cl11836108   6.199   2.381   8.097  0.0213  0.1936  0.3333
  296MOL   C11936109   5.991   2.275   8.205 -0.2893  0.9928 -0.2477
  296MOL   H12036110   6.047   2.273   8.298  1.1556 -0.5571 -1.1178
  296MOL   H12136111   5.945   2.374   8.203 -1.9020  0.2563 -0.2915
  296MOL   H12236112   5.904   2.209   8.207  0.2757  0.3033  1.4344
  297MOL     C136113   1.015   5.429   8.733  0.0392  0.5902 -0.1918
  297MOL    Cl236114   0.967   5.596   8.723  0.0536 -0.7086 -0.1240
  297MOL    Cl336115   1.032   5.359   8.566  0.1538  0.0109  0.0234
  297MOL     C436116   1.147   5.409   8.807  0.2061 -0.4688 -0.6220
  297MOL     H536117   1.173   5.304   8.796  0.8887 -0.1910 -1.6733
  297MOL     H636118   1.220   5.477   8.763  1.0586 -1.3111 -0.5116
  297MOL     H736119   0.937   5.374   8.786  0.1166  2.9335  2.4714
  297MOL     C836120   1.144   5.439   8.959  0.2633 -0.6563  0.1126
  297MOL    Cl936121   1.022   5.325   9.023 -0.1358  0.2149 -0.5561
  297MOL   Cl1036122   1.105   5.613   8.988  0.1795  0.0628  0.0019
  297MOL    C1136123   1.282   5.403   9.017 -0.3569 -0.3512  0.4090
  297MOL    H1236124   1.299   5.297   8.999  0.7467 -0.1758  0.3906
  297MOL    H1336125   1.356   5.459   8.960 -0.8981 -0.5984 -0.5407
  297MOL    C1436126   1.326   5.436   9.159  0.6899  0.1990 -0.1168
  297MOL   Cl1536127   1.190   5.392   0.091 -0.3495  0.1212  0.3209
  297MOL   Cl1636128   1.374   5.604   9.174 -0.1764  0.0232 -0.6069
  297MOL    C1736129   1.453   5.352   0.021 -0.1580  0.4668 -0.2222
  297MOL    H1836130   1.420   5.248   0.025  3.5864 -0.7862  0.6098
  297MOL    H1936131   1.520   5.345   9.115 -0.5891 -1.0920 -0.4482
  297MOL    C2036132   1.545   5.382   0.137  0.0598  0.5158 -0.2184
  297MOL   Cl2136133   1.624   5.218   0.172  0.5569 -0.1846 -0.0118
  297MOL   Cl2236134   1.450   5.437   0.282 -0.2906 -0.2661  0.0414
  297MOL    C2336135   1.647   5.508   0.124  0.0146 -0.1666 -0.0996
  297MOL    H2436136   1.673   5.506   0.018  1.1425  1.2069  0.1387
  297MOL    H2536137   1.583   5.594   0.140  0.2293  0.3734 -2.0284
  297MOL    C2636138   1.772   5.512   0.212 -0.1006  0.0940 -0.0394
  297MOL   Cl2736139   1.842   5.670   0.174  0.2554  0.0980  0.3623
  297MOL   Cl2836140   1.885   5.380   0.172  0.3457 -0.2679 -0.0803
  297MOL    C2936141   1.744   5.500   0.365 -0.0620  0.5691 -0.1006
  297MOL    H3036142   1.653   5.552   0.396  0.3876  0.3521  1.6673
  297MOL    H3136143   1.724   5.393   0.372 -0.3296  0.5862 -0.6062
  297MOL    C3236144   1.858   5.540   0.470 -0.5650  0.1505 -0.0419
  297MOL   Cl3336145   1.862   5.711   0.507 -0.1600 -0.1127 -0.3423
  297MOL   Cl3436146   2.020   5.499   0.415 -0.2297  0.1934  0.3467
  297MOL    C3536147   1.835   5.460   0.594 -1.0466 -0.3078 -0.9258
  297MOL    H3636148   1.861   5.356   0.575  0.0679  0.1406 -1.8714
  297MOL    H3736149   1.914   5.499   0.659 -0.3645  1.3970 -2.7365
  297MOL    C3836150   1.706   5.464   0.678 -0.1689  0.3788 -0.1238
  297MOL   Cl3936151   1.758   5.373   0.829  0.1389  0.1801  0.5828
  297MOL   Cl4036152   1.581   5.367   0.592 -0.2322 -0.1772  0.2406
  297MOL    C4136153   1.654   5.609   0.716  0.1059  0.6291 -0.1887
  297MOL    H4236154   1.730   5.680   0.749 -0.6233  0.8900  0.9705
  297MOL    H4336155   1.614   5.648   0.622 -1.5836  2.4754  1.2549
  297MOL    C4436156   1.532   5.622   0.814  0.0198 -0.9928 -0.6710
  297MOL   Cl4536157   1.458   5.785   0.795 -0.2633 -0.2504 -0.2315
  297MOL   Cl4636158   1.598   5.645   0.978 -0.1092 -0.4416  0.0449
  297MOL    C4736159   1.426   5.507   0.812  0.4628  0.5430  0.8362
  297MOL    H4836160   1.399   5.500   0.706  1.4212  1.9276  0.4861
  297MOL    H4936161   1.487   5.418   0.828 -0.8806 -0.6358 -0.3857
  297MOL    C5036162   1.291   5.511   0.888  0.4784 -0.9028  0.4383
  297MOL   Cl5136163   1.165   5.585   0.784  0.1809 -0.0179  0.2589
  297MOL   Cl5236164   1.289   5.609   1.038 -0.2959  0.5256  0.2595
  297MOL    C5336165   1.241   5.364   0.916 -0.0515  0.3984  0.3723
  297MOL    H5436166   1.216   5.328   0.816  1.2442 -2.0883  0.9012
  297MOL    H5536167   1.327   5.316   0.963  1.0034  1.3441 -0.5372
  297MOL    C5636168   1.114   5.328   1.001 -0.0114  0.4194  0.3551
  297MOL   Cl5736169   0.971   5.419   0.948 -0.3607 -0.1497 -0.1706
  297MOL   Cl5836170   1.144   5.371   1.171 -0.0021 -0.1169 -0.0455
  297MOL    C5936171   1.083   5.171   0.990  0.0217 -0.3709 -0.4798
  297MOL    H6036172   1.046   5.135   0.894  0.5617  0.8143 -1.1532
  297MOL    H6136173   1.180   5.124   1.001  0.4678  0.8071  0.7273
  297MOL    C6236174   0.993   5.097   1.089  0.2102  0.1979  0.0330
  297MOL   Cl6336175   0.977   4.940   1.011  0.2844 -0.2212  0.0697
  297MOL   Cl6436176   0.828   5.168   1.108 -0.0636 -0.2105 -0.1458
  297MOL    C6536177   1.044   5.072   1.235  0.1082 -0.0327  0.3186
  297MOL    H6636178   1.150   5.048   1.224  0.0962  0.1857 -0.3126
  297MOL    H6736179   1.048   5.166   1.290  1.4152 -0.3765  0.8298
  297MOL    C6836180   0.984   4.957   1.340  0.2318  0.0670  0.0480
  297MOL   Cl6936181   0.812   4.989   1.382 -0.4781 -0.2261  0.0410
  297MOL   Cl7036182   1.079   4.990   1.491  0.0835 -0.1298  0.6496
  297MOL    C7136183   1.006   4.809   1.306 -0.3850 -0.1390 -0.4540
  297MOL    H7236184   0.933   4.795   1.226  1.4656 -1.3298 -1.9702
  297MOL    H7336185   1.101   4.806   1.253 -0.5232 -0.7322 -0.6744
  297MOL    C7436186   1.003   4.689   1.406  0.2263 -0.0140  0.6994
  297MOL   Cl7536187   1.146   4.698   1.518 -0.3406 -0.2342 -0.0245
  297MOL   Cl7636188   1.028   4.553   1.295 -0.0287 -0.2235  0.0686
  297MOL    C7736189   0.869   4.683   1.484 -0.4205  0.7313 -0.0764
  297MOL    H7836190   0.875   4.747   1.572 -2.5086  0.2833  0.4201
  297MOL    H7936191   0.794   4.732   1.421 -0.4209  0.4458 -0.2989
  297MOL    C8036192   0.817   4.548   1.518  0.7074  0.0347 -0.3294
  297MOL   Cl8136193   0.951   4.446   1.575 -0.0310  0.0295 -0.2557
  297MOL   Cl8236194   0.743   4.466   1.380 -0.1906  0.1422  0.0533
  297MOL    C8336195   0.703   4.544   1.621  0.5499  0.3981  0.1209
  297MOL    H8436196   0.614   4.586   1.574 -0.4566 -0.9034  0.8074
  297MOL    H8536197   0.678   4.442   1.650 -0.3257  0.7782  0.7121
  297MOL    C8636198   0.714   4.619   1.759  0.4746 -0.5617  0.6845
  297MOL   Cl8736199   0.682   4.791   1.730  0.6009  0.0449 -0.3386
  297MOL   Cl8836200   0.876   4.612   1.834 -0.1763 -0.3319  0.1361
  297MOL    C8936201   0.615   4.559   1.866  0.1292 -0.5484 -0.1113
  297MOL    H9036202   0.640   4.453   1.860  2.7703 -0.1304  2.2476
  297MOL    H9136203   0.650   4.591   1.964 -2.3125  2.5793 -0.1591
  297MOL    C9236204   0.456   4.581   1.848 -0.2127 -0.0149  0.5075
  297MOL   Cl9336205   0.395   4.444   1.946  0.0165  0.2939 -0.5191
  297MOL   Cl9436206   0.390   4.555   1.684  0.4077 -0.2186 -0.1314
  297MOL    C9536207   0.409   4.723   1.908 -0.1603  0.0752  0.4816
  297MOL    H9636208   0.421   4.698   2.013  2.3605  0.5261  0.3385
  297MOL    H9736209   0.488   4.794   1.881 -0.7562  1.5827  2.6010
  297MOL    C9836210   0.267   4.782   1.887 -0.1940  0.4379  0.2302
  297MOL   Cl9936211   0.238   4.904   2.015 -0.1882 -0.2582 -0.0512
  297MOL  Cl10036212   0.148   4.651   1.915 -0.0632 -0.4088 -0.6382
  297MOL   C10136213   0.261   4.847   1.746 -0.1731  0.2291  0.0009
  297MOL   H10236214   0.310   4.941   1.774 -1.2430  1.5282 -2.3297
  297MOL   H10336215   0.334   4.803   1.678  1.7380  2.7966  0.3075
  297MOL   C10436216   0.129   4.885   1.672 -0.1667 -0.4421 -0.7212
  297MOL  Cl10536217   0.053   4.728   1.629 -0.2286 -0.0825 -0.0041
  297MOL  Cl10636218   0.173   4.959   1.514 -0.1900  0.0477  0.4709
  297MOL   C10736219   0.038   4.985   1.742  0.5573  0.1015 -0.2989
  297MOL   H10836220   0.024   4.966   1.849 -1.9200  1.6700 -0.3085
  297MOL   H10936221   0.096   5.077   1.747  0.7239  0.0570 -1.3183
  297MOL   C11036222   9.075   5.018   1.692 -0.5424 -0.3859 -0.4665
  297MOL  Cl11136223   9.041   5.169   1.781 -0.1121  0.1975  0.4297
  297MOL  Cl11236224   8.972   4.883   1.752  0.3969 -0.2421 -0.4790
  297MOL   C11336225   9.073   5.042   1.539 -0.1506  0.0929  0.3067
  297MOL   H11436226   9.155   5.112   1.526 -1.0210  0.5757 -3.4064
  297MOL   H11536227   9.104   4.948   1.493  0.4388  0.2624  0.3596
  297MOL   C11636228   8.951   5.096   1.453  0.9231  0.4217  1.0557
  297MOL  Cl11736229   8.826   4.978   1.473 -0.2130 -0.2074  0.1557
  297MOL  Cl11836230   9.009   5.092   1.284  0.0218 -0.1521  0.2916
  297MOL   C11936231   8.903   5.242   1.481 -0.2842 -0.2005 -0.2952
  297MOL   H12036232   8.886   5.257   1.587 -1.7677  0.0801 -0.5649
  297MOL   H12136233   8.980   5.313   1.452  0.2844  0.0596  1.8164
  297MOL   H12236234   8.804   5.262   1.440 -0.6162  0.3687  0.7989
  298MOL     C136235   8.250   0.112   8.871 -0.5293 -0.0086  0.1309
  298MOL    Cl236236   8.233   0.281   8.925 -0.1521 -0.1506 -0.2194
  298MOL    Cl336237   8.112   0.021   8.937  0.0951  0.0410  0.0202
  298MOL     C436238   8.281   0.105   8.721 -0.1143 -0.3045  0.1025
  298MOL     H536239   8.190   0.122   8.664  0.3721  0.2401 -0.5239
  298MOL     H636240   8.344   0.192   8.702  0.0694 -0.7504 -1.3659
  298MOL     H736241   8.334   0.070   8.927 -0.1409 -0.2789 -0.6467
  298MOL     C836242   8.362   9.156   8.673 -0.1663 -0.0647  0.1874
  298MOL    Cl936243   8.282   9.007   8.728 -0.1795 -0.0248 -0.0047
  298MOL   Cl1036244   8.532   9.145   8.738  0.2121  0.5369  0.3296
  298MOL    C1136245   8.367   9.153   8.525 -0.4186 -0.7724  0.0094
  298MOL    H1236246   8.263   9.139   8.495 -0.7864  2.9152 -0.6803
  298MOL    H1336247   8.371   0.071   8.479 -0.7406 -0.4398  0.6775
  298MOL    C1436248   8.476   9.070   8.449  0.1491  0.6632 -0.0765
  298MOL   Cl1536249   8.392   9.038   8.289 -0.2718  0.0559 -0.1054
  298MOL   Cl1636250   8.500   8.900   8.526  0.2115 -0.2437 -0.2849
  298MOL    C1736251   8.610   9.148   8.416  0.0609 -0.3035  0.3991
  298MOL    H1836252   8.576   0.047   8.349  0.6728 -0.5039 -0.1624
  298MOL    H1936253   8.650   0.022   8.501 -1.4323 -0.2184  1.0568
  298MOL    C2036254   8.736   9.078   8.364  0.3462  0.1502  1.1131
  298MOL   Cl2136255   8.689   8.979   8.210  0.1895 -0.4478 -0.0752
  298MOL   Cl2236256   8.796   8.963   8.477 -0.3151  0.0089 -0.0505
  298MOL    C2336257   8.859   9.169   8.345 -0.5421 -0.1566  0.4646
  298MOL    H2436258   8.870   0.048   8.436  3.2049 -0.0543  0.0298
  298MOL    H2536259   8.948   9.106   8.343 -2.0141 -2.3279  0.8582
  298MOL    C2636260   8.878   0.092   8.230  0.1658  0.5601 -0.0260
  298MOL   Cl2736261   9.033   0.168   8.270 -0.0241  0.0472 -0.1063
  298MOL   Cl2836262   8.747   0.217   8.248 -0.1802 -0.0854  0.2451
  298MOL    C2936263   8.889   0.035   8.085 -0.2105  0.5386 -0.0091
  298MOL    H3036264   8.954   9.128   8.087 -0.2781  0.5183  1.5986
  298MOL    H3136265   8.785   0.005   8.070  0.0210 -0.0077 -0.4992
  298MOL    C3236266   8.938   0.117   7.957  0.4687 -0.9936  0.6832
  298MOL   Cl3336267   8.896   0.032   7.809 -0.2199 -0.3213  0.3752
  298MOL   Cl3436268   9.116   0.128   7.969 -0.0088  0.1582  0.1077
  298MOL    C3536269   8.881   0.265   7.956 -0.3443  0.4453  0.2544
  298MOL    H3636270   8.777   0.257   7.988 -0.6021  0.0450 -0.6636
  298MOL    H3736271   8.935   0.321   8.032 -1.7196  0.2475  1.3976
  298MOL    C3836272   8.885   0.354   7.830  0.2990  0.0147  0.1683
  298MOL   Cl3936273   8.762   0.300   7.710 -0.1896  0.6183 -0.3452
  298MOL   Cl4036274   9.040   0.341   7.747  0.1574  0.1303 -0.2500
  298MOL    C4136275   8.851   0.505   7.867 -0.1868 -0.0182 -0.0809
  298MOL    H4236276   8.747   0.486   7.895  0.1342 -2.6433 -0.5900
  298MOL    H4336277   8.894   0.528   7.964  0.8909  0.1784 -0.5954
  298MOL    C4436278   8.884   0.635   7.791  0.3894  0.3188 -0.0380
  298MOL   Cl4536279   9.065   0.653   7.780  0.3866 -0.3982 -0.1295
  298MOL   Cl4636280   8.814   0.776   7.872 -0.0869 -0.0790 -0.4372
  298MOL    C4736281   8.824   0.625   7.650  0.2067 -0.1952 -0.2442
  298MOL    H4836282   8.897   0.568   7.592  0.6854 -0.4440  0.5937
  298MOL    H4936283   8.734   0.563   7.650 -0.2423  0.3367 -3.6914
  298MOL    C5036284   8.798   0.745   7.553 -0.2752 -0.0243 -0.1176
  298MOL   Cl5136285   8.645   0.830   7.606  0.2123 -0.0214  0.0541
  298MOL   Cl5236286   8.758   0.661   7.405 -0.3206  0.3265  0.0812
  298MOL    C5336287   8.925   0.843   7.534 -0.6937 -0.5209 -0.4959
  298MOL    H5436288   8.957   0.877   7.632  0.4657  0.0689 -1.0696
  298MOL    H5536289   9.001   0.775   7.495  1.3383  0.2157  2.1244
  298MOL    C5636290   8.905   0.971   7.445 -0.2793  0.1868  0.0334
  298MOL   Cl5736291   8.803   1.093   7.529 -0.4030 -0.1817 -0.1951
  298MOL   Cl5836292   8.834   0.934   7.290  0.3020 -0.2062  0.0722
  298MOL    C5936293   9.043   1.043   7.414  0.4845 -0.0212 -0.9252
  298MOL    H6036294   9.088   1.009   7.320  1.9533  0.6071 -0.4471
  298MOL    H6136295   9.013   1.144   7.388 -2.2945 -0.9012 -1.3890
  298MOL    C6236296   9.148   1.052   7.524 -0.2631  0.1977  0.3494
  298MOL   Cl6336297   0.063   0.904   7.552  0.1143 -0.2445  0.1105
  298MOL   Cl6436298   9.078   1.121   7.675 -0.0513 -0.0000 -0.0065
  298MOL    C6536299   0.068   1.162   7.475  0.1761  0.7219  0.4215
  298MOL    H6636300   0.087   1.133   7.372  0.4012  3.2766 -0.2863
  298MOL    H6736301   0.011   1.254   7.465  0.5179  0.7569 -1.3050
  298MOL    C6836302   0.207   1.198   7.550  0.3484  0.4385 -0.9077
  298MOL   Cl6936303   0.226   1.374   7.516  0.0690 -0.0034  0.0326
  298MOL   Cl7036304   0.335   1.105   7.460 -0.1529 -0.3236  0.5929
  298MOL    C7136305   0.209   1.174   7.705 -0.3429 -0.6049 -0.0225
  298MOL    H7236306   0.123   1.229   7.744  0.5902 -1.2718  3.1270
  298MOL    H7336307   0.217   1.066   7.720  1.5409 -0.5312 -0.3749
  298MOL    C7436308   0.323   1.227   7.806 -0.2197  0.3234  0.7968
  298MOL   Cl7536309   0.320   1.411   7.805 -0.0192 -0.2733 -0.2931
  298MOL   Cl7636310   0.486   1.166   7.771 -0.6669  0.0728 -0.0810
  298MOL    C7736311   0.289   1.168   7.946 -0.0906 -0.0486  0.5268
  298MOL    H7836312   0.182   1.155   7.960 -0.4607  0.1020 -1.9577
  298MOL    H7936313   0.323   1.064   7.948  0.2079  0.0231 -0.4484
  298MOL    C8036314   0.341   1.216   8.079  0.5115  0.2303  0.2232
  298MOL   Cl8136315   0.281   1.376   8.116 -0.8046 -0.4981  0.4562
  298MOL   Cl8236316   0.519   1.222   8.072  0.1801  0.1792 -0.1086
  298MOL    C8336317   0.282   1.128   8.193 -0.4734  0.1924 -0.0706
  298MOL    H8436318   0.339   1.163   8.280 -0.9551 -1.3149  0.8609
  298MOL    H8536319   0.178   1.147   8.218 -0.0464  2.9647 -0.1690
  298MOL    C8636320   0.317   0.970   8.211 -0.0732  0.1893  0.0936
  298MOL   Cl8736321   0.202   0.880   8.114  0.0532  0.0323 -0.0333
  298MOL   Cl8836322   0.253   0.929   8.370  0.1475  0.2215  0.3708
  298MOL    C8936323   0.468   0.926   8.197 -0.6735 -0.3094  0.0248
  298MOL    H9036324   0.501   0.985   8.111 -0.7320 -1.4004 -0.7699
  298MOL    H9136325   0.530   0.959   8.280 -1.1514 -1.9472  1.0659
  298MOL    C9236326   0.507   0.772   8.178 -0.2343  0.0359 -0.1936
  298MOL   Cl9336327   0.447   0.673   8.319 -0.0046 -0.2641  0.0719
  298MOL   Cl9436328   0.682   0.768   8.191  0.1512  0.3309 -0.6041
  298MOL    C9536329   0.452   0.708   8.043 -0.1724 -0.5404 -0.8508
  298MOL    H9636330   0.349   0.682   8.071 -0.4445  1.3097 -0.0888
  298MOL    H9736331   0.460   0.782   7.964 -1.3867  0.0250 -0.4652
  298MOL    C9836332   0.531   0.586   7.988  0.2820  0.2429 -0.8974
  298MOL   Cl9936333   0.570   0.471   8.121  0.2595  0.2511 -0.2284
  298MOL  Cl10036334   0.685   0.634   7.907  0.0667  0.3146  0.2918
  298MOL   C10136335   0.457   0.504   7.881 -0.2699  0.6860 -0.0768
  298MOL   H10236336   0.475   0.546   7.782  0.2010 -1.7260 -1.0490
  298MOL   H10336337   0.513   0.410   7.883 -0.6636  0.4447 -0.3718
  298MOL   C10436338   0.300   0.485   7.872 -0.2215  0.0118  0.2409
  298MOL  Cl10536339   0.229   0.645   7.837  0.0000 -0.3084  0.0950
  298MOL  Cl10636340   0.235   0.428   8.022 -0.4765  0.2306 -0.2079
  298MOL   C10736341   0.247   0.394   7.758 -0.1938  0.4191  0.0480
  298MOL   H10836342   0.140   0.391   7.780  0.0361 -3.7415  1.0364
  298MOL   H10936343   0.255   0.452   7.667 -0.2434  1.5360  0.7493
  298MOL   C11036344   0.300   0.247   7.723 -0.4179 -1.0783 -0.6238
  298MOL  Cl11136345   0.465   0.278   7.651 -0.2270  0.0076 -0.0091
  298MOL  Cl11236346   0.194   0.190   7.595 -0.4481  0.0093  0.1408
  298MOL   C11336347   0.311   0.152   7.851  0.5315 -0.1661 -0.0034
  298MOL   H11436348   0.397   0.166   7.916  0.0041 -1.3077  0.9507
  298MOL   H11536349   0.224   0.164   7.915  0.3826 -1.2881  0.0108
  298MOL   C11636350   0.311   9.179   7.819  0.1458  0.5644  0.3748
  298MOL  Cl11736351   0.364   9.088   7.970  0.2798 -0.2920 -0.4726
  298MOL  Cl11836352   0.418   9.143   7.680  0.0220 -0.0752 -0.1048
  298MOL   C11936353   0.174   9.112   7.799 -1.1951  0.4042  0.5622
  298MOL   H12036354   0.202   9.009   7.776  0.4971  0.9363  0.2313
  298MOL   H12136355   0.100   9.120   7.879 -2.6061 -0.8139 -0.5782
  298MOL   H12236356   0.116   9.146   7.713  1.3681  1.5669 -0.7635
  299MOL     C136357   0.127   9.022   4.177  0.1327  0.0235  0.0508
  299MOL    Cl236358   0.197   8.861   4.132  0.0149 -0.0376 -0.1430
  299MOL    Cl336359   9.128   9.004   4.190 -0.1589  0.2267 -0.1707
  299MOL     C436360   0.184   9.087   4.304 -0.0495 -0.1709 -0.2733
  299MOL     H536361   0.102   9.123   4.366 -0.8718 -0.7389 -1.0158
  299MOL     H636362   0.241   9.017   4.364  0.7041 -0.8466 -1.7399
  299MOL     H736363   0.147   9.084   4.089  2.0969  0.3031  0.6694
  299MOL     C836364   0.283   0.019   4.266 -0.6246  0.6671 -0.5428
  299MOL    Cl936365   0.226   0.139   4.157 -0.1968 -0.1958 -0.0948
  299MOL   Cl1036366   0.419   9.115   4.188  0.3388  0.2172  0.0251
  299MOL    C1136367   0.344   0.083   4.389 -0.2446  0.2723  0.0752
  299MOL    H1236368   0.405   0.012   4.446  0.4242  1.9334  1.4584
  299MOL    H1336369   0.416   0.153   4.349 -2.2392  1.2697 -1.9344
  299MOL    C1436370   0.268   0.170   4.494  0.0818 -0.0018 -0.0758
  299MOL   Cl1536371   0.388   0.230   4.616 -0.2475 -0.3597 -0.4375
  299MOL   Cl1636372   0.167   0.055   4.583 -0.0151 -0.2395 -0.4904
  299MOL    C1736373   0.179   0.295   4.435 -0.7054  0.0703  0.1563
  299MOL    H1836374   0.231   0.328   4.346  2.2549 -0.4378  1.6172
  299MOL    H1936375   0.093   0.239   4.399 -0.0488 -0.1471 -1.0663
  299MOL    C2036376   0.123   0.415   4.519  0.2640 -0.5290 -0.0562
  299MOL   Cl2136377   0.264   0.520   4.569  0.4079  0.3659  0.0855
  299MOL   Cl2236378   0.049   0.335   4.667 -0.1537  0.2064  0.4128
  299MOL    C2336379   0.011   0.496   4.452 -0.7517  0.1408  0.2982
  299MOL    H2436380   9.101   0.436   4.458 -1.0650  0.2299 -2.5768
  299MOL    H2536381   9.175   0.580   4.519 -1.5865 -1.0684  1.6388
  299MOL    C2636382   0.027   0.536   4.300 -0.6013 -0.6189 -0.3821
  299MOL   Cl2736383   0.004   0.391   4.200  0.4091  0.1236 -0.0171
  299MOL   Cl2836384   0.197   0.594   4.268 -0.1185  0.0601 -0.2695
  299MOL    C2936385   9.120   0.661   4.256 -0.1560 -0.3588  0.8092
  299MOL    H3036386   9.152   0.739   4.325  0.5067  0.9190 -0.9378
  299MOL    H3136387   9.155   0.700   4.161  0.1866  0.1200  1.1340
  299MOL    C3236388   8.961   0.658   4.266 -0.1685 -0.3727 -0.8212
  299MOL   Cl3336389   8.897   0.627   4.434  0.0880  0.1547 -0.3541
  299MOL   Cl3436390   8.898   0.523   4.162 -0.0036 -0.1577  0.0250
  299MOL    C3536391   8.894   0.797   4.236  0.2294  0.3890  0.7526
  299MOL    H3636392   8.790   0.767   4.243 -0.2027  0.5679 -3.4015
  299MOL    H3736393   8.914   0.865   4.318 -3.2898 -0.3088  2.2502
  299MOL    C3836394   8.919   0.892   4.112  0.4477 -0.5629 -0.0447
  299MOL   Cl3936395   9.083   0.964   4.132  0.0695 -0.1635  0.2149
  299MOL   Cl4036396   8.797   1.025   4.112 -0.0019 -0.0621  0.0043
  299MOL    C4136397   8.900   0.807   3.988 -1.0971  0.3170  0.8777
  299MOL    H4236398   8.978   0.731   3.994  0.3148  1.6475 -0.3835
  299MOL    H4336399   8.815   0.740   3.993  0.3578 -1.6159  0.5041
  299MOL    C4436400   8.895   0.875   3.846  0.0632 -0.0013 -0.1539
  299MOL   Cl4536401   9.028   1.004   3.827  0.0545 -0.1240  0.2188
  299MOL   Cl4636402   8.734   0.948   3.817 -0.2358 -0.2428  0.0119
  299MOL    C4736403   8.925   0.782   3.718  0.0179 -0.1148 -0.3939
  299MOL    H4836404   8.904   0.832   3.623  1.1411  0.2317 -0.4690
  299MOL    H4936405   9.031   0.755   3.719 -0.1816 -0.8650  1.7819
  299MOL    C5036406   8.844   0.648   3.701  0.7650  0.0925 -0.4165
  299MOL   Cl5136407   8.675   0.652   3.761  0.0858  0.5437 -0.3553
  299MOL   Cl5236408   8.918   0.523   3.801 -0.2416 -0.1726 -0.2397
  299MOL    C5336409   8.847   0.582   3.557  0.8757 -0.0652 -1.2374
  299MOL    H5436410   8.954   0.582   3.538  1.3523  0.0789  1.1658
  299MOL    H5536411   8.808   0.481   3.563  0.8852 -0.0486 -0.8354
  299MOL    C5636412   8.761   0.630   3.432  0.3639  0.5908  0.3067
  299MOL   Cl5736413   8.753   0.802   3.412 -0.0751  0.1360 -0.4596
  299MOL   Cl5836414   8.595   0.583   3.462  0.1523  0.2316  0.4350
  299MOL    C5936415   8.820   0.556   3.307  0.1690  0.0760 -0.0673
  299MOL    H6036416   8.928   0.549   3.323  0.0449 -0.4737  0.5659
  299MOL    H6136417   8.793   0.451   3.320 -1.0827  0.5157  1.0513
  299MOL    C6236418   8.785   0.597   3.163  0.3421 -0.0691  0.7082
  299MOL   Cl6336419   8.838   0.454   3.063  0.0164  0.3463 -0.0437
  299MOL   Cl6436420   8.893   0.742   3.133  0.3203 -0.4446  0.3035
  299MOL    C6536421   8.642   0.640   3.136  0.3481 -0.0215  0.4736
  299MOL    H6636422   8.576   0.575   3.194 -0.3044  1.6938  1.7078
  299MOL    H6736423   8.637   0.738   3.184  3.3215  0.1509  0.4915
  299MOL    C6836424   8.596   0.657   2.990  0.1962 -0.3234  0.4946
  299MOL   Cl6936425   8.548   0.500   2.908  0.1691  0.2713 -0.1245
  299MOL   Cl7036426   8.708   0.735   2.877  0.2164 -0.1376 -0.3433
  299MOL    C7136427   8.463   0.744   2.975  0.5501  0.3769 -0.2181
  299MOL    H7236428   8.451   0.766   2.869 -0.6713  0.7999 -0.0028
  299MOL    H7336429   8.386   0.670   2.997  0.0202  0.8783 -0.3550
  299MOL    C7436430   8.429   0.874   3.063 -0.2159 -0.2675 -0.1858
  299MOL   Cl7536431   8.577   0.974   3.060 -0.0309  0.2073  0.2334
  299MOL   Cl7636432   8.397   0.837   3.229 -0.2162  0.2573 -0.1520
  299MOL    C7736433   8.306   0.962   3.012 -1.1024 -0.2671  0.1030
  299MOL    H7836434   8.274   1.020   3.099  0.2301  0.2887  0.2213
  299MOL    H7936435   8.344   1.033   2.939 -1.3162  3.1372  3.1474
  299MOL    C8036436   8.173   0.899   2.963  0.3001  0.3883  0.2302
  299MOL   Cl8136437   8.204   0.813   2.804 -0.2463 -0.5465  0.3756
  299MOL   Cl8236438   8.069   1.040   2.931 -0.2155  0.4014 -0.2472
  299MOL    C8336439   8.103   0.793   3.064 -0.7767 -0.4652 -0.8654
  299MOL    H8436440   8.182   0.727   3.099 -1.4415  0.2849  2.1533
  299MOL    H8536441   8.072   0.853   3.150 -4.0788 -0.7336 -1.7853
  299MOL    C8636442   7.985   0.709   3.018  0.6110 -0.3495  0.2231
  299MOL   Cl8736443   8.050   0.577   2.921  0.1067  0.0160 -0.0151
  299MOL   Cl8836444   7.866   0.792   2.921  0.2331  0.2152 -0.0259
  299MOL    C8936445   7.913   0.631   3.129 -0.2700 -0.4821  1.0670
  299MOL    H9036446   7.821   0.599   3.080 -0.9524  0.3820  1.7507
  299MOL    H9136447   7.972   0.544   3.156  0.0166 -1.2382 -1.8716
  299MOL    C9236448   7.880   0.691   3.273  0.2460  0.0986  0.0229
  299MOL   Cl9336449   7.818   0.857   3.250  0.0225 -0.0901 -0.1312
  299MOL   Cl9436450   8.025   0.713   3.372  0.3551  0.2396 -0.1086
  299MOL    C9536451   7.778   0.603   3.350  0.1524 -0.1117 -0.1117
  299MOL    H9636452   7.837   0.518   3.384  0.7697  0.5620  0.5041
  299MOL    H9736453   7.758   0.662   3.439 -1.7845  0.9349 -1.2032
  299MOL    C9836454   7.642   0.555   3.292  0.5362  0.6560  0.0190
  299MOL   Cl9936455   7.573   0.481   3.449 -0.0665 -0.1887 -0.0980
  299MOL  Cl10036456   7.679   0.416   3.181  0.4260  0.0577 -0.2309
  299MOL   C10136457   7.544   0.671   3.240 -0.1570 -0.7567 -0.4563
  299MOL   H10236458   7.495   0.709   3.330 -0.5874 -0.6845 -0.7239
  299MOL   H10336459   7.594   0.766   3.216  2.8662 -2.0766  0.3237
  299MOL   C10436460   7.440   0.648   3.122 -0.5302  0.0380  0.5803
  299MOL  Cl10536461   7.333   0.523   3.177  0.3172 -0.3031  0.2611
  299MOL  Cl10636462   7.520   0.590   2.968 -0.3197  0.2917  0.1307
  299MOL   C10736463   7.342   0.768   3.080  0.4296 -0.2084 -0.4948
  299MOL   H10836464   7.405   0.842   3.030 -1.7900  0.7564 -1.9503
  299MOL   H10936465   7.276   0.728   3.004 -2.7988  1.8599  1.1203
  299MOL   C11036466   7.253   0.847   3.183 -0.4182 -0.2557 -0.0106
  299MOL  Cl11136467   7.184   0.969   3.074 -0.2438  0.5839 -0.4650
  299MOL  Cl11236468   7.349   0.935   3.306 -0.1315  0.1940 -0.3504
  299MOL   C11336469   7.139   0.760   3.250  0.0172 -0.0543 -0.9867
  299MOL   H11436470   7.088   0.714   3.165 -1.1150 -2.7112  1.0585
  299MOL   H11536471   7.183   0.683   3.314 -0.0838  0.1610 -0.6595
  299MOL   C11636472   7.026   0.826   3.333  0.7693 -0.1032  0.4384
  299MOL  Cl11736473   7.086   0.915   3.471  0.1990 -0.2311  0.1154
  299MOL  Cl11836474   6.916   0.694   3.387 -0.2332  0.1183  0.3728
  299MOL   C11936475   6.923   0.919   3.261 -0.3547 -0.1797 -0.1154
  299MOL   H12036476   6.891   0.877   3.165 -0.6467  0.1410 -0.1619
  299MOL   H12136477   6.829   0.932   3.315 -0.8958  2.0071 -1.5362
  299MOL   H12236478   6.967   1.017   3.246  0.6488 -0.9184 -2.2749
  300MOL     C136479   5.327   4.967   3.337 -0.5639  0.1709  0.3091
  300MOL    Cl236480   5.488   4.935   3.416 -0.2109 -0.1254  0.2274
  300MOL    Cl336481   5.313   5.143   3.317  0.3551  0.0002  0.2175
  300MOL     C436482   5.318   4.888   3.202  0.1414 -0.0948  0.0085
  300MOL     H536483   5.382   4.930   3.124 -0.8736  0.0844 -0.7486
  300MOL     H636484   5.361   4.793   3.234  0.1862 -0.1207 -0.1273
  300MOL     H736485   5.251   4.933   3.406 -0.3079 -0.2142  0.4007
  300MOL     C836486   5.175   4.878   3.133  0.3031  0.2797 -0.5154
  300MOL    Cl936487   5.103   5.040   3.108 -0.2354 -0.3963 -0.4775
  300MOL   Cl1036488   5.065   4.789   3.245 -0.3306 -0.4199 -0.1113
  300MOL    C1136489   5.191   4.804   2.995  0.0677  0.1666  0.6836
  300MOL    H1236490   5.090   4.784   2.959  0.2817 -0.4152  0.4063
  300MOL    H1336491   5.219   4.887   2.930  0.4254 -1.6860 -1.6313
  300MOL    C1436492   5.279   4.670   2.961 -0.5321  0.3931 -0.2150
  300MOL   Cl1536493   5.234   4.553   3.088  0.0728  0.1768 -0.1919
  300MOL   Cl1636494   5.456   4.684   2.966  0.0926 -0.1322 -0.3236
  300MOL    C1736495   5.253   4.599   2.825 -0.1928  0.1128  0.1510
  300MOL    H1836496   5.304   4.503   2.826 -3.5015 -1.7296 -0.2323
  300MOL    H1936497   5.149   4.566   2.826 -0.2140  0.1980  2.9121
  300MOL    C2036498   5.254   4.680   2.691  0.0702 -0.5247  0.4294
  300MOL   Cl2136499   5.394   4.789   2.672 -0.1099 -0.2055 -0.2309
  300MOL   Cl2236500   5.106   4.779   2.700  0.4185 -0.2806  0.0810
  300MOL    C2336501   5.231   4.579   2.572  0.2004  0.0623 -0.7272
  300MOL    H2436502   5.162   4.505   2.612 -1.0313  2.1691  1.1537
  300MOL    H2536503   5.185   4.628   2.486  1.2449  0.2010 -1.2148
  300MOL    C2636504   5.351   4.502   2.498 -0.3791 -0.4369  0.2081
  300MOL   Cl2736505   5.422   4.595   2.361 -0.0774  0.0355 -0.0434
  300MOL   Cl2836506   5.278   4.353   2.430  0.0184  0.2204 -0.3829
  300MOL    C2936507   5.464   4.455   2.596 -0.5268  0.4437 -0.6688
  300MOL    H3036508   5.496   4.540   2.657 -1.0861  1.0025 -1.1469
  300MOL    H3136509   5.431   4.385   2.673  2.1010 -0.4109 -0.2763
  300MOL    C3236510   5.596   4.388   2.552  0.4305  0.4550  0.0729
  300MOL   Cl3336511   5.666   4.336   2.710  0.4046  0.5075  0.1445
  300MOL   Cl3436512   5.705   4.519   2.493 -0.2375  0.1868 -0.2404
  300MOL    C3536513   5.585   4.275   2.444 -0.0690  0.3035 -0.8615
  300MOL    H3636514   5.495   4.215   2.454  1.3504 -1.4059  2.2202
  300MOL    H3736515   5.573   4.319   2.344  2.9202 -1.1253 -1.9038
  300MOL    C3836516   5.697   4.162   2.421 -0.7316 -0.1414  0.3506
  300MOL   Cl3936517   5.665   4.097   2.255  0.3375  0.2624 -0.2233
  300MOL   Cl4036518   5.679   4.041   2.549  0.2986 -0.1048 -0.1225
  300MOL    C4136519   5.844   4.230   2.423  0.3135  0.4524  0.0432
  300MOL    H4236520   5.841   4.313   2.353 -0.7620  0.6897  0.3620
  300MOL    H4336521   5.848   4.279   2.520  1.3293 -0.2884  0.3848
  300MOL    C4436522   5.975   4.146   2.402  0.0146  0.5161 -0.2792
  300MOL   Cl4536523   6.109   4.260   2.379 -0.1529  0.0719 -0.0348
  300MOL   Cl4636524   5.956   4.045   2.254  0.4444  0.1697 -0.0320
  300MOL    C4736525   6.017   4.056   2.518 -0.1585 -0.1491  0.2354
  300MOL    H4836526   5.929   3.997   2.542  0.0723 -0.3896  0.4900
  300MOL    H4936527   6.086   3.987   2.468  2.1403  1.5537  0.9725
  300MOL    C5036528   6.083   4.103   2.649  0.2686  0.0629 -0.7146
  300MOL   Cl5136529   6.032   3.972   2.757  0.0466  0.2345 -0.0262
  300MOL   Cl5236530   6.005   4.249   2.714 -0.2963  0.2887 -0.0613
  300MOL    C5336531   6.242   4.118   2.649 -0.0752  0.8271 -0.0717
  300MOL    H5436532   6.268   4.012   2.651  0.8918  0.9870 -2.7329
  300MOL    H5536533   6.267   4.154   2.549 -1.3957 -1.2312 -1.1950
  300MOL    C5636534   6.319   4.191   2.754 -0.5352  0.6538  0.5498
  300MOL   Cl5736535   6.243   4.172   2.914  0.1358 -0.1491 -0.3255
  300MOL   Cl5836536   6.307   4.361   2.720  0.0242 -0.3028  0.3539
  300MOL    C5936537   6.463   4.149   2.772  0.0013 -0.0972  0.6197
  300MOL    H6036538   6.509   4.200   2.856 -2.8368  0.4478  1.9002
  300MOL    H6136539   6.444   4.046   2.804  0.2197  0.2503  1.8777
  300MOL    C6236540   6.561   4.139   2.648  0.0998 -0.3725  0.4893
  300MOL   Cl6336541   6.584   4.295   2.575 -0.4920  0.3763  0.0986
  300MOL   Cl6436542   6.499   4.035   2.518 -0.1554 -0.0068 -0.3240
  300MOL    C6536543   6.701   4.092   2.686 -0.0552 -0.1825 -0.4661
  300MOL    H6636544   6.752   4.066   2.593  0.4433  0.0731 -0.2652
  300MOL    H6736545   6.755   4.177   2.726 -1.2059 -0.3645  1.5663
  300MOL    C6836546   6.730   3.964   2.774  0.3651  0.2841  0.8828
  300MOL   Cl6936547   6.603   3.843   2.750  0.4717 -0.0013  0.2102
  300MOL   Cl7036548   6.728   4.023   2.945  0.2011 -0.5612  0.2479
  300MOL    C7136549   6.862   3.896   2.737 -0.3718  0.3409 -0.0979
  300MOL    H7236550   6.846   3.841   2.644 -1.9785  0.3834  0.1342
  300MOL    H7336551   6.932   3.975   2.714 -0.6367  0.6356  0.0999
  300MOL    C7436552   6.952   3.794   2.827  0.3762 -0.3372 -0.0420
  300MOL   Cl7536553   7.041   3.881   2.954 -0.1888  0.1701 -0.1315
  300MOL   Cl7636554   7.066   3.724   2.715  0.0377 -0.3492  0.0969
  300MOL    C7736555   6.847   3.689   2.893  0.2167 -0.0361  0.1727
  300MOL    H7836556   6.795   3.752   2.966 -0.5283 -0.0931 -0.3028
  300MOL    H7936557   6.783   3.659   2.810  1.6199  0.7470 -1.2323
  300MOL    C8036558   6.907   3.563   2.959  0.3379  0.2877 -0.9362
  300MOL   Cl8136559   7.028   3.603   3.083 -0.3706  0.0584 -0.0047
  300MOL   Cl8236560   6.987   3.461   2.840 -0.1742 -0.0013 -0.1219
  300MOL    C8336561   6.803   3.478   3.038  0.1999  0.4933  0.4861
  300MOL    H8436562   6.762   3.413   2.961  3.1076 -2.2517  1.1331
  300MOL    H8536563   6.860   3.398   3.086 -1.7630 -2.0438 -1.2789
  300MOL    C8636564   6.691   3.543   3.127 -1.0224 -0.4280 -0.2369
  300MOL   Cl8736565   6.625   3.398   3.207 -0.3035  0.3562 -0.4147
  300MOL   Cl8836566   6.563   3.603   3.018  0.0920 -0.3697 -0.2666
  300MOL    C8936567   6.735   3.641   3.242  0.1321 -0.0854  0.1859
  300MOL    H9036568   6.806   3.578   3.295  1.4575  0.1511 -1.2480
  300MOL    H9136569   6.793   3.722   3.198  1.9958 -2.4681 -1.8893
  300MOL    C9236570   6.639   3.716   3.339  0.1975 -0.1961  0.0131
  300MOL   Cl9336571   6.516   3.597   3.391  0.0902  0.2351 -0.2389
  300MOL   Cl9436572   6.554   3.851   3.253 -0.1664 -0.2259  0.2002
  300MOL    C9536573   6.711   3.765   3.473  0.2908  0.7544  0.3074
  300MOL    H9636574   6.636   3.787   3.548  0.8561  0.3897  0.9871
  300MOL    H9736575   6.754   3.682   3.528 -0.7667 -1.1702 -1.7050
  300MOL    C9836576   6.829   3.868   3.466 -0.5415  0.0994  0.5330
  300MOL   Cl9936577   6.802   3.993   3.337  0.3418 -0.3338 -0.1744
  300MOL  Cl10036578   6.983   3.786   3.415  0.1778  0.2946 -0.2042
  300MOL   C10136579   6.841   3.947   3.597  0.2419  0.0885  0.3621
  300MOL   H10236580   6.918   4.023   3.581  1.3412 -0.8312  1.1990
  300MOL   H10336581   6.742   3.990   3.611  0.4455  0.2973  1.1999
  300MOL   C10436582   6.881   3.876   3.736  0.1741 -0.2951  0.6071
  300MOL  Cl10536583   7.045   3.829   3.718 -0.1585  0.0061  0.0155
  300MOL  Cl10636584   6.786   3.737   3.773 -0.6265  0.3557 -0.1982
  300MOL   C10736585   6.885   3.969   3.867 -0.3532 -0.2987 -0.7387
  300MOL   H10836586   6.887   3.900   3.951  0.9064 -0.9514 -1.2999
  300MOL   H10936587   6.975   4.029   3.865 -0.0856 -0.6349  0.9549
  300MOL   C11036588   6.766   4.066   3.901  0.4198 -0.0239  0.9027
  300MOL  Cl11136589   6.609   3.988   3.857 -0.6103  0.2082 -0.2428
  300MOL  Cl11236590   6.772   4.203   3.788 -0.5711  0.2849 -0.5343
  300MOL   C11336591   6.754   4.146   4.039 -0.1335  0.0644  0.6633
  300MOL   H11436592   6.834   4.220   4.035  0.8725 -1.1043 -1.6722
  300MOL   H11536593   6.661   4.204   4.037  0.0388  0.3226  0.0813
  300MOL   C11636594   6.748   4.069   4.172 -0.7786 -0.4222 -0.7444
  300MOL  Cl11736595   6.719   4.183   4.315 -0.0916 -0.2615 -0.1403
  300MOL  Cl11836596   6.913   3.996   4.184  0.2393  0.0529 -0.3310
  300MOL   C11936597   6.647   3.955   4.180  0.1609  0.1165  0.2996
  300MOL   H12036598   6.656   3.905   4.276  2.8216 -1.3937 -0.6722
  300MOL   H12136599   6.551   4.003   4.164  2.0836  4.1787  0.3176
  300MOL   H12236600   6.663   3.872   4.110 -2.0839  0.1929 -0.3270
  301MOL     C136601   1.087   1.901   3.828 -0.0715  0.7722 -0.2504
  301MOL    Cl236602   1.090   1.729   3.784  0.2179 -0.2989  0.3195
  301MOL    Cl336603   1.182   1.998   3.703 -0.2005 -0.2989  0.0788
  301MOL     C436604   0.944   1.951   3.826  0.0302 -0.3561  0.3124
  301MOL     H536605   0.947   2.060   3.824 -0.1943 -0.3666 -1.8222
  301MOL     H636606   0.901   1.922   3.730 -0.1918 -3.4541  1.2688
  301MOL     H736607   1.144   1.909   3.920  0.4226  2.7380 -0.7026
  301MOL     C836608   0.849   1.905   3.948 -0.4818 -1.0546 -0.0457
  301MOL    Cl936609   0.945   1.893   4.096 -0.2367  0.1626 -0.0050
  301MOL   Cl1036610   0.787   1.746   3.920  0.5411  0.2225  0.7787
  301MOL    C1136611   0.737   2.010   3.968  0.0762  0.1325 -0.1949
  301MOL    H1236612   0.721   2.018   4.076 -1.1920  1.0301 -0.4389
  301MOL    H1336613   0.771   2.112   3.953  2.1960 -0.5771 -0.4054
  301MOL    C1436614   0.596   2.002   3.900  0.1158  0.5649  0.0578
  301MOL   Cl1536615   0.607   1.967   3.725  0.0790 -0.0694  0.1213
  301MOL   Cl1636616   0.529   2.169   3.911  0.3126 -0.0409 -0.0864
  301MOL    C1736617   0.493   1.902   3.970 -0.2059  0.0383 -0.2376
  301MOL    H1836618   0.541   1.804   3.975 -1.6513 -0.7817 -2.1340
  301MOL    H1936619   0.486   1.954   4.066  2.7421  0.9694 -0.4766
  301MOL    C2036620   0.345   1.876   3.913  0.2456 -0.8280 -0.8538
  301MOL   Cl2136621   0.371   1.737   3.800 -0.1025 -0.2826  0.1074
  301MOL   Cl2236622   0.255   1.990   3.810 -0.6455  0.1397  0.0924
  301MOL    C2336623   0.242   1.830   4.025  0.0410  0.2842  0.6094
  301MOL    H2436624   0.171   1.768   3.971  0.8348 -0.9354  0.9509
  301MOL    H2536625   0.303   1.769   4.091 -1.1601  0.4067  1.8589
  301MOL    C2636626   0.158   1.918   4.118 -0.0585 -0.1432  0.2270
  301MOL   Cl2736627   0.015   1.992   4.022 -0.1688  0.2335 -0.0039
  301MOL   Cl2836628   0.258   2.053   4.191  0.2396 -0.2900  0.1826
  301MOL    C2936629   0.090   1.841   4.245 -0.3181 -0.6654  0.3830
  301MOL    H3036630   0.068   1.925   4.310  2.8737 -0.3473  1.1230
  301MOL    H3136631   9.173   1.806   4.209 -0.9615 -0.6131  2.0131
  301MOL    C3236632   0.169   1.733   4.325 -0.4490  0.1426 -0.4647
  301MOL   Cl3336633   0.327   1.791   4.365  0.2973 -0.4750 -0.1209
  301MOL   Cl3436634   0.188   1.590   4.226  0.1369 -0.2566 -0.3184
  301MOL    C3536635   0.086   1.700   4.450 -0.2997 -0.2886 -0.4054
  301MOL    H3636636   0.070   1.801   4.489 -0.6322  0.2072 -1.7637
  301MOL    H3736637   9.168   1.668   4.416 -1.3754  0.9250  1.4613
  301MOL    C3836638   0.135   1.613   4.573  0.0123 -0.6118 -0.5274
  301MOL   Cl3936639   0.167   1.441   4.517  0.3659 -0.3669 -0.0410
  301MOL   Cl4036640   0.000   1.615   4.698  0.0608  0.2262 -0.1042
  301MOL    C4136641   0.262   1.667   4.640  0.0737  0.3449  0.2961
  301MOL    H4236642   0.344   1.618   4.588  0.3620 -0.1245  1.1827
  301MOL    H4336643   0.273   1.773   4.619  0.2867  0.9092  3.0241
  301MOL    C4436644   0.295   1.637   4.792 -0.5530  0.4704  0.1053
  301MOL   Cl4536645   0.470   1.682   4.807 -0.0859 -0.0049  0.0670
  301MOL   Cl4636646   0.281   1.458   4.827 -0.3691  0.2427  0.3347
  301MOL    C4736647   0.229   1.720   4.903  0.3735 -0.0076 -0.3244
  301MOL    H4836648   0.127   1.687   4.921  0.2988  0.2238 -0.3230
  301MOL    H4936649   0.285   1.707   4.995 -0.8452 -0.7509  0.3188
  301MOL    C5036650   0.204   1.879   4.892  0.6252 -0.1646 -0.0084
  301MOL   Cl5136651   0.169   1.930   5.059  0.0920 -0.0746  0.3076
  301MOL   Cl5236652   0.063   1.914   4.785 -0.0786  0.0303  0.2089
  301MOL    C5336653   0.331   1.959   4.844  0.4388  0.1836 -0.4240
  301MOL    H5436654   0.410   1.915   4.905  0.8156  1.5596  0.0823
  301MOL    H5536655   0.347   1.929   4.740 -0.6551  0.8347 -0.7807
  301MOL    C5636656   0.341   2.111   4.855 -0.3818  0.8165  0.0840
  301MOL   Cl5736657   0.365   2.163   5.026 -0.0566  0.1077  0.2427
  301MOL   Cl5836658   0.199   2.199   4.794  0.0313  0.4573  0.0942
  301MOL    C5936659   0.470   2.158   4.783 -0.2247  0.2770  0.0913
  301MOL    H6036660   0.467   2.267   4.786  0.3461  0.3033 -0.1401
  301MOL    H6136661   0.551   2.127   4.849  0.4783  0.7997 -0.5239
  301MOL    C6236662   0.498   2.125   4.632 -0.3091 -1.0828  0.2537
  301MOL   Cl6336663   0.353   2.110   4.523 -0.6288 -0.1355  0.1555
  301MOL   Cl6436664   0.578   1.965   4.629 -0.0757 -0.4550  0.5927
  301MOL    C6536665   0.598   2.236   4.575 -0.1774 -0.0353 -0.0332
  301MOL    H6636666   0.567   2.330   4.621 -1.2685  0.6876 -2.1638
  301MOL    H6736667   0.695   2.212   4.618 -0.6694 -3.0417 -0.4805
  301MOL    C6836668   0.621   2.262   4.419 -0.4160  0.6145 -0.6447
  301MOL   Cl6936669   0.484   2.345   4.352  0.0432  0.0941  0.3455
  301MOL   Cl7036670   0.642   2.104   4.336  0.2996 -0.5209  0.6465
  301MOL    C7136671   0.743   2.353   4.389 -0.0672  0.6137 -0.1380
  301MOL    H7236672   0.713   2.448   4.433 -0.1348  0.9538 -0.9068
  301MOL    H7336673   0.832   2.328   4.447  0.7097 -1.2464 -2.0744
  301MOL    C7436674   0.801   2.367   4.240 -0.0023  0.4404 -0.1150
  301MOL   Cl7536675   0.684   2.361   4.102 -0.1976  0.0472  0.3403
  301MOL   Cl7636676   0.905   2.222   4.224  0.2595 -0.1396  0.0346
  301MOL    C7736677   0.902   2.485   4.235  0.1797 -0.6168 -0.2157
  301MOL    H7836678   0.962   2.479   4.325  0.0072  0.1408 -0.0490
  301MOL    H7936679   0.961   2.474   4.144  0.4858  0.3571 -0.1328
  301MOL    C8036680   0.865   2.642   4.235  1.1189 -0.4035 -0.0453
  301MOL   Cl8136681   1.027   2.725   4.246  0.3242  0.1360 -0.1503
  301MOL   Cl8236682   0.777   2.679   4.383  0.4373 -0.0378 -0.3729
  301MOL    C8336683   0.790   2.680   4.107 -0.3629 -0.3470  0.0775
  301MOL    H8436684   0.838   2.629   4.023 -0.5221 -0.0632 -0.1862
  301MOL    H8536685   0.694   2.633   4.127 -0.4181  1.0211  3.1701
  301MOL    C8636686   0.757   2.824   4.068  0.0344 -0.3574  0.1503
  301MOL   Cl8736687   0.627   2.893   4.172 -0.4364  0.4347  0.4429
  301MOL   Cl8836688   0.679   2.815   3.907  0.0257 -0.5570 -0.1761
  301MOL    C8936689   0.875   2.926   4.055  0.7849 -0.2006 -0.1912
  301MOL    H9036690   0.900   2.946   4.159 -1.2519  0.3558  0.2073
  301MOL    H9136691   0.956   2.861   4.022  1.3241  1.0693 -1.4312
  301MOL    C9236692   0.870   3.058   3.969  0.0357 -0.4764  0.1630
  301MOL   Cl9336693   1.002   3.160   4.046 -0.1181 -0.3101  0.0750
  301MOL   Cl9436694   0.723   3.154   4.008 -0.3360 -0.0281 -0.0878
  301MOL    C9536695   0.889   3.053   3.813 -0.2176 -0.0055  0.3369
  301MOL    H9636696   0.799   3.029   3.756 -0.8521 -0.2478  1.4306
  301MOL    H9736697   0.902   3.158   3.789  0.7141 -0.4222 -1.0728
  301MOL    C9836698   1.011   2.974   3.750 -0.5338  0.3390 -0.0935
  301MOL   Cl9936699   0.975   2.792   3.733 -0.3690  0.2221 -0.0603
  301MOL  Cl10036700   1.166   3.002   3.844 -0.1422  0.2293 -0.1375
  301MOL   C10136701   1.060   3.034   3.611 -0.4123  0.1173  0.1040
  301MOL   H10236702   1.073   3.141   3.628 -0.0400  0.1018 -0.0864
  301MOL   H10336703   1.157   2.993   3.583 -0.1325  1.1989 -0.5333
  301MOL   C10436704   0.976   3.032   3.488  0.4565 -0.3993  0.1285
  301MOL  Cl10536705   0.818   3.116   3.496  0.1878 -0.3151 -0.1285
  301MOL  Cl10636706   0.945   2.850   3.441  0.0670 -0.2973  0.2553
  301MOL   C10736707   1.059   3.097   3.374 -0.4401  0.9425 -0.5023
  301MOL   H10836708   1.135   3.024   3.346 -0.6858 -0.4213  2.1826
  301MOL   H10936709   0.998   3.103   3.284  3.1864 -0.4096 -3.1898
  301MOL   C11036710   1.124   3.241   3.380  0.8133  0.4673 -0.6180
  301MOL  Cl11136711   1.256   3.241   3.496  0.5130  0.4413 -0.0284
  301MOL  Cl11236712   1.005   3.352   3.441  0.0035 -0.0480  0.2494
  301MOL   C11336713   1.168   3.293   3.242 -0.2698  0.6937  0.3536
  301MOL   H11436714   1.086   3.341   3.187 -1.4981 -1.1728  0.5283
  301MOL   H11536715   1.237   3.373   3.268  1.0739 -0.5649  0.6746
  301MOL   C11636716   1.255   3.205   3.142 -0.0141  0.3145 -0.1407
  301MOL  Cl11736717   1.381   3.110   3.222  0.0428  0.0352 -0.1427
  301MOL  Cl11836718   1.332   3.318   3.033 -0.4036  0.4194  0.4916
  301MOL   C11936719   1.170   3.115   3.042  0.2819 -0.0003  0.3499
  301MOL   H12036720   1.090   3.170   2.993  1.3277  0.5817 -0.7526
  301MOL   H12136721   1.233   3.053   2.978  0.4464  1.4070 -0.9058
  301MOL   H12236722   1.117   3.036   3.095 -2.0985 -0.2679 -2.3008
  302MOL     C136723   4.171   5.747   4.348 -0.0096 -0.1035  0.3522
  302MOL    Cl236724   4.059   5.813   4.477  0.4633  0.1852 -0.0637
  302MOL    Cl336725   4.172   5.572   4.369  0.0415 -0.1408 -0.2416
  302MOL     C436726   4.123   5.781   4.209 -0.1101 -0.4003  0.3296
  302MOL     H536727   4.030   5.732   4.181 -0.6765  0.5269  0.5905
  302MOL     H636728   4.100   5.887   4.216 -1.4392 -0.7335  1.2204
  302MOL     H736729   4.264   5.794   4.378  0.2792 -1.0789  0.9686
  302MOL     C836730   4.225   5.768   4.094 -0.4043 -0.7031 -0.2525
  302MOL    Cl936731   4.375   5.865   4.121  0.3943  0.2884  0.2894
  302MOL   Cl1036732   4.155   5.842   3.946  0.5770  0.0990  0.2040
  302MOL    C1136733   4.272   5.623   4.064 -0.7193  0.7362  0.3044
  302MOL    H1236734   4.333   5.586   4.146 -1.2190  1.4058  0.9869
  302MOL    H1336735   4.192   5.549   4.063 -1.8260  1.9174 -1.5056
  302MOL    C1436736   4.335   5.580   3.927 -0.2195  0.1134 -0.4344
  302MOL   Cl1536737   4.197   5.539   3.821 -0.1843  0.3907 -0.0626
  302MOL   Cl1636738   4.422   5.426   3.962 -0.1954 -0.4028  0.2367
  302MOL    C1736739   4.435   5.680   3.862  0.2128  0.3013  0.0947
  302MOL    H1836740   4.366   5.748   3.811 -1.4597  0.1841  2.1490
  302MOL    H1936741   4.488   5.744   3.932 -1.9944  2.8106 -0.4417
  302MOL    C2036742   4.531   5.635   3.756  0.0374  0.8059 -0.1347
  302MOL   Cl2136743   4.484   5.504   3.643 -0.0590  0.6498  0.1503
  302MOL   Cl2236744   4.676   5.576   3.841  0.3483  0.2803 -0.1112
  302MOL    C2336745   4.586   5.752   3.670 -0.2181  0.2163 -0.1331
  302MOL    H2436746   4.643   5.820   3.734 -0.2745  2.1715 -2.1137
  302MOL    H2536747   4.661   5.713   3.602 -0.6977  1.7085 -1.5477
  302MOL    C2636748   4.506   5.837   3.573 -0.2070  0.0408 -0.1997
  302MOL   Cl2736749   4.445   5.972   3.670  0.1381  0.2124 -0.0768
  302MOL   Cl2836750   4.357   5.751   3.505 -0.0294 -0.6884 -0.3518
  302MOL    C2936751   4.597   5.891   3.459 -0.5114  0.3575  0.1444
  302MOL    H3036752   4.680   5.948   3.499  1.3075 -2.6499  0.7886
  302MOL    H3136753   4.647   5.807   3.411  1.7143  0.6960  1.7952
  302MOL    C3236754   4.527   5.960   3.339  0.2665  0.1267  0.2138
  302MOL   Cl3336755   4.389   6.057   3.383  0.1209  0.3613 -0.3442
  302MOL   Cl3436756   4.463   5.849   3.226 -0.0274 -0.0006 -0.1288
  302MOL    C3536757   4.620   6.065   3.268 -0.0086 -1.0123  0.1799
  302MOL    H3636758   4.564   6.126   3.197  0.2023 -1.2473 -0.1917
  302MOL    H3736759   4.624   6.141   3.346 -0.2207  0.1668 -0.9302
  302MOL    C3836760   4.763   6.034   3.209  0.2118 -0.0435  0.2796
  302MOL   Cl3936761   4.865   5.949   3.325 -0.2053  0.3000 -0.1356
  302MOL   Cl4036762   4.826   6.203   3.188  0.2300  0.3893 -0.2134
  302MOL    C4136763   4.760   5.941   3.082  0.7954  0.1394  1.0155
  302MOL    H4236764   4.752   5.842   3.125  1.2272 -0.0785  0.6002
  302MOL    H4336765   4.671   5.963   3.022  0.2847 -0.5257  1.5254
  302MOL    C4436766   4.875   5.936   2.984 -0.2360 -0.2914  0.4633
  302MOL   Cl4536767   4.875   6.089   2.900 -0.0277 -0.5618  0.1947
  302MOL   Cl4636768   4.831   5.812   2.874  0.0342  0.3172 -0.4165
  302MOL    C4736769   5.010   5.897   3.050 -0.2215  0.0799  0.4529
  302MOL    H4836770   5.029   5.974   3.125  0.4005  0.8113 -0.4353
  302MOL    H4936771   4.990   5.809   3.110 -0.8959  0.6739  1.1152
  302MOL    C5036772   5.141   5.890   2.968 -0.0713  0.3372 -0.1221
  302MOL   Cl5136773   5.193   6.057   2.933  0.1629  0.4291 -0.1603
  302MOL   Cl5236774   5.129   5.805   2.812 -0.2430  0.0799  0.0951
  302MOL    C5336775   5.262   5.823   3.048  0.0442  0.0226 -0.6454
  302MOL    H5436776   5.240   5.716   3.041 -0.8651  0.2915 -1.9685
  302MOL    H5536777   5.347   5.852   2.988 -1.1281  2.4108 -1.2008
  302MOL    C5636778   5.288   5.863   3.196  0.2842 -0.0471  0.3894
  302MOL   Cl5736779   5.175   5.783   3.314 -0.0308  0.2699 -0.1275
  302MOL   Cl5836780   5.270   6.036   3.225 -0.2650  0.5250  0.3218
  302MOL    C5936781   5.433   5.836   3.239 -0.4181  0.3742 -0.1776
  302MOL    H6036782   5.500   5.904   3.186 -1.5081 -0.9664 -3.3760
  302MOL    H6136783   5.433   5.871   3.342  0.1003  0.0179 -0.0477
  302MOL    C6236784   5.497   5.687   3.233  0.1739 -0.5089  0.2266
  302MOL   Cl6336785   5.524   5.633   3.064  0.1341  0.0222  0.2628
  302MOL   Cl6436786   5.393   5.557   3.300 -0.3000  0.2701  0.0832
  302MOL    C6536787   5.629   5.689   3.317  0.6771 -0.3032  0.1957
  302MOL    H6636788   5.597   5.719   3.416  1.3353 -1.2669  0.7150
  302MOL    H6736789   5.668   5.588   3.335  2.8236  0.4102 -0.2639
  302MOL    C6836790   5.742   5.784   3.280 -0.6612 -0.3443 -0.1560
  302MOL   Cl6936791   5.874   5.717   3.382  0.6291  0.4598  0.0508
  302MOL   Cl7036792   5.707   5.952   3.333  0.0873  0.0920 -0.2899
  302MOL    C7136793   5.788   5.778   3.133 -0.4372 -0.2428 -0.5008
  302MOL    H7236794   5.818   5.675   3.120 -2.9930 -1.1533  0.4941
  302MOL    H7336795   5.696   5.810   3.084  0.5544  0.1471 -2.1339
  302MOL    C7436796   5.907   5.857   3.071 -0.1172  0.4037  0.3357
  302MOL   Cl7536797   5.856   6.029   3.091  0.0695  0.0941 -0.0688
  302MOL   Cl7636798   5.898   5.798   2.894  0.3156  0.1528 -0.3502
  302MOL    C7736799   6.045   5.822   3.135  0.1898  0.2700 -1.0090
  302MOL    H7836800   6.030   5.831   3.243  2.3673 -2.0627 -0.4668
  302MOL    H7936801   6.065   5.716   3.127 -1.7352 -0.0651 -1.6199
  302MOL    C8036802   6.174   5.891   3.080  0.4512  0.3637 -0.2092
  302MOL   Cl8136803   6.161   6.062   3.114  0.6801  0.0977  0.3965
  302MOL   Cl8236804   6.206   5.860   2.903  0.1732  0.1511 -0.1008
  302MOL    C8336805   6.287   5.822   3.164  0.3989 -0.1800 -0.0373
  302MOL    H8436806   6.246   5.801   3.262  0.6678  0.5812  0.2390
  302MOL    H8536807   6.309   5.725   3.118 -1.1121  0.1888 -1.5986
  302MOL    C8636808   6.429   5.893   3.181 -0.3341  0.5850 -0.3600
  302MOL   Cl8736809   6.522   5.765   3.269  0.0187 -0.1336  0.6754
  302MOL   Cl8836810   6.418   6.032   3.291 -0.7081  0.0043 -0.5023
  302MOL    C8936811   6.491   5.938   3.047 -0.3973  0.1674  0.3544
  302MOL    H9036812   6.482   5.864   2.968 -0.6069  1.3465 -0.7618
  302MOL    H9136813   6.436   6.027   3.013 -0.4550 -0.1706 -0.4559
  302MOL    C9236814   6.633   6.005   3.048 -1.0254  0.3997 -0.6684
  302MOL   Cl9336815   6.754   5.912   3.138 -0.2816 -0.1813 -0.0744
  302MOL   Cl9436816   6.623   6.172   3.115 -0.4332 -0.1033 -0.5112
  302MOL    C9536817   6.694   6.022   2.905  0.1448 -0.7329 -0.5590
  302MOL    H9636818   6.776   6.094   2.915 -0.5004 -0.3144  2.3170
  302MOL    H9736819   6.734   5.923   2.880 -0.7521 -1.1017 -0.5566
  302MOL    C9836820   6.610   6.075   2.780  0.1660 -0.2385 -0.0764
  302MOL   Cl9936821   6.490   6.208   2.813 -0.4985 -0.1078  0.1025
  302MOL  Cl10036822   6.511   5.939   2.726  0.5723  0.2016  0.4349
  302MOL   C10136823   6.700   6.129   2.660 -0.1897  0.3993  0.2265
  302MOL   H10236824   6.625   6.171   2.592  0.2015 -1.1837 -1.2240
  302MOL   H10336825   6.752   6.215   2.702 -2.0350  0.7726  1.7684
  302MOL   C10436826   6.802   6.050   2.579  0.5893 -0.3876 -0.4017
  302MOL  Cl10536827   6.724   5.906   2.509  0.0576  0.2697 -0.3390
  302MOL  Cl10636828   6.914   5.978   2.699 -0.1356  0.1334  0.4840
  302MOL   C10736829   6.879   6.127   2.469 -0.4433  0.3684 -0.4709
  302MOL   H10836830   6.954   6.053   2.439  0.1197  0.6711  0.1728
  302MOL   H10936831   6.808   6.136   2.387 -1.6993  0.8018  0.6467
  302MOL   C11036832   6.946   6.268   2.491  0.0059  0.2949 -0.7848
  302MOL  Cl11136833   7.039   6.257   2.646  0.4196  0.2492 -0.0101
  302MOL  Cl11236834   6.816   6.383   2.522 -0.2784 -0.1107 -0.2706
  302MOL   C11336835   7.042   6.316   2.378  0.4154 -0.2796  0.2050
  302MOL   H11436836   7.046   6.423   2.397 -0.2570 -0.0859 -0.6920
  302MOL   H11536837   7.142   6.279   2.398  0.5803  0.4246  0.6752
  302MOL   C11636838   7.000   6.303   2.226 -0.2904 -0.2628 -0.5395
  302MOL  Cl11736839   6.834   6.360   2.201  0.0315  0.0394 -0.2077
  302MOL  Cl11836840   7.009   6.139   2.169  0.3547 -0.2240 -0.2786
  302MOL   C11936841   7.105   6.371   2.147 -0.9927 -0.6882  0.2981
  302MOL   H12036842   7.111   6.472   2.188 -0.0473 -0.5975 -0.0652
  302MOL   H12136843   7.207   6.334   2.153 -1.1268 -1.1850 -0.4163
  302MOL   H12236844   7.075   6.386   2.043 -1.9026  1.3443  0.8104
  303MOL     C136845   4.545   8.684   5.214 -0.2532 -0.1158  0.0694
  303MOL    Cl236846   4.717   8.720   5.171 -0.0203  0.2821  0.0080
  303MOL    Cl336847   4.474   8.564   5.095  0.1935 -0.2679  0.0012
  303MOL     C436848   4.532   8.607   5.343  0.1354 -0.5133  0.5181
  303MOL     H536849   4.428   8.577   5.359  0.0407 -0.6514 -0.3217
  303MOL     H636850   4.595   8.522   5.322  0.5087  0.0611 -0.7117
  303MOL     H736851   4.474   8.766   5.204 -0.0844 -0.0434 -0.5276
  303MOL     C836852   4.568   8.666   5.483 -0.7804  0.3404  0.2417
  303MOL    Cl936853   4.470   8.579   5.610 -0.4113  0.1781 -0.3923
  303MOL   Cl1036854   4.522   8.835   5.486  0.0121  0.1913 -0.1571
  303MOL    C1136855   4.726   8.663   5.517  0.2557  0.4201 -0.2774
  303MOL    H1236856   4.766   8.564   5.498  1.9795  0.8454  1.0286
  303MOL    H1336857   4.779   8.714   5.438  0.6083  0.7922  0.1938
  303MOL    C1436858   4.783   8.724   5.647  0.6698 -0.1272  0.0129
  303MOL   Cl1536859   4.795   8.904   5.631 -0.2134  0.3374 -0.0454
  303MOL   Cl1636860   4.955   8.668   5.654 -0.0634  0.2071 -0.1137
  303MOL    C1736861   4.719   8.694   5.784 -0.5545 -0.0835 -0.5949
  303MOL    H1836862   4.752   8.768   5.857  1.1708 -1.4023 -0.0132
  303MOL    H1936863   4.612   8.716   5.777 -0.4192  0.7979  0.0883
  303MOL    C2036864   4.739   8.565   5.860  0.1772  0.0025 -0.1004
  303MOL   Cl2136865   4.901   8.558   5.941 -0.1815 -0.2376  0.0161
  303MOL   Cl2236866   4.732   8.421   5.760  0.4525  0.0482 -0.0165
  303MOL    C2336867   4.629   8.554   5.974  0.7116  0.4476  0.0536
  303MOL    H2436868   4.533   8.538   5.925  1.0071 -0.7337 -0.1520
  303MOL    H2536869   4.643   8.461   6.029 -2.6707 -0.1381 -0.0068
  303MOL    C2636870   4.603   8.656   6.088 -0.0544 -0.5731 -0.0366
  303MOL   Cl2736871   4.524   8.808   6.034  0.2174  0.0215  0.0284
  303MOL   Cl2836872   4.751   8.707   6.171 -0.0845  0.1393  0.2479
  303MOL    C2936873   4.504   8.606   6.198 -0.1091  0.6464  0.9253
  303MOL    H3036874   4.561   8.537   6.261  1.8674  2.0640  0.7532
  303MOL    H3136875   4.473   8.690   6.259  0.7184  0.0333  2.2205
  303MOL    C3236876   4.374   8.525   6.172 -0.4892 -0.0484 -0.5699
  303MOL   Cl3336877   4.398   8.375   6.081  0.4203  0.0891 -0.1406
  303MOL   Cl3436878   4.270   8.623   6.071 -0.0928 -0.6078 -0.1601
  303MOL    C3536879   4.311   8.505   6.315  0.0022  0.0502 -0.0610
  303MOL    H3636880   4.388   8.495   6.391 -0.5915 -0.9229  0.4309
  303MOL    H3736881   4.268   8.601   6.341 -0.9964 -0.3408 -0.2228
  303MOL    C3836882   4.210   8.396   6.350  0.3316  0.8520  0.4416
  303MOL   Cl3936883   4.149   8.438   6.505  0.4337 -0.1556 -0.3018
  303MOL   Cl4036884   4.291   8.241   6.374  0.4572 -0.1724  0.2011
  303MOL    C4136885   4.084   8.393   6.249  0.0167 -0.1875  0.0530
  303MOL    H4236886   4.053   8.497   6.239 -1.0524 -0.4741  0.2830
  303MOL    H4336887   4.118   8.353   6.153 -1.4732 -2.4962  0.4404
  303MOL    C4436888   3.948   8.307   6.277 -1.1482 -0.1254 -0.3733
  303MOL   Cl4536889   3.861   8.299   6.124  0.3043 -0.0338  0.2418
  303MOL   Cl4636890   3.850   8.399   6.392  0.3722  0.3190  0.0778
  303MOL    C4736891   3.979   8.164   6.335  0.5861  0.3350  0.5467
  303MOL    H4836892   4.041   8.119   6.257 -0.5208  2.5314 -1.6640
  303MOL    H4936893   4.045   8.183   6.420  1.3500  1.4205 -0.2616
  303MOL    C5036894   3.862   8.067   6.383  0.4356 -0.8459  0.4910
  303MOL   Cl5136895   3.819   8.121   6.544  0.0558  0.0112 -0.0079
  303MOL   Cl5236896   3.941   7.909   6.391  0.0025  0.2836  0.3401
  303MOL    C5336897   3.727   8.064   6.296 -0.1359  0.2282  0.6253
  303MOL    H5436898   3.702   8.168   6.277 -0.2898  0.2082  0.7156
  303MOL    H5536899   3.755   8.017   6.202 -4.2536 -0.2326 -0.4627
  303MOL    C5636900   3.603   7.975   6.328 -0.3064 -0.2816  0.6739
  303MOL   Cl5736901   3.650   7.830   6.413 -0.0981  0.0753 -0.1971
  303MOL   Cl5836902   3.532   7.921   6.173 -0.0568  0.1098  0.3622
  303MOL    C5936903   3.500   8.055   6.419  0.3568 -0.4802 -0.2874
  303MOL    H6036904   3.446   7.985   6.483 -1.8873 -0.6988 -2.3507
  303MOL    H6136905   3.554   8.128   6.479 -0.6297  2.3388 -2.7055
  303MOL    C6236906   3.380   8.150   6.368  0.3756  0.4489 -0.0368
  303MOL   Cl6336907   3.266   8.058   6.255  0.3120  0.3830 -0.0160
  303MOL   Cl6436908   3.441   8.290   6.265 -0.1411  0.4351  0.1583
  303MOL    C6536909   3.285   8.203   6.482 -0.2166 -0.1888  0.2481
  303MOL    H6636910   3.218   8.281   6.444  0.6321  0.2243 -0.4060
  303MOL    H6736911   3.204   8.132   6.503 -1.0558  0.3480 -1.1303
  303MOL    C6836912   3.352   8.257   6.614  0.9589  0.7234 -0.3181
  303MOL   Cl6936913   3.482   8.370   6.576 -0.1038  0.1465  0.0470
  303MOL   Cl7036914   3.410   8.109   6.701 -0.3586 -0.1055 -0.1436
  303MOL    C7136915   3.254   8.331   6.708 -0.0272 -0.3727 -0.1516
  303MOL    H7236916   3.311   8.333   6.801 -1.4755 -0.4409  0.7631
  303MOL    H7336917   3.237   8.432   6.672 -0.5361 -0.3493  0.1375
  303MOL    C7436918   3.110   8.275   6.738 -0.5677  0.1935 -0.2536
  303MOL   Cl7536919   3.098   8.094   6.734 -0.2599  0.3032 -0.1833
  303MOL   Cl7636920   3.007   8.348   6.616 -0.4101  0.1774 -0.0424
  303MOL    C7736921   3.049   8.322   6.880  0.1694 -0.3460 -0.1754
  303MOL    H7836922   3.094   8.421   6.887 -0.7539  0.2336 -2.1129
  303MOL    H7936923   2.941   8.335   6.869  0.3065  0.5277 -0.5011
  303MOL    C8036924   3.077   8.243   7.011  0.2571  0.6150 -0.2887
  303MOL   Cl8136925   3.251   8.223   7.023  0.4848  0.0070 -0.0328
  303MOL   Cl8236926   3.000   8.082   7.028  0.1104 -0.0481  0.3572
  303MOL    C8336927   3.037   8.333   7.134 -0.1390 -0.3884 -0.8105
  303MOL    H8436928   3.050   8.270   7.222  1.6378 -0.5919 -1.2181
  303MOL    H8536929   3.115   8.408   7.133  0.7165 -1.2356  0.6718
  303MOL    C8636930   2.891   8.398   7.162 -0.4780  0.8395 -0.3074
  303MOL   Cl8736931   2.887   8.540   7.061  0.2306  0.3126  0.4155
  303MOL   Cl8836932   2.886   8.448   7.336 -0.0177 -0.0614 -0.0152
  303MOL    C8936933   2.778   8.301   7.128 -0.0942  0.1446 -0.4045
  303MOL    H9036934   2.801   8.265   7.028 -1.1375 -0.7345 -0.3307
  303MOL    H9136935   2.777   8.213   7.193 -1.9195  1.2597  1.1223
  303MOL    C9236936   2.626   8.356   7.113 -0.3073 -0.6704  0.3592
  303MOL   Cl9336937   2.614   8.407   6.935  0.1748 -0.2077  0.1764
  303MOL   Cl9436938   2.592   8.503   7.211 -0.2480  0.1770 -0.1465
  303MOL    C9536939   2.515   8.238   7.134 -0.2339 -1.0044 -0.3600
  303MOL    H9636940   2.539   8.164   7.057  0.1226  1.3661 -2.5877
  303MOL    H9736941   2.535   8.198   7.233  3.1366  0.5912 -0.3491
  303MOL    C9836942   2.357   8.266   7.135 -0.0124  0.2597 -0.0055
  303MOL   Cl9936943   2.299   8.372   7.268 -0.1366 -0.0902 -0.1291
  303MOL  Cl10036944   2.284   8.098   7.168 -0.4066  0.1705 -0.6496
  303MOL   C10136945   2.305   8.321   7.003  0.4891  0.3297 -0.3352
  303MOL   H10236946   2.336   8.425   7.007 -0.6681  0.6217  1.5602
  303MOL   H10336947   2.366   8.265   6.932 -2.0731 -2.9241 -0.0642
  303MOL   C10436948   2.154   8.327   6.959  0.5725 -0.5744 -0.2167
  303MOL  Cl10536949   2.043   8.368   7.084  0.2976  0.3416  0.2568
  303MOL  Cl10636950   2.099   8.171   6.898 -0.0297 -0.0326  0.0748
  303MOL   C10736951   2.138   8.439   6.848  0.1691 -0.1125  0.0392
  303MOL   H10836952   2.031   8.446   6.831  0.2727 -0.7897 -0.9791
  303MOL   H10936953   2.159   8.532   6.901 -2.3458  0.6112 -0.2035
  303MOL   C11036954   2.194   8.429   6.697 -0.4764  0.3505 -1.1355
  303MOL  Cl11136955   2.108   8.294   6.627  0.1502 -0.2625  0.1058
  303MOL  Cl11236956   2.374   8.393   6.695  0.1880 -0.3115  0.1631
  303MOL   C11336957   2.143   8.562   6.622  0.4508 -0.4723  0.2120
  303MOL   H11436958   2.035   8.561   6.630  0.5476 -1.0252  1.4885
  303MOL   H11536959   2.156   8.653   6.680 -0.4932 -0.3437  0.2263
  303MOL   C11636960   2.192   8.594   6.475 -0.5030  0.1096  0.0395
  303MOL  Cl11736961   2.364   8.654   6.483 -0.3775  0.4120  0.1060
  303MOL  Cl11836962   2.097   8.732   6.411 -0.1417  0.0205 -0.1006
  303MOL   C11936963   2.171   8.480   6.378  0.4345  0.3054  0.0849
  303MOL   H12036964   2.067   8.449   6.366  1.0809 -1.5230 -0.9297
  303MOL   H12136965   2.210   8.497   6.277  1.5384 -0.2060  0.4242
  303MOL   H12236966   2.227   8.393   6.410  0.1565 -0.5665 -1.7379
  304MOL     C136967   8.291   2.768   0.741  0.6735  0.1568  0.2148
  304MOL    Cl236968   8.373   2.931   0.733  0.2116 -0.2904 -0.5620
  304MOL    Cl336969   8.256   2.735   0.917  0.0402 -0.0838  0.3166
  304MOL     C436970   8.168   2.754   0.656 -0.2295  0.1848 -0.0549
  304MOL     H536971   8.085   2.792   0.716 -2.5592  1.5876 -3.9871
  304MOL     H636972   8.171   2.830   0.578  2.2808  0.5809  0.3886
  304MOL     H736973   8.367   2.693   0.721  0.3872  0.5125 -2.5497
  304MOL     C836974   8.135   2.613   0.592 -0.3357  0.2767 -0.1579
  304MOL    Cl936975   8.122   2.495   0.724 -0.2898 -0.3777  0.1595
  304MOL   Cl1036976   8.282   2.563   0.506 -0.0892  0.0132  0.0437
  304MOL    C1136977   8.011   2.600   0.497  0.5266  0.0625 -0.3570
  304MOL    H1236978   8.040   2.647   0.403  1.5059  0.6553  0.2343
  304MOL    H1336979   8.004   2.492   0.483 -1.4630  0.2085 -0.6123
  304MOL    C1436980   7.872   2.657   0.534  0.1083  0.4874 -0.9167
  304MOL   Cl1536981   7.880   2.834   0.556  0.1656 -0.1935 -0.2232
  304MOL   Cl1636982   7.823   2.600   0.698 -0.2171  0.2469 -0.1934
  304MOL    C1736983   7.760   2.632   0.432 -0.6771  0.0790 -0.0344
  304MOL    H1836984   7.767   2.707   0.353 -0.1677  1.2009  1.0458
  304MOL    H1936985   7.785   2.540   0.380 -2.5745 -0.5937  0.2252
  304MOL    C2036986   7.611   2.622   0.467  0.3125 -0.7056  0.3359
  304MOL   Cl2136987   7.577   2.458   0.536 -0.1765 -0.1743  0.2990
  304MOL   Cl2236988   7.533   2.627   0.309  0.2797  0.6069 -0.2421
  304MOL    C2336989   7.560   2.741   0.565 -0.3295  0.8284  0.8830
  304MOL    H2436990   7.624   2.742   0.653  0.5405 -4.2957  0.4299
  304MOL    H2536991   7.577   2.838   0.517  0.4096  0.2508 -0.0389
  304MOL    C2636992   7.411   2.748   0.625 -0.7675  0.1116 -0.4315
  304MOL   Cl2736993   7.289   2.730   0.497  0.2408 -0.1890  0.2348
  304MOL   Cl2836994   7.385   2.904   0.699  0.1156 -0.1505 -0.3204
  304MOL    C2936995   7.387   2.638   0.735  0.4220 -0.0250  0.1736
  304MOL    H3036996   7.377   2.539   0.691  1.1575  1.1572 -2.7860
  304MOL    H3136997   7.473   2.614   0.796  0.7364  0.4395 -0.0812
  304MOL    C3236998   7.266   2.647   0.840 -0.0617 -0.2181 -0.3200
  304MOL   Cl3336999   7.328   2.750   0.971  0.1328 -0.2887  0.3298
  304MOL   Cl3437000   7.252   2.483   0.907  0.1380 -0.3518  0.0656
  304MOL    C3537001   7.122   2.697   0.794 -0.6025  0.2208  0.2680
  304MOL    H3637002   7.132   2.804   0.775  2.7630  0.1777  1.4552
  304MOL    H3737003   7.084   2.655   0.702  0.3721  0.0377 -0.0582
  304MOL    C3837004   6.996   2.688   0.885  0.2501  0.0277  0.0170
  304MOL   Cl3937005   6.934   2.525   0.884 -0.1518 -0.1466 -0.1496
  304MOL   Cl4037006   6.876   2.790   0.806 -0.4354  0.0953 -0.2889
  304MOL    C4137007   7.018   2.733   1.036 -0.2262 -0.3510  0.3930
  304MOL    H4237008   7.107   2.688   1.081  1.4101 -0.2030 -2.4934
  304MOL    H4337009   7.044   2.837   1.019  0.0362 -0.3980  0.4960
  304MOL    C4437010   6.913   2.720   1.153 -0.2384 -0.4841 -0.4794
  304MOL   Cl4537011   6.953   2.557   1.223  0.0226 -0.3158 -0.1612
  304MOL   Cl4637012   6.752   2.704   1.087 -0.1257  0.4104  0.0888
  304MOL    C4737013   6.920   2.844   1.251  0.1424  0.0271 -1.3742
  304MOL    H4837014   6.904   2.937   1.196 -2.4086  0.7108  0.4270
  304MOL    H4937015   6.830   2.847   1.312 -0.0467  0.0104 -1.6508
  304MOL    C5037016   7.034   2.890   1.347 -0.8935 -0.3566  0.2428
  304MOL   Cl5137017   6.982   3.042   1.421 -0.2454 -0.1385  0.1012
  304MOL   Cl5237018   7.180   2.911   1.256 -0.1100  0.0998  0.1752
  304MOL    C5337019   7.078   2.792   1.458  0.4756  0.2777 -0.3035
  304MOL    H5437020   7.101   2.708   1.392  1.5324  2.6026 -3.0260
  304MOL    H5537021   7.173   2.828   1.497 -0.4536  0.8294  1.5188
  304MOL    C5637022   7.000   2.747   1.583 -0.2580  0.6709 -0.1439
  304MOL   Cl5737023   6.844   2.677   1.530 -0.1413 -0.0944 -0.3275
  304MOL   Cl5837024   6.980   2.875   1.690 -0.1168 -0.2057  0.5345
  304MOL    C5937025   7.076   2.630   1.649 -0.1651  0.5237  0.0643
  304MOL    H6037026   7.049   2.540   1.594 -0.9601  1.3882 -0.9719
  304MOL    H6137027   7.183   2.643   1.634 -0.0145  3.7126  3.3060
  304MOL    C6237028   7.050   2.590   1.802  0.5088  0.3085  0.4799
  304MOL   Cl6337029   7.134   2.430   1.816 -0.1984  0.0625 -0.4365
  304MOL   Cl6437030   6.867   2.560   1.831  0.7234  0.2528  0.1767
  304MOL    C6537031   7.091   2.687   1.918 -0.0587  0.5397 -0.4188
  304MOL    H6637032   7.009   2.755   1.942  0.8849  1.2171  0.9420
  304MOL    H6737033   7.065   2.622   2.002 -0.9088  0.1661 -0.9677
  304MOL    C6837034   7.224   2.757   1.939 -0.1104  0.0657  0.2081
  304MOL   Cl6937035   7.277   2.863   1.804 -0.0223  0.2528 -0.0184
  304MOL   Cl7037036   7.337   2.620   1.937 -0.1917 -0.3039 -0.2098
  304MOL    C7137037   7.254   2.822   2.073  0.1629  0.6706 -0.3585
  304MOL    H7237038   7.257   2.741   2.146 -2.7649  0.5800 -0.2495
  304MOL    H7337039   7.353   2.867   2.065  0.1797  1.1004  2.1557
  304MOL    C7437040   7.156   2.924   2.139  0.0347  0.9798  0.5391
  304MOL   Cl7537041   7.034   2.823   2.224  0.2572  0.5255  0.0654
  304MOL   Cl7637042   7.084   3.036   2.018  0.1545  0.0743 -0.0981
  304MOL    C7737043   7.213   3.016   2.243 -0.4144  0.5800 -0.3913
  304MOL    H7837044   7.264   3.100   2.195 -0.5972  1.8685  1.6173
  304MOL    H7937045   7.128   3.051   2.301  1.1184  1.1160  1.6056
  304MOL    C8037046   7.320   2.974   2.350 -0.2312 -0.5984  0.7520
  304MOL   Cl8137047   7.483   2.940   2.273  0.0199  0.0710 -0.0359
  304MOL   Cl8237048   7.249   2.834   2.438  0.1152 -0.1982  0.2950
  304MOL    C8337049   7.356   3.088   2.453 -0.6180 -0.6033 -0.3676
  304MOL    H8437050   7.397   3.031   2.536  0.4980 -0.2694 -0.6788
  304MOL    H8537051   7.442   3.140   2.410 -1.0482  0.6414  0.2592
  304MOL    C8637052   7.256   3.184   2.519 -0.8711 -0.3699 -0.0362
  304MOL   Cl8737053   7.117   3.102   2.590  0.3905 -0.1569 -0.1649
  304MOL   Cl8837054   7.191   3.284   2.386 -0.3145 -0.4744  0.1924
  304MOL    C8937055   7.322   3.285   2.617  0.1183  0.2014  0.1128
  304MOL    H9037056   7.403   3.324   2.556  0.9529  0.1341  1.1516
  304MOL    H9137057   7.245   3.363   2.616 -1.0306 -0.9253 -2.5515
  304MOL    C9237058   7.374   3.253   2.763  0.1119  0.1626 -0.6113
  304MOL   Cl9337059   7.443   3.402   2.833 -0.3023 -0.0715  0.5131
  304MOL   Cl9437060   7.501   3.132   2.739 -0.3148  0.2704 -0.0630
  304MOL    C9537061   7.270   3.186   2.859 -0.7643 -0.4772 -0.1351
  304MOL    H9637062   7.176   3.232   2.827  0.8047  4.1026  1.4572
  304MOL    H9737063   7.262   3.080   2.832 -1.0398 -1.1592  2.4556
  304MOL    C9837064   7.291   3.200   3.016 -0.1239 -0.9016  0.4293
  304MOL   Cl9937065   7.229   3.362   3.069 -0.2919  0.4126 -0.0581
  304MOL  Cl10037066   7.464   3.186   3.056 -0.3281  0.3376  0.0089
  304MOL   C10137067   7.203   3.097   3.097 -0.2918  0.8205  0.1631
  304MOL   H10237068   7.193   3.138   3.197  0.4553 -1.4480  1.2154
  304MOL   H10337069   7.105   3.105   3.051  0.4897  1.7411 -1.3944
  304MOL   C10437070   7.242   2.946   3.106 -0.1005  0.5327 -0.0922
  304MOL  Cl10537071   7.377   2.920   3.213 -0.2797 -0.2135 -0.0820
  304MOL  Cl10637072   7.283   2.875   2.951  0.0096  0.0984 -0.1870
  304MOL   C10737073   7.118   2.867   3.157 -0.3999 -0.3867 -0.6981
  304MOL   H10837074   7.044   2.891   3.081  1.1881  0.2278 -2.1064
  304MOL   H10937075   7.140   2.761   3.140 -1.4428 -0.8383  0.7000
  304MOL   C11037076   7.050   2.874   3.300  0.2713  0.6110 -0.6925
  304MOL  Cl11137077   6.996   3.036   3.316 -0.1835  0.1623  0.0916
  304MOL  Cl11237078   7.156   2.832   3.438 -0.3819 -0.0603  0.1722
  304MOL   C11337079   6.922   2.777   3.303 -0.9099 -0.0831 -0.1605
  304MOL   H11437080   6.865   2.809   3.215  1.6710 -1.9708 -2.6177
  304MOL   H11537081   6.962   2.688   3.253 -0.0530  0.6663 -0.8288
  304MOL   C11637082   6.837   2.752   3.422 -0.3031  0.6905 -0.1902
  304MOL  Cl11737083   6.927   2.633   3.520  0.1815 -0.1830  0.1236
  304MOL  Cl11837084   6.685   2.678   3.364  0.1659  0.2546 -0.1773
  304MOL   C11937085   6.810   2.874   3.505 -0.4200  0.0818 -0.7819
  304MOL   H12037086   6.774   2.955   3.442 -2.8087  1.1099  1.7990
  304MOL   H12137087   6.742   2.849   3.587  1.3810  1.1337  1.0957
  304MOL   H12237088   6.905   2.902   3.550 -0.5046 -0.1044 -0.4855
  305MOL     C137089   1.549   0.167   0.739  0.1258  0.7047 -0.1963
  305MOL    Cl237090   1.413   0.185   0.860  0.2588  0.0420  0.5016
  305MOL    Cl337091   1.604   0.331   0.691  0.0418 -0.2475 -0.0205
  305MOL     C437092   1.657   0.076   0.794 -0.1790 -0.1011 -0.7309
  305MOL     H537093   1.748   0.106   0.743  0.6047  0.4237  0.9421
  305MOL     H637094   1.673   0.102   0.898 -1.5520  0.8113 -0.7251
  305MOL     H737095   1.502   0.120   0.653 -1.9080 -1.2804  1.9487
  305MOL     C837096   1.637   9.101   0.784  0.0240  0.2319  0.4594
  305MOL    Cl937097   1.605   9.059   0.613 -0.3646  0.2356  0.0068
  305MOL   Cl1037098   1.494   9.066   0.885  0.6701 -0.2952  0.2861
  305MOL    C1137099   1.766   9.024   0.826  0.1310  0.3594 -1.2160
  305MOL    H1237100   1.730   8.921   0.814 -2.5576  1.3264 -1.7314
  305MOL    H1337101   1.850   9.042   0.759 -1.5487  1.2142 -3.1101
  305MOL    C1437102   1.836   9.055   0.969  0.0251 -0.0433 -0.6047
  305MOL   Cl1537103   1.714   9.073   1.103 -0.2142  0.3061  0.0996
  305MOL   Cl1637104   1.924   0.032   0.958  0.4555  0.0898 -0.3209
  305MOL    C1737105   1.954   8.962   0.997 -0.1345 -0.0975  0.6408
  305MOL    H1837106   2.039   8.996   0.938 -0.2885  1.5447  1.3465
  305MOL    H1937107   1.978   8.982   1.101  0.0747 -0.4444  0.6630
  305MOL    C2037108   1.936   8.810   0.979  0.2933 -0.4505 -0.2539
  305MOL   Cl2137109   1.932   8.747   0.806 -0.4688  0.1137  0.1935
  305MOL   Cl2237110   1.785   8.756   1.057  0.1057 -0.0045  0.5246
  305MOL    C2337111   2.048   8.728   1.053 -0.4650  0.6440 -0.3248
  305MOL    H2437112   2.032   8.744   1.160 -1.7702  0.0845 -0.4397
  305MOL    H2537113   2.019   8.626   1.032 -1.4332  0.8384  0.0676
  305MOL    C2637114   2.202   8.745   1.030 -0.9220 -0.3213  0.3908
  305MOL   Cl2737115   2.257   8.902   1.100  0.3336  0.2101  0.2677
  305MOL   Cl2837116   2.237   8.761   0.852  0.1746  0.0615  0.0506
  305MOL    C2937117   2.298   8.632   1.076 -0.0925 -0.0587 -0.7038
  305MOL    H3037118   2.301   8.557   0.997  2.3931  0.5148 -1.2106
  305MOL    H3137119   2.394   8.683   1.066 -0.1273 -0.1333 -1.5017
  305MOL    C3237120   2.286   8.562   1.205 -0.6996  0.4395  0.2158
  305MOL   Cl3337121   2.413   8.444   1.217 -0.3269 -0.3866  0.0666
  305MOL   Cl3437122   2.133   8.469   1.215  0.4162  0.1250  0.0080
  305MOL    C3537123   2.292   8.662   1.328  0.4588  0.0848 -0.0921
  305MOL    H3637124   2.373   8.735   1.322  0.0909  0.8579  3.6174
  305MOL    H3737125   2.201   8.721   1.332  0.6088  0.2105  2.2404
  305MOL    C3837126   2.306   8.607   1.472 -0.6353 -0.3416  0.6747
  305MOL   Cl3937127   2.299   8.747   1.573  0.0905  0.0434  0.1367
  305MOL   Cl4037128   2.477   8.552   1.498 -0.0227  0.1769 -0.0844
  305MOL    C4137129   2.209   8.493   1.528  0.5813  0.6670 -0.1185
  305MOL    H4237130   2.108   8.529   1.506 -0.4314 -0.6096  2.1950
  305MOL    H4337131   2.231   8.408   1.463 -0.0231 -0.0621  0.6199
  305MOL    C4437132   2.213   8.435   1.674  0.0089  0.3653  0.0661
  305MOL   Cl4537133   2.224   8.565   1.804  0.1769  0.0498  0.0121
  305MOL   Cl4637134   2.352   8.319   1.697  0.2627  0.0573 -0.7596
  305MOL    C4737135   2.081   8.356   1.711  0.0497 -0.1279  0.0720
  305MOL    H4837136   2.086   8.318   1.813  0.5425  0.9650  0.4664
  305MOL    H4937137   2.011   8.436   1.735 -1.8938 -0.9617 -2.5767
  305MOL    C5037138   2.010   8.232   1.627  0.0439 -0.0185  0.5391
  305MOL   Cl5137139   2.126   8.121   1.576  0.3353  0.7384 -0.3381
  305MOL   Cl5237140   1.939   8.301   1.479  0.2498  0.0222 -0.1563
  305MOL    C5337141   1.901   8.168   1.709 -0.3856 -0.4720 -0.1956
  305MOL    H5437142   1.944   8.091   1.773  2.5946 -0.6204 -2.2837
  305MOL    H5537143   1.866   8.240   1.783 -0.2913 -0.0637 -0.5479
  305MOL    C5637144   1.771   8.109   1.649  0.2750  0.2780 -0.5350
  305MOL   Cl5737145   1.823   8.002   1.518 -0.4670  0.0763 -0.0241
  305MOL   Cl5837146   1.666   8.251   1.601  0.1061 -0.2885  0.3651
  305MOL    C5937147   1.705   8.023   1.761  0.1343 -0.1942  0.2454
  305MOL    H6037148   1.788   7.964   1.799 -0.5521 -1.3232  0.0069
  305MOL    H6137149   1.682   8.097   1.839 -0.1201  1.2127 -1.1234
  305MOL    C6237150   1.573   7.934   1.749  0.2238 -0.3887 -0.7389
  305MOL   Cl6337151   1.535   7.877   1.914  0.6146 -0.1270 -0.0994
  305MOL   Cl6437152   1.604   7.791   1.648 -0.0143 -0.0399 -0.4680
  305MOL    C6537153   1.456   8.022   1.693  0.5102  0.1868  0.5637
  305MOL    H6637154   1.457   8.117   1.747  1.8726  0.3243  0.3109
  305MOL    H6737155   1.485   8.048   1.591 -0.3677 -1.7741 -0.2023
  305MOL    C6837156   1.310   7.975   1.689 -0.0271  0.0295  0.4138
  305MOL   Cl6937157   1.228   8.113   1.609 -0.0662  0.0582 -0.8570
  305MOL   Cl7037158   1.244   7.954   1.843  0.3573 -0.0249 -0.3715
  305MOL    C7137159   1.285   7.844   1.600  0.2782  0.0980 -0.0153
  305MOL    H7237160   1.354   7.844   1.515 -0.5655  0.3087 -0.7115
  305MOL    H7337161   1.325   7.766   1.664  0.3198  0.4776  0.4290
  305MOL    C7437162   1.147   7.794   1.536  0.1317  0.1265 -0.6045
  305MOL   Cl7537163   1.169   7.622   1.490 -0.1263 -0.1924  0.6022
  305MOL   Cl7637164   1.129   7.888   1.381 -0.2004  0.1486 -0.0605
  305MOL    C7737165   1.018   7.795   1.628 -0.1847 -0.6145  0.7348
  305MOL    H7837166   1.028   7.709   1.693  3.9213  0.2960  1.4174
  305MOL    H7937167   1.016   7.880   1.696  1.0579 -0.1679  0.2304
  305MOL    C8037168   0.873   7.783   1.569  0.6697 -0.3256  0.0266
  305MOL   Cl8137169   0.779   7.757   1.724 -0.0783  0.0276  0.6827
  305MOL   Cl8237170   0.847   7.642   1.458  0.2621 -0.1332 -0.1155
  305MOL    C8337171   0.830   7.916   1.503 -0.6440  0.1239 -0.3488
  305MOL    H8437172   0.901   7.993   1.533  0.4231 -1.0088  0.0788
  305MOL    H8537173   0.868   7.895   1.403 -1.6499 -0.3742 -0.6255
  305MOL    C8637174   0.682   7.952   1.485 -0.8089 -0.0124  0.1981
  305MOL   Cl8737175   0.605   7.997   1.642  0.4538 -0.3493 -0.2633
  305MOL   Cl8837176   0.587   7.816   1.418  0.1976 -0.2636  0.0184
  305MOL    C8937177   0.648   8.068   1.384  0.4320  0.4895  0.1060
  305MOL    H9037178   0.659   8.019   1.287  0.2797 -0.4056  0.5377
  305MOL    H9137179   0.544   8.100   1.391  0.6614  1.9745 -2.4534
  305MOL    C9237180   0.725   8.205   1.379  0.1942 -0.4637  0.5372
  305MOL   Cl9337181   0.645   8.288   1.248  0.4479 -0.3516 -0.0810
  305MOL   Cl9437182   0.893   8.187   1.318  0.6010 -0.1852 -0.1632
  305MOL    C9537183   0.710   8.287   1.511 -0.1301 -0.2814 -0.5010
  305MOL    H9637184   0.603   8.296   1.524 -0.0328 -1.1314  1.0132
  305MOL    H9737185   0.743   8.223   1.593 -0.2021  0.8783  0.4448
  305MOL    C9837186   0.784   8.417   1.522 -1.0634  0.2332  0.6937
  305MOL   Cl9937187   0.960   8.383   1.550 -0.2438  0.2255 -0.0059
  305MOL  Cl10037188   0.734   8.488   1.675  0.0006 -0.3277  0.1331
  305MOL   C10137189   0.766   8.526   1.404 -0.4446  0.7040  0.1404
  305MOL   H10237190   0.804   8.477   1.314  0.2325  0.1049  0.7478
  305MOL   H10337191   0.660   8.547   1.396 -0.5128  1.3028  2.4274
  305MOL   C10437192   0.849   8.664   1.391 -0.7084  1.2037 -0.7907
  305MOL  Cl10537193   1.012   8.627   1.343 -0.3071  0.0726 -0.0523
  305MOL  Cl10637194   0.867   8.752   1.547  0.7480  0.0197  0.6679
  305MOL   C10737195   0.790   8.760   1.294 -0.0729  0.4308 -0.1635
  305MOL   H10837196   0.852   8.849   1.303  0.1953  0.3082 -0.7678
  305MOL   H10937197   0.821   8.735   1.193 -0.2985 -0.5442  0.0004
  305MOL   C11037198   0.638   8.793   1.292  0.6192  0.9655  0.3711
  305MOL  Cl11137199   0.566   8.804   1.456 -0.3034 -0.1180 -0.1972
  305MOL  Cl11237200   0.544   8.686   1.181 -0.1240 -0.1621 -0.1749
  305MOL   C11337201   0.601   8.931   1.235  0.1634  0.2434  0.5471
  305MOL   H11437202   0.496   8.957   1.248  0.4275  3.3089 -2.5583
  305MOL   H11537203   0.657   9.001   1.297 -0.4516 -0.6079  2.0602
  305MOL   C11637204   0.636   8.983   1.091  0.7566 -0.1647  0.0104
  305MOL  Cl11737205   0.815   8.999   1.061  0.1350 -0.0286 -0.0849
  305MOL  Cl11837206   0.572   9.144   1.084 -0.1386 -0.3812  0.2464
  305MOL   C11937207   0.578   8.907   0.975 -0.1463  0.8149 -0.2663
  305MOL   H12037208   0.621   8.942   0.881 -1.0350  1.4566 -0.4472
  305MOL   H12137209   0.604   8.801   0.970 -0.4354  0.7265  0.0846
  305MOL   H12237210   0.469   8.901   0.976 -0.0033 -3.4565 -1.0811
  306MOL     C137211   6.894   6.463   4.976 -0.3523  0.4223 -0.0088
  306MOL    Cl237212   6.805   6.581   5.077 -0.2867 -0.1493  0.1166
  306MOL    Cl337213   6.832   6.300   5.024  0.3893 -0.2300  0.0399
  306MOL     C437214   6.875   6.473   4.831  0.3356  0.3610 -0.5295
  306MOL     H537215   6.935   6.397   4.781  0.4749 -0.1529  0.4142
  306MOL     H637216   6.771   6.448   4.812  0.8984 -3.2034  0.7323
  306MOL     H737217   6.998   6.463   5.007 -0.2172  0.4143 -0.4601
  306MOL     C837218   6.911   6.609   4.763  0.3468 -0.3453  0.0704
  306MOL    Cl937219   6.784   6.731   4.803 -0.2974 -0.0565 -0.3050
  306MOL   Cl1037220   6.914   6.593   4.586 -0.1104 -0.0596 -0.2031
  306MOL    C1137221   7.040   6.673   4.817  0.2712 -0.2554 -0.0721
  306MOL    H1237222   7.047   6.773   4.775  1.2519 -0.3233 -0.0873
  306MOL    H1337223   7.027   6.695   4.923  2.8144  3.3884 -0.4383
  306MOL    C1437224   7.183   6.615   4.798 -0.5330 -0.2668  0.0908
  306MOL   Cl1537225   7.223   6.646   4.629  0.0745 -0.3803  0.0310
  306MOL   Cl1637226   7.189   6.441   4.829  0.1217  0.1016 -0.0781
  306MOL    C1737227   7.294   6.670   4.899 -0.5307 -0.3244  0.3656
  306MOL    H1837228   7.252   6.638   4.994 -2.8950  0.7368 -0.2516
  306MOL    H1937229   7.383   6.609   4.886  1.1613  2.1210 -0.0913
  306MOL    C2037230   7.316   6.824   4.914  1.0289 -0.1138  0.1253
  306MOL   Cl2137231   7.405   6.836   5.072 -0.1284  0.3567 -0.0379
  306MOL   Cl2237232   7.160   6.913   4.942  0.1111 -0.1990  0.0293
  306MOL    C2337233   7.393   6.895   4.793  0.0898  0.4075  0.9454
  306MOL    H2437234   7.491   6.850   4.781 -1.4810 -2.2272 -3.1257
  306MOL    H2537235   7.341   6.867   4.701  0.6637  1.0407  0.4193
  306MOL    C2637236   7.412   7.051   4.786 -0.0485 -0.1472 -1.4586
  306MOL   Cl2737237   7.258   7.104   4.710 -0.0314  0.0764  0.0188
  306MOL   Cl2837238   7.547   7.078   4.676 -0.2653 -0.1425  0.0598
  306MOL    C2937239   7.429   7.118   4.930  0.0195  0.4180 -0.1706
  306MOL    H3037240   7.327   7.110   4.967  0.2168 -0.1429  0.2510
  306MOL    H3137241   7.494   7.060   4.994 -1.2914  1.1278  1.8515
  306MOL    C3237242   7.469   7.269   4.934  0.3571  0.8784 -0.4113
  306MOL   Cl3337243   7.388   7.365   4.806 -0.0259 -0.6096  0.0661
  306MOL   Cl3437244   7.641   7.286   4.914  0.2545 -0.3192  0.1757
  306MOL    C3537245   7.435   7.338   5.070  0.3082 -1.0148 -0.8241
  306MOL    H3637246   7.482   7.437   5.064  1.3472 -1.4919 -0.6713
  306MOL    H3737247   7.327   7.341   5.081  0.3895  0.2061 -0.2506
  306MOL    C3837248   7.466   7.281   5.208 -0.2326 -0.5871  0.1602
  306MOL   Cl3937249   7.637   7.244   5.234 -0.3067 -0.5408  0.4596
  306MOL   Cl4037250   7.386   7.126   5.239 -0.0719 -0.2774  0.4374
  306MOL    C4137251   7.434   7.377   5.327  0.3694 -0.0954 -0.7932
  306MOL    H4237252   7.441   7.311   5.414 -2.4184 -3.0131 -2.6400
  306MOL    H4337253   7.511   7.451   5.349 -1.6042  1.5383  0.7477
  306MOL    C4437254   7.302   7.454   5.345 -0.0491 -0.0942  0.1644
  306MOL   Cl4537255   7.160   7.358   5.295  0.5110 -0.0224  0.0699
  306MOL   Cl4637256   7.318   7.597   5.228  0.2402  0.1909 -0.6216
  306MOL    C4737257   7.261   7.510   5.485  0.5543 -0.4245  0.3356
  306MOL    H4837258   7.173   7.574   5.475  0.7577  0.0279  1.4094
  306MOL    H4937259   7.223   7.429   5.547 -2.5100 -0.6616 -1.7185
  306MOL    C5037260   7.359   7.601   5.570 -0.5493  0.5647  0.2630
  306MOL   Cl5137261   7.431   7.728   5.471 -0.3543 -0.1089  0.0233
  306MOL   Cl5237262   7.500   7.504   5.618 -0.1051 -0.1125  0.0072
  306MOL    C5337263   7.294   7.666   5.697  0.6073 -0.2539 -0.3133
  306MOL    H5437264   7.329   7.613   5.786  0.6220  2.3944  1.3167
  306MOL    H5537265   7.346   7.761   5.713 -0.3366  0.1447  0.4570
  306MOL    C5637266   7.139   7.708   5.702 -0.1050  0.9971 -0.2489
  306MOL   Cl5737267   7.020   7.575   5.707  0.1925 -0.4899  0.1119
  306MOL   Cl5837268   7.090   7.810   5.559 -0.3230  0.2852 -0.1704
  306MOL    C5937269   7.111   7.812   5.820 -0.1133  0.0770 -0.3755
  306MOL    H6037270   7.147   7.914   5.806  1.8690 -0.2436  2.0977
  306MOL    H6137271   7.002   7.821   5.816 -0.3204 -2.1932 -0.5488
  306MOL    C6237272   7.157   7.783   5.963 -0.3979  0.6732  0.8902
  306MOL   Cl6337273   7.339   7.816   5.968  0.1779 -0.0819  0.2386
  306MOL   Cl6437274   7.136   7.613   6.006  0.2988  0.1569 -0.4123
  306MOL    C6537275   7.080   7.874   6.063  0.3103 -0.6405  0.2347
  306MOL    H6637276   7.117   7.977   6.061  1.1553 -0.9537 -2.2427
  306MOL    H6737277   6.978   7.869   6.024  0.3226 -0.3108  0.1521
  306MOL    C6837278   7.095   7.832   6.215 -0.1497  0.0299 -0.1812
  306MOL   Cl6937279   6.968   7.704   6.233  0.0904 -0.4513 -0.3300
  306MOL   Cl7037280   7.037   7.972   6.316  0.3867 -0.1506  0.2958
  306MOL    C7137281   7.237   7.796   6.269  0.1209 -1.2164  0.3318
  306MOL    H7237282   7.272   7.715   6.205 -1.3736  0.4708 -2.7596
  306MOL    H7337283   7.303   7.878   6.239 -1.5214 -0.0967 -0.2849
  306MOL    C7437284   7.266   7.757   6.420 -0.3506  0.0475 -0.4787
  306MOL   Cl7537285   7.295   7.914   6.499 -0.0628 -0.2953 -0.2610
  306MOL   Cl7637286   7.429   7.688   6.431 -0.3125 -0.1121  0.2455
  306MOL    C7737287   7.166   7.659   6.496 -0.3981 -0.1022 -0.1050
  306MOL    H7837288   7.073   7.714   6.509  0.3457  0.6168  2.5795
  306MOL    H7937289   7.152   7.574   6.429  2.0516  0.0771 -0.9319
  306MOL    C8037290   7.194   7.605   6.645 -0.2044 -0.8342 -0.6109
  306MOL   Cl8137291   7.213   7.745   6.757 -0.0689  0.0168  0.3304
  306MOL   Cl8237292   7.342   7.508   6.656  0.2288  0.0781  0.0918
  306MOL    C8337293   7.086   7.518   6.712 -0.0389 -0.0964  0.2262
  306MOL    H8437294   7.136   7.481   6.802 -0.5970  1.2590  1.1230
  306MOL    H8537295   6.999   7.574   6.748 -0.6980 -0.2770 -1.0796
  306MOL    C8637296   7.023   7.404   6.635 -0.3415  0.2992  0.8561
  306MOL   Cl8737297   7.141   7.293   6.543 -0.1071 -0.1211 -0.3851
  306MOL   Cl8837298   6.902   7.483   6.518  0.1980 -0.0468 -0.3318
  306MOL    C8937299   6.937   7.307   6.722  0.1328 -0.3639 -0.1116
  306MOL    H9037300   6.894   7.254   6.637  0.8001 -1.8870  0.4755
  306MOL    H9137301   7.000   7.232   6.770  0.9538  2.3029  3.1550
  306MOL    C9237302   6.826   7.352   6.826  0.6280  0.4654 -0.5961
  306MOL   Cl9337303   6.728   7.494   6.773 -0.0948 -0.0373  0.1086
  306MOL   Cl9437304   6.922   7.415   6.969  0.0202 -0.0401  0.4067
  306MOL    C9537305   6.740   7.236   6.895 -0.0855  0.0850 -0.8383
  306MOL    H9637306   6.806   7.195   6.971  0.4696 -1.0095 -1.9016
  306MOL    H9737307   6.666   7.295   6.950  0.0863  1.0574 -1.6297
  306MOL    C9837308   6.669   7.122   6.823  0.3329 -0.5634 -0.2508
  306MOL   Cl9937309   6.787   7.025   6.736  0.2030  0.1564  0.4403
  306MOL  Cl10037310   6.562   7.203   6.704  0.0735  0.3176 -0.2237
  306MOL   C10137311   6.593   7.026   6.917  0.3426  0.8956 -0.2516
  306MOL   H10237312   6.556   6.949   6.849 -2.1586 -0.8830  2.9589
  306MOL   H10337313   6.664   6.964   6.973 -0.5577 -1.3718 -1.5133
  306MOL   C10437314   6.479   7.065   7.022 -0.6200  0.5410 -0.0482
  306MOL  Cl10537315   6.565   7.125   7.167 -0.0831  0.1307  0.2844
  306MOL  Cl10637316   6.398   6.908   7.071 -0.2389 -0.0866  0.2361
  306MOL   C10737317   6.378   7.177   6.969  0.3381  0.0245 -0.7769
  306MOL   H10837318   6.441   7.265   6.958  0.2078 -0.1097 -2.6226
  306MOL   H10937319   6.354   7.154   6.866  2.7912  1.0336 -1.6064
  306MOL   C11037320   6.251   7.215   7.057  0.5307  0.2828  0.5329
  306MOL  Cl11137321   6.295   7.260   7.225 -0.1125 -0.7320  0.1796
  306MOL  Cl11237322   6.142   7.076   7.073  0.2304  0.0151  0.6698
  306MOL   C11337323   6.171   7.325   6.987  0.9647  0.5764  0.0897
  306MOL   H11437324   6.119   7.299   6.894 -1.8066  2.0441  1.1469
  306MOL   H11537325   6.092   7.353   7.057  1.2708  1.7703 -0.0296
  306MOL   C11637326   6.240   7.458   6.949 -0.2019 -0.3153  0.6861
  306MOL  Cl11737327   6.112   7.566   6.896  0.1135 -0.0669 -0.2755
  306MOL  Cl11837328   6.345   7.441   6.799 -0.0340  0.1513  0.0498
  306MOL   C11937329   6.321   7.529   7.061  0.0429  0.4364  0.3934
  306MOL   H12037330   6.408   7.468   7.085 -0.4643 -0.0950  0.8910
  306MOL   H12137331   6.342   7.629   7.023 -2.2408  0.6072 -0.5222
  306MOL   H12237332   6.266   7.546   7.153 -1.5676  1.2388 -0.6863
  307MOL     C137333   9.071   0.161   6.654 -0.4781  0.6868 -0.5683
  307MOL    Cl237334   9.177   0.284   6.729  0.0524  0.0597  0.3873
  307MOL    Cl337335   8.969   0.226   6.521 -0.4956  0.0459  0.4629
  307MOL     C437336   9.174   0.050   6.612 -0.8716 -0.3218  0.0273
  307MOL     H537337   0.023   0.071   6.510  0.3025  1.9953  0.8068
  307MOL     H637338   0.082   0.054   6.675  0.7908 -1.3476 -2.1856
  307MOL     H737339   9.010   0.118   6.734  2.2411 -3.3295 -0.5443
  307MOL     C837340   9.132   9.085   6.636  0.7829  0.2259  0.2014
  307MOL    Cl937341   8.989   9.059   6.541 -0.4328 -0.0213 -0.6414
  307MOL   Cl1037342   9.080   9.075   6.813  0.1386 -0.4053  0.1996
  307MOL    C1137343   0.068   8.990   6.598 -0.1978  0.3890 -0.2289
  307MOL    H1237344   0.084   9.000   6.491  1.2921 -3.4214 -0.4133
  307MOL    H1337345   0.154   9.022   6.656  0.7471  0.3318 -1.5819
  307MOL    C1437346   0.056   8.828   6.619 -0.7426  0.2917 -0.0800
  307MOL   Cl1537347   0.206   8.770   6.543 -0.0599  0.0334 -0.0008
  307MOL   Cl1637348   9.106   8.769   6.507 -0.1217  0.2802 -0.0802
  307MOL    C1737349   0.024   8.777   6.764 -0.1960  0.1885 -0.7506
  307MOL    H1837350   0.076   8.833   6.842 -0.9155  0.5468 -0.5279
  307MOL    H1937351   9.097   8.782   6.780 -0.2315 -0.7737 -0.6780
  307MOL    C2037352   0.056   8.637   6.806 -0.2841  0.4700 -0.7996
  307MOL   Cl2137353   0.227   8.596   6.819  0.1541  0.0501  0.3375
  307MOL   Cl2237354   9.176   8.517   6.687 -0.3909 -0.3563 -0.2095
  307MOL    C2337355   9.167   8.589   6.943 -0.7130 -0.9901 -0.3626
  307MOL    H2437356   9.061   8.588   6.918 -0.5979 -1.8349 -0.8386
  307MOL    H2537357   0.019   8.485   6.944  0.3415 -0.6687  0.1869
  307MOL    C2637358   0.010   8.661   7.078 -0.0284  0.7276  0.1370
  307MOL   Cl2737359   9.120   8.825   7.064  0.1152  0.1458  0.4028
  307MOL   Cl2837360   0.178   8.675   7.109  0.2008  0.1417  0.1628
  307MOL    C2937361   9.106   8.577   7.176  0.0415  0.1483  0.6016
  307MOL    H3037362   9.006   8.544   7.148 -0.4936  0.3328  2.2405
  307MOL    H3137363   9.157   8.480   7.183  0.3194  0.4557  3.8241
  307MOL    C3237364   9.072   8.627   7.321  0.0660 -0.3366 -0.4554
  307MOL   Cl3337365   9.003   8.483   7.399  0.5160 -0.0662 -0.0259
  307MOL   Cl3437366   8.929   8.744   7.300  0.1452  0.0026 -0.0010
  307MOL    C3537367   0.011   8.697   7.389  0.6750  0.0348  0.4772
  307MOL    H3637368   0.099   8.633   7.387 -0.3607 -1.5163  2.9139
  307MOL    H3737369   0.039   8.788   7.335  2.2213  0.0887  1.3532
  307MOL    C3837370   9.175   8.740   7.531  0.4339  0.3365 -0.3213
  307MOL   Cl3937371   9.039   8.848   7.566  0.2438  0.0755  0.4615
  307MOL   Cl4037372   0.133   8.844   7.570  0.1914 -0.3567  0.2988
  307MOL    C4137373   9.162   8.625   7.625 -0.3268  0.0230 -0.3706
  307MOL    H4237374   9.057   8.594   7.633 -0.1185 -0.8041 -0.7594
  307MOL    H4337375   0.023   8.536   7.576 -1.7387 -1.3303  0.8426
  307MOL    C4437376   0.035   8.633   7.769  0.5765  1.0622 -0.2159
  307MOL   Cl4537377   9.139   8.499   7.865  0.2764  0.0874 -0.1170
  307MOL   Cl4637378   9.155   8.772   7.860 -0.1515 -0.0384  0.7003
  307MOL    C4737379   0.188   8.617   7.801 -0.1055 -0.0455  0.6223
  307MOL    H4837380   0.231   8.702   7.748  0.0327 -0.2081  0.4758
  307MOL    H4937381   0.191   8.636   7.908 -0.6224 -0.0249  0.6357
  307MOL    C5037382   0.277   8.494   7.753 -0.0194  0.3652  0.2720
  307MOL   Cl5137383   0.275   8.482   7.578 -0.0486  0.3889 -0.4232
  307MOL   Cl5237384   0.219   8.344   7.808 -0.7650 -0.0695  0.2874
  307MOL    C5337385   0.426   8.514   7.790 -0.2031 -0.7443  0.4580
  307MOL    H5437386   0.478   8.422   7.763 -1.3206 -1.1243 -0.4632
  307MOL    H5537387   0.463   8.585   7.717 -0.4419 -0.7210  0.3605
  307MOL    C5637388   0.477   8.566   7.933 -0.3557  1.0332  0.5532
  307MOL   Cl5737389   0.394   8.463   8.058 -0.0137  0.9025 -0.0542
  307MOL   Cl5837390   0.434   8.737   7.960  0.2604  0.2254  0.1932
  307MOL    C5937391   0.635   8.540   7.956 -0.5291 -0.2913 -0.0079
  307MOL    H6037392   0.654   8.561   8.061  0.2480 -0.3680 -0.1316
  307MOL    H6137393   0.657   8.433   7.946  0.9722  0.0926 -0.9357
  307MOL    C6237394   0.748   8.620   7.879  0.1980 -0.2591  0.3107
  307MOL   Cl6337395   0.732   8.590   7.709  0.2380  0.2412  0.1586
  307MOL   Cl6437396   0.901   8.543   7.942 -0.0251 -0.1149 -0.0841
  307MOL    C6537397   0.753   8.767   7.916  0.0641  0.2685  0.4644
  307MOL    H6637398   0.655   8.812   7.899 -1.4907 -3.3269 -0.6562
  307MOL    H6737399   0.769   8.770   8.024  1.2307  0.4431  0.2852
  307MOL    C6837400   0.857   8.861   7.853  0.2867  0.5735  0.2977
  307MOL   Cl6937401   0.866   9.008   7.953  0.4879 -0.0569 -0.4056
  307MOL   Cl7037402   0.772   8.906   7.699 -0.3256  0.0278  0.3607
  307MOL    C7137403   1.007   8.806   7.830  0.0999 -0.4152  0.2817
  307MOL    H7237404   1.042   8.769   7.927  2.0508  2.6534  0.8316
  307MOL    H7337405   1.001   8.728   7.754  3.1340 -0.6503  0.2251
  307MOL    C7437406   1.116   8.895   7.770 -0.3793 -0.0013  0.4450
  307MOL   Cl7537407   1.249   8.786   7.736 -0.4792 -0.5472 -0.0703
  307MOL   Cl7637408   1.170   9.017   7.894 -0.3434  0.0023 -0.1694
  307MOL    C7737409   1.079   8.964   7.637  0.0076  0.2878  0.2658
  307MOL    H7837410   1.036   8.878   7.584  1.6509  0.7685 -1.9141
  307MOL    H7937411   1.004   9.039   7.656  0.0071  0.3427  0.0469
  307MOL    C8037412   1.176   9.024   7.536  0.7568 -0.0483  0.8543
  307MOL   Cl8137413   1.068   9.136   7.450 -0.3601  0.4709  0.1925
  307MOL   Cl8237414   1.245   8.908   7.423 -0.3159 -0.5489 -0.3354
  307MOL    C8337415   1.288   9.113   7.598  0.1218 -1.0140 -0.2549
  307MOL    H8437416   1.239   0.021   7.638  0.7297 -0.6465 -0.3029
  307MOL    H8537417   1.316   9.068   7.693 -0.4561 -1.2884 -0.2139
  307MOL    C8637418   1.417   9.170   7.526  0.2151 -0.9777  0.1833
  307MOL   Cl8737419   1.539   9.035   7.522 -0.0017  0.4529  0.2454
  307MOL   Cl8837420   1.479   0.117   7.632  0.4704  0.1802 -0.0837
  307MOL    C8937421   1.380   0.048   7.387 -0.1347 -0.9910 -0.6658
  307MOL    H9037422   1.305   9.168   7.335 -0.0780 -0.2890 -1.5656
  307MOL    H9137423   1.316   0.134   7.404 -0.6788 -1.6092  0.4609
  307MOL    C9237424   1.478   0.091   7.282  0.7114  0.0458 -1.1826
  307MOL   Cl9337425   1.558   9.115   7.225  0.4714 -0.0807 -0.5514
  307MOL   Cl9437426   1.603   0.200   7.355 -0.2588 -0.2778  0.0055
  307MOL    C9537427   1.421   0.159   7.156 -0.1461  0.1203 -0.2525
  307MOL    H9637428   1.427   0.267   7.166  1.8959 -0.0576  0.5291
  307MOL    H9737429   1.502   0.135   7.087 -0.3050 -2.1108  0.2936
  307MOL    C9837430   1.279   0.135   7.098  0.4244  0.2322 -0.1763
  307MOL   Cl9937431   1.157   0.192   7.215 -0.1519 -0.1792  0.3002
  307MOL  Cl10037432   1.265   9.145   7.072 -0.1479  0.2806 -0.0981
  307MOL   C10137433   1.252   0.196   6.956 -0.5132 -0.9067 -0.6011
  307MOL   H10237434   1.293   0.140   6.872 -0.8125 -1.1117 -0.6111
  307MOL   H10337435   1.146   0.175   6.943 -1.1359  1.0244  1.1275
  307MOL   C10437436   1.294   0.344   6.935 -0.1380  0.0956  0.3199
  307MOL  Cl10537437   1.474   0.349   6.910  0.2235 -0.4800 -0.2026
  307MOL  Cl10637438   1.245   0.454   7.066  0.0318 -0.1774  0.4205
  307MOL   C10737439   1.242   0.412   6.806 -0.1927  0.3172 -0.1066
  307MOL   H10837440   1.145   0.452   6.836 -0.5479 -0.4954 -0.1651
  307MOL   H10937441   1.299   0.504   6.791  0.3551  0.0328  0.2095
  307MOL   C11037442   1.221   0.336   6.666 -0.2308  0.2049  0.0868
  307MOL  Cl11137443   1.103   0.202   6.683 -0.0205 -0.3945 -0.4826
  307MOL  Cl11237444   1.379   0.268   6.619  0.0565 -0.0276 -0.0647
  307MOL   C11337445   1.176   0.442   6.566 -0.3705  0.3690 -0.5452
  307MOL   H11437446   1.085   0.491   6.601 -0.7955  0.3204 -1.5671
  307MOL   H11537447   1.252   0.520   6.556 -1.8056  1.6497 -1.7270
  307MOL   C11637448   1.129   0.400   6.426 -0.1477  0.2475 -0.5368
  307MOL  Cl11737449   1.095   0.546   6.339  0.0439 -0.2326 -0.0430
  307MOL  Cl11837450   0.977   0.309   6.438 -0.4145  0.2614 -0.0273
  307MOL   C11937451   1.233   0.326   6.338  0.3464 -0.4023 -0.7739
  307MOL   H12037452   1.207   0.318   6.232 -0.4075 -0.7593 -0.5618
  307MOL   H12137453   1.332   0.372   6.335  0.2322  0.1194  1.9611
  307MOL   H12237454   1.243   0.224   6.375 -2.4604 -0.1536  0.8238
  308MOL     C137455   0.200   7.967   1.364  0.3442 -0.1177  0.1578
  308MOL    Cl237456   0.266   8.040   1.514  0.1587  0.2881 -0.0729
  308MOL    Cl337457   0.099   7.824   1.421  0.1379  0.3410 -0.1143
  308MOL     C437458   0.118   8.062   1.276  0.4911  1.4446 -0.3761
  308MOL     H537459   0.055   8.004   1.208  1.3726 -0.7071  0.5996
  308MOL     H637460   0.052   8.109   1.350 -0.6079  1.1846 -1.1709
  308MOL     H737461   0.288   7.919   1.321  0.2900  1.5606 -1.9213
  308MOL     C837462   0.188   8.165   1.191  0.2982  0.2852 -0.0160
  308MOL    Cl937463   0.329   8.086   1.124  0.2584  0.0851 -0.0658
  308MOL   Cl1037464   0.264   8.285   1.298 -0.7379 -0.1447 -0.0920
  308MOL    C1137465   0.105   8.221   1.072 -0.0494 -0.3868  0.3439
  308MOL    H1237466   0.166   8.274   0.999 -0.9479 -1.5444 -1.2958
  308MOL    H1337467   0.065   8.139   1.012  2.5979 -1.8121  0.4510
  308MOL    C1437468   9.177   8.327   1.094  0.1737 -0.8689 -0.2327
  308MOL   Cl1537469   9.077   8.264   1.221  0.1916  0.1329  0.5461
  308MOL   Cl1637470   9.090   8.330   0.938  0.0925  0.5355  0.1891
  308MOL    C1737471   0.055   8.469   1.135  0.4251 -0.2831 -0.0805
  308MOL    H1837472   0.085   8.463   1.240 -0.5236 -0.1299  0.2041
  308MOL    H1937473   0.149   8.494   1.086  0.8812 -1.2423  0.2887
  308MOL    C2037474   9.135   8.596   1.143 -0.2235 -0.1539 -0.3920
  308MOL   Cl2137475   8.974   8.536   1.193 -0.0398 -0.0000 -0.1881
  308MOL   Cl2237476   9.105   8.665   0.983 -0.1897 -0.3154  0.0551
  308MOL    C2337477   9.173   8.719   1.234 -0.1440 -0.6138 -0.1544
  308MOL    H2437478   9.114   8.807   1.206 -0.2235 -0.5041  0.3501
  308MOL    H2537479   9.137   8.680   1.330 -1.2931 -0.6312 -0.5830
  308MOL    C2637480   0.142   8.761   1.257 -0.4633  0.0813 -0.1140
  308MOL   Cl2737481   0.211   8.798   1.102  0.0297  0.1283 -0.2761
  308MOL   Cl2837482   0.246   8.631   1.321 -0.0075  0.3632 -0.2314
  308MOL    C2937483   0.171   8.889   1.340  0.1201 -0.3514 -0.4366
  308MOL    H3037484   0.274   8.920   1.324  0.3168 -1.8220 -2.1331
  308MOL    H3137485   0.127   8.973   1.285  0.9743 -0.3657 -1.1434
  308MOL    C3237486   0.124   8.903   1.490 -0.1719 -0.0681 -0.0409
  308MOL   Cl3337487   0.201   8.785   1.595  0.1201  0.0970  0.6169
  308MOL   Cl3437488   9.130   8.877   1.508 -0.3590  0.0199 -0.1591
  308MOL    C3537489   0.157   9.040   1.560  0.0523  0.1506 -0.8732
  308MOL    H3637490   0.104   9.019   1.653  0.3500 -0.6615 -0.8783
  308MOL    H3737491   0.264   9.042   1.577 -0.1971 -0.9882  0.9403
  308MOL    C3837492   0.134   0.001   1.501  0.1441  0.5216 -0.0129
  308MOL   Cl3937493   9.151   0.007   1.409 -0.2253 -0.0848 -0.6081
  308MOL   Cl4037494   0.266   0.027   1.386  0.0751  0.0349  0.3099
  308MOL    C4137495   0.130   0.119   1.610 -0.0711 -0.8301  0.8154
  308MOL    H4237496   0.103   0.214   1.563  2.1874 -0.0172  1.1035
  308MOL    H4337497   0.044   0.090   1.670 -2.7426  1.1532 -1.8444
  308MOL    C4437498   0.254   0.144   1.711  0.4814  0.2962  0.2376
  308MOL   Cl4537499   0.417   0.141   1.644  0.3348 -0.1538 -0.2132
  308MOL   Cl4637500   0.253   0.020   1.840  0.0922 -0.1245  0.5970
  308MOL    C4737501   0.225   0.280   1.775  0.0015  0.1681  0.0805
  308MOL    H4837502   0.219   0.359   1.700 -2.6418 -0.0237  0.0337
  308MOL    H4937503   0.126   0.271   1.819 -0.4564  0.0333 -0.9609
  308MOL    C5037504   0.311   0.345   1.889  0.3465 -0.1627  0.1529
  308MOL   Cl5137505   0.222   0.500   1.920  0.2219 -0.0265  0.1009
  308MOL   Cl5237506   0.473   0.397   1.830 -0.1546  0.2726  0.2165
  308MOL    C5337507   0.335   0.264   2.025 -0.8611  0.3234 -0.3355
  308MOL    H5437508   0.389   0.172   2.001  1.7991  1.8901 -0.5327
  308MOL    H5537509   0.414   0.321   2.073  0.0730 -0.6188 -0.7447
  308MOL    C5637510   0.226   0.237   2.136 -0.4192 -0.0525 -0.2794
  308MOL   Cl5737511   0.074   0.184   2.067 -0.1179  0.1731  0.0186
  308MOL   Cl5837512   0.196   0.382   2.242 -0.3530  0.0479  0.4537
  308MOL    C5937513   0.274   0.124   2.227  0.5442 -0.1069 -0.3856
  308MOL    H6037514   0.294   0.034   2.168  0.4213 -1.1894  1.1836
  308MOL    H6137515   0.367   0.152   2.276 -0.3138  0.2676  1.0477
  308MOL    C6237516   0.190   0.062   2.346 -0.1277 -0.5667  0.0448
  308MOL   Cl6337517   0.309   9.125   2.417 -0.5824 -0.3544  0.2080
  308MOL   Cl6437518   0.058   9.145   2.281 -0.2407  0.2230 -0.2808
  308MOL    C6537519   0.133   0.154   2.456 -0.2002  0.5852 -0.7157
  308MOL    H6637520   0.075   0.236   2.413 -1.2538  0.2195 -0.0087
  308MOL    H6737521   0.053   0.102   2.509  1.3052 -1.2835 -0.2194
  308MOL    C6837522   0.225   0.226   2.561  0.2361 -0.0851  0.2841
  308MOL   Cl6937523   0.367   0.307   2.483 -0.3896 -0.2927 -0.4132
  308MOL   Cl7037524   0.282   0.106   2.690 -0.2638  0.1281 -0.3217
  308MOL    C7137525   0.150   0.343   2.633 -0.4738 -0.4324 -0.1877
  308MOL    H7237526   0.216   0.360   2.719 -0.2600 -2.3440  0.0516
  308MOL    H7337527   0.162   0.419   2.556 -1.0349 -1.1494 -0.9785
  308MOL    C7437528   9.173   0.333   2.677 -0.3287  0.6653 -0.3335
  308MOL   Cl7537529   9.113   0.193   2.768 -0.3645 -0.1599 -0.2989
  308MOL   Cl7637530   9.058   0.350   2.545 -0.0541  0.4517 -0.3484
  308MOL    C7737531   9.134   0.452   2.770 -0.3806  0.2439 -0.3372
  308MOL    H7837532   9.026   0.449   2.786 -0.5765 -0.7030 -1.7387
  308MOL    H7937533   9.178   0.425   2.866 -2.5737  1.3657  1.0300
  308MOL    C8037534   9.169   0.596   2.731 -0.1749 -0.1197 -0.4196
  308MOL   Cl8137535   0.161   0.623   2.753  0.0834 -0.0190  0.3593
  308MOL   Cl8237536   9.114   0.692   2.867 -0.1965 -0.0928 -0.0306
  308MOL    C8337537   9.139   0.657   2.586  0.1784  0.0663 -0.1397
  308MOL    H8437538   0.020   0.744   2.563  0.1285  0.3073  0.6485
  308MOL    H8537539   9.166   0.586   2.507 -0.0188 -0.1898  0.0229
  308MOL    C8637540   8.995   0.706   2.557  0.9778  0.1656  0.3809
  308MOL   Cl8737541   8.871   0.605   2.640  0.1115 -0.1852  0.2017
  308MOL   Cl8837542   8.947   0.685   2.384 -0.0982 -0.6689 -0.2607
  308MOL    C8937543   8.959   0.850   2.602 -0.4424  0.4852 -0.2398
  308MOL    H9037544   8.854   0.870   2.581 -0.8856 -0.1156  1.3252
  308MOL    H9137545   8.958   0.841   2.711 -2.6882 -0.8310 -0.3380
  308MOL    C9237546   9.044   0.971   2.558 -0.1635 -0.0696 -0.3334
  308MOL   Cl9337547   9.067   0.970   2.381  0.2999 -0.0950 -0.1324
  308MOL   Cl9437548   0.018   0.970   2.647 -0.0512 -0.1229  0.0947
  308MOL    C9537549   8.955   1.095   2.596  0.1968  0.1630 -0.4372
  308MOL    H9637550   8.883   1.094   2.514  1.5866  1.1173 -1.6908
  308MOL    H9737551   8.898   1.067   2.685 -1.0005 -0.7381 -1.4786
  308MOL    C9837552   9.023   1.230   2.633 -0.1821  0.0366 -0.3419
  308MOL   Cl9937553   9.160   1.264   2.525 -0.1036  0.1644 -0.2736
  308MOL  Cl10037554   9.091   1.218   2.798 -0.0950  0.1960 -0.3394
  308MOL   C10137555   8.916   1.345   2.623  1.1962 -0.9762  0.6795
  308MOL   H10237556   8.965   1.431   2.670 -1.3277  1.5677 -1.1530
  308MOL   H10337557   8.911   1.379   2.520 -0.8008 -2.0143  0.4118
  308MOL   C10437558   8.768   1.332   2.692  0.7333  0.3454 -0.2450
  308MOL  Cl10537559   8.771   1.223   2.840 -0.1513 -0.3134 -0.3790
  308MOL  Cl10637560   8.687   1.264   2.548 -0.3357  0.1134 -0.0334
  308MOL   C10737561   8.703   1.462   2.735 -0.4714 -0.5325  0.2112
  308MOL   H10837562   8.767   1.494   2.818 -0.8999 -0.3471  0.4709
  308MOL   H10937563   8.728   1.534   2.657 -0.8970  0.0624  0.6143
  308MOL   C11037564   8.557   1.477   2.792  0.2084 -0.2872 -0.9473
  308MOL  Cl11137565   8.537   1.655   2.789 -0.0098  0.0918  0.0754
  308MOL  Cl11237566   8.548   1.429   2.961  0.0888 -0.2679  0.2609
  308MOL   C11337567   8.455   1.403   2.696 -0.4578  0.0371 -0.2837
  308MOL   H11437568   8.491   1.420   2.595  2.1641 -1.7727  0.2861
  308MOL   H11537569   8.470   1.296   2.711 -0.1353  0.0388 -0.6031
  308MOL   C11637570   8.306   1.430   2.683  0.6129  0.5362  0.6328
  308MOL  Cl11737571   8.230   1.291   2.596 -0.0926  0.0578  0.2685
  308MOL  Cl11837572   8.263   1.583   2.607 -0.3822 -0.1801 -0.4012
  308MOL   C11937573   8.249   1.437   2.820 -0.2399  0.3772 -0.4019
  308MOL   H12037574   8.303   1.513   2.876  0.0659  0.2231 -0.4831
  308MOL   H12137575   8.142   1.451   2.826 -0.6321 -1.7688 -1.8050
  308MOL   H12237576   8.260   1.347   2.881  3.0226  1.7961  1.2607
  309MOL     C137577   2.498   6.527   3.693 -0.6649  0.4060  0.0899
  309MOL    Cl237578   2.403   6.429   3.565  0.0693  0.0053  0.1040
  309MOL    Cl337579   2.401   6.519   3.839 -0.2751 -0.3338 -0.3691
  309MOL     C437580   2.637   6.483   3.711 -0.2930 -1.2244 -0.2351
  309MOL     H537581   2.668   6.499   3.815  1.2474 -0.3408 -0.8178
  309MOL     H637582   2.637   6.374   3.705 -0.3568 -1.2634  0.4109
  309MOL     H737583   2.504   6.633   3.667  1.2291  0.0965 -0.7743
  309MOL     C837584   2.741   6.541   3.618 -0.0317  0.6007 -0.1903
  309MOL    Cl937585   2.742   6.723   3.624  0.0119 -0.2266 -0.3399
  309MOL   Cl1037586   2.711   6.501   3.450  0.2892 -0.5045  0.2471
  309MOL    C1137587   2.889   6.504   3.650 -0.3557  0.3141 -0.2239
  309MOL    H1237588   2.950   6.536   3.566 -1.8573  0.6590 -1.2077
  309MOL    H1337589   2.922   6.571   3.730 -1.1826 -0.6692  0.9792
  309MOL    C1437590   2.924   6.357   3.692 -0.0256 -0.6243  0.1489
  309MOL   Cl1537591   2.841   6.233   3.601 -0.2570  0.0480  0.1517
  309MOL   Cl1637592   2.894   6.354   3.867  0.0243  0.2141  0.1107
  309MOL    C1737593   3.079   6.338   3.676 -0.1337  0.1819 -0.0867
  309MOL    H1837594   3.118   6.316   3.577  0.7348 -2.1393  0.7458
  309MOL    H1937595   3.131   6.433   3.690 -1.7140  0.9106  0.9412
  309MOL    C2037596   3.167   6.233   3.762 -0.5874 -0.0511  0.4465
  309MOL   Cl2137597   3.191   6.287   3.933  0.2338 -0.4703  0.0890
  309MOL   Cl2237598   3.333   6.238   3.691  0.3432  0.1046  0.3550
  309MOL    C2337599   3.113   6.088   3.762 -0.1381  0.3114 -0.5596
  309MOL    H2437600   3.174   6.034   3.834 -1.7630  0.2360  0.7939
  309MOL    H2537601   3.013   6.092   3.805 -0.9076 -1.0246 -2.1802
  309MOL    C2637602   3.128   5.984   3.642 -0.3532  0.4359 -0.0126
  309MOL   Cl2737603   3.282   5.901   3.669 -0.0144 -0.0137  0.1234
  309MOL   Cl2837604   3.139   6.066   3.483  0.1290  0.1932  0.1940
  309MOL    C2937605   3.014   5.877   3.638 -0.3140 -0.5118  0.0710
  309MOL    H3037606   3.015   5.826   3.735 -1.6049 -0.2888  0.2053
  309MOL    H3137607   2.919   5.929   3.645 -0.4181 -0.7237  0.2471
  309MOL    C3237608   3.008   5.757   3.535 -0.2870 -0.0918 -0.2754
  309MOL   Cl3337609   2.857   5.670   3.577  0.1074  0.0350 -0.3362
  309MOL   Cl3437610   3.143   5.644   3.560 -0.0983  0.0888 -0.1525
  309MOL    C3537611   3.003   5.795   3.377  0.5697 -0.5170  0.1639
  309MOL    H3637612   3.087   5.857   3.345  0.5957 -0.3983  0.4570
  309MOL    H3737613   3.023   5.699   3.329 -0.4594  0.1698 -1.6389
  309MOL    C3837614   2.881   5.862   3.309  0.1841 -0.7278 -0.2782
  309MOL   Cl3937615   2.790   5.965   3.419  0.1309  0.0045  0.1319
  309MOL   Cl4037616   2.775   5.721   3.256  0.1913  0.5654  0.1386
  309MOL    C4137617   2.914   5.957   3.187 -0.1374 -0.7652  0.1446
  309MOL    H4237618   2.818   5.999   3.155  0.7962  1.1514 -0.1923
  309MOL    H4337619   2.968   6.042   3.226  0.8877 -0.9281 -0.8881
  309MOL    C4437620   2.979   5.911   3.052  0.3563 -0.9284  0.4145
  309MOL   Cl4537621   2.877   5.782   2.979 -0.0557 -0.2666 -0.3252
  309MOL   Cl4637622   3.131   5.827   3.088 -0.2118 -0.2087 -0.2682
  309MOL    C4737623   3.009   6.016   2.940  0.1821  0.1434 -0.6775
  309MOL    H4837624   3.060   5.965   2.858 -1.1625 -0.3368 -1.2186
  309MOL    H4937625   2.914   6.047   2.897  1.0395  2.6229 -0.8162
  309MOL    C5037626   3.081   6.152   2.976  0.0255 -0.4718  0.1521
  309MOL   Cl5137627   3.144   6.198   2.821 -0.4357  0.2895 -0.2584
  309MOL   Cl5237628   3.222   6.129   3.082  0.6711  0.1941 -0.1698
  309MOL    C5337629   2.974   6.260   3.033 -0.5301 -0.3113  0.6223
  309MOL    H5437630   2.911   6.299   2.954 -0.1208  0.3347  0.6108
  309MOL    H5537631   2.903   6.208   3.098 -2.3172  2.2846  0.8145
  309MOL    C5637632   3.015   6.379   3.121 -0.1513  0.2096 -0.4948
  309MOL   Cl5737633   3.032   6.317   3.282  0.0582 -0.2457  0.6330
  309MOL   Cl5837634   2.865   6.481   3.121  0.0917  0.6349 -0.1930
  309MOL    C5937635   3.133   6.470   3.066 -0.0873  0.5349  0.0853
  309MOL    H6037636   3.210   6.401   3.031  0.7901  0.1211  2.7420
  309MOL    H6137637   3.105   6.521   2.974 -1.0829 -0.0532  0.0485
  309MOL    C6237638   3.205   6.562   3.163 -0.6705  0.2019  0.3125
  309MOL   Cl6337639   3.303   6.675   3.072 -0.5803 -0.1889 -0.0086
  309MOL   Cl6437640   3.316   6.464   3.268 -0.1186  0.2270  0.2850
  309MOL    C6537641   3.106   6.653   3.246 -0.1641 -0.3587  0.8601
  309MOL    H6637642   3.061   6.714   3.168 -0.1278 -1.2030  0.1636
  309MOL    H6737643   3.030   6.584   3.283 -0.6519  0.0303  0.5866
  309MOL    C6837644   3.151   6.752   3.360  0.0041  0.4065 -0.4684
  309MOL   Cl6937645   3.228   6.664   3.494  0.0639  0.0284 -0.1685
  309MOL   Cl7037646   3.000   6.806   3.434  0.0065  0.1717  0.2131
  309MOL    C7137647   3.235   6.880   3.324  0.2777  0.0248 -0.9028
  309MOL    H7237648   3.290   6.911   3.413  0.1372 -0.0489 -0.7890
  309MOL    H7337649   3.315   6.839   3.262 -0.0505  0.2711 -1.4866
  309MOL    C7437650   3.186   7.002   3.257  0.3283  0.1471 -0.8939
  309MOL   Cl7537651   3.086   6.957   3.120  0.3964  0.2059  0.2300
  309MOL   Cl7637652   3.330   7.082   3.186  0.3242 -0.0027 -0.6400
  309MOL    C7737653   3.096   7.102   3.337 -0.4841 -0.0555 -0.6744
  309MOL    H7837654   3.074   7.184   3.269 -2.0520  0.2456  0.1743
  309MOL    H7937655   3.008   7.046   3.366 -0.1461  0.3570  1.2174
  309MOL    C8037656   3.139   7.170   3.474  0.5912  0.5582  0.0540
  309MOL   Cl8137657   3.291   7.255   3.443  0.0320  0.6396 -0.1679
  309MOL   Cl8237658   3.177   7.046   3.603  0.3623 -0.1683  0.2082
  309MOL    C8337659   3.034   7.271   3.526  0.2748 -0.0885 -0.3195
  309MOL    H8437660   3.081   7.309   3.617  1.0628 -1.3037 -0.2115
  309MOL    H8537661   3.032   7.356   3.458  1.3275  0.7898  0.7244
  309MOL    C8637662   2.884   7.235   3.557 -0.1710 -0.2813 -0.5557
  309MOL   Cl8737663   2.873   7.092   3.670 -0.0049 -0.2070 -0.1275
  309MOL   Cl8837664   2.793   7.173   3.413 -0.5384  0.0851  0.0646
  309MOL    C8937665   2.795   7.353   3.611  0.2258 -0.1631  0.2302
  309MOL    H9037666   2.787   7.419   3.525  2.3568  0.8547  0.7932
  309MOL    H9137667   2.696   7.314   3.634  0.4110 -0.8837 -0.1815
  309MOL    C9237668   2.833   7.450   3.729 -0.2069  0.1416  0.1318
  309MOL   Cl9337669   2.966   7.563   3.679  0.1154  0.1918 -0.1083
  309MOL   Cl9437670   2.912   7.358   3.849  0.3520  0.0862  0.2403
  309MOL    C9537671   2.723   7.520   3.814  0.1752  0.1836 -0.1798
  309MOL    H9637672   2.661   7.448   3.868  0.2848  0.5440  0.4357
  309MOL    H9737673   2.775   7.585   3.884 -1.2865 -0.1672  1.2601
  309MOL    C9837674   2.621   7.613   3.748  0.2783  0.0028 -0.3164
  309MOL   Cl9937675   2.512   7.655   3.881  0.1072  0.1404 -0.0736
  309MOL  Cl10037676   2.521   7.517   3.625  0.1831 -0.3857 -0.0810
  309MOL   C10137677   2.686   7.744   3.682  1.0649  0.2415  0.6377
  309MOL   H10237678   2.774   7.784   3.732  1.8987 -2.0148  1.0490
  309MOL   H10337679   2.719   7.704   3.586  0.3463  2.1006 -0.3940
  309MOL   C10437680   2.597   7.867   3.649 -0.2931  0.4707 -0.1375
  309MOL  Cl10537681   2.445   7.815   3.566 -0.2270 -0.3478  0.2982
  309MOL  Cl10637682   2.697   7.942   3.519  0.1066  0.7413  0.0190
  309MOL   C10737683   2.585   7.960   3.767 -0.9702 -0.0087  0.0292
  309MOL   H10837684   2.543   7.899   3.847  0.0886 -1.2458 -0.3372
  309MOL   H10937685   2.683   7.996   3.799 -0.6516 -0.8369  0.0056
  309MOL   C11037686   2.489   8.086   3.758 -0.3608 -0.2766  0.0139
  309MOL  Cl11137687   2.316   8.031   3.732 -0.0105  0.1936 -0.3576
  309MOL  Cl11237688   2.540   8.203   3.627  0.3443 -0.0412 -0.1233
  309MOL   C11337689   2.499   8.173   3.887  0.6919 -0.0428 -1.2383
  309MOL   H11437690   2.599   8.215   3.894  1.3290 -1.8877  1.6252
  309MOL   H11537691   2.424   8.250   3.868  0.8692  0.3129 -0.4840
  309MOL   C11637692   2.465   8.113   4.032 -0.0654  0.7256  0.0498
  309MOL  Cl11737693   2.480   8.236   4.163  0.3943  0.2890 -0.0800
  309MOL  Cl11837694   2.574   7.986   4.081  0.0900  0.2332  0.1279
  309MOL   C11937695   2.320   8.054   4.044 -0.3724 -0.2683 -0.2072
  309MOL   H12037696   2.295   7.970   3.979  0.7792 -0.5998 -0.2226
  309MOL   H12137697   2.307   7.999   4.138 -1.2997 -0.2294 -0.3058
  309MOL   H12237698   2.251   8.138   4.040 -0.0800 -0.0612 -0.8082
  310MOL     C137699   1.557   0.618   6.376  0.3219  0.0539  1.0531
  310MOL    Cl237700   1.461   0.638   6.227 -0.2044  0.1411 -0.1778
  310MOL    Cl337701   1.726   0.648   6.347 -0.1114  0.0327 -0.4231
  310MOL     C437702   1.488   0.713   6.487 -0.7015  0.1079  0.2338
  310MOL     H537703   1.466   0.814   6.450  3.2170  0.7635 -0.6035
  310MOL     H637704   1.386   0.683   6.506 -0.3575  0.5674  2.9609
  310MOL     H737705   1.544   0.514   6.407  1.2969 -0.8449 -1.4520
  310MOL     C837706   1.556   0.721   6.628  0.2714  0.3895 -0.1801
  310MOL    Cl937707   1.577   0.552   6.682 -0.1034 -0.1980  0.0339
  310MOL   Cl1037708   1.424   0.767   6.741 -0.1059 -0.0949  0.3620
  310MOL    C1137709   1.687   0.803   6.645  0.1324 -0.1335 -1.2957
  310MOL    H1237710   1.706   0.793   6.752  0.5547 -0.1088 -1.3701
  310MOL    H1337711   1.761   0.747   6.589  1.1603  0.5281 -0.6070
  310MOL    C1437712   1.693   0.957   6.615  0.3257 -0.3333 -0.1021
  310MOL   Cl1537713   1.572   1.040   6.717  0.2480 -0.0490  0.0708
  310MOL   Cl1637714   1.657   0.993   6.443 -0.1933  0.8464  0.2848
  310MOL    C1737715   1.821   1.021   6.661  0.7495  0.1947  0.4670
  310MOL    H1837716   1.818   1.122   6.620  1.6312  0.3879  0.8695
  310MOL    H1937717   1.829   1.012   6.769 -0.3411  4.2737  0.9645
  310MOL    C2037718   1.956   0.969   6.616 -0.0181 -0.7406 -0.0738
  310MOL   Cl2137719   1.956   0.962   6.440 -0.1646  0.1413 -0.5693
  310MOL   Cl2237720   1.990   0.808   6.692  0.0981 -0.0680  0.2784
  310MOL    C2337721   2.081   1.058   6.658 -0.4843  0.1481  0.5180
  310MOL    H2437722   2.163   1.007   6.607 -1.2149 -0.5780  0.0624
  310MOL    H2537723   2.077   1.152   6.604 -2.8789  0.5869  1.4118
  310MOL    C2637724   2.125   1.085   6.808  0.3918 -0.2249  0.2683
  310MOL   Cl2737725   2.159   0.940   6.899  0.2548 -0.7263 -0.2068
  310MOL   Cl2837726   1.991   1.166   6.892 -0.0395  0.0921  0.0598
  310MOL    C2937727   2.243   1.177   6.829  0.5978 -0.4403  0.0167
  310MOL    H3037728   2.204   1.278   6.816 -0.4370 -0.7275  0.8539
  310MOL    H3137729   2.274   1.168   6.933  1.1686 -1.3827 -0.2312
  310MOL    C3237730   2.373   1.176   6.748  0.1768 -0.5818 -0.0563
  310MOL   Cl3337731   2.343   1.210   6.569  0.0933 -0.0192  0.1698
  310MOL   Cl3437732   2.440   1.015   6.745 -0.5463 -0.0288 -0.1115
  310MOL    C3537733   2.476   1.280   6.786 -0.1597  0.2982  0.0352
  310MOL    H3637734   2.534   1.254   6.875  1.4801  0.3984 -1.0026
  310MOL    H3737735   2.552   1.267   6.709 -2.8100 -0.5373 -2.5267
  310MOL    C3837736   2.449   1.432   6.813  0.5167  0.2023 -0.3705
  310MOL   Cl3937737   2.381   1.445   6.973 -0.4222  0.0209  0.2663
  310MOL   Cl4037738   2.336   1.508   6.699  0.1827 -0.7490  0.2676
  310MOL    C4137739   2.581   1.511   6.805 -0.8503 -0.1914 -0.5884
  310MOL    H4237740   2.619   1.486   6.706 -0.6959 -0.1717 -0.5337
  310MOL    H4337741   2.560   1.618   6.810  0.5193  0.0188  0.6575
  310MOL    C4437742   2.707   1.502   6.896  0.5914  0.4418 -0.0521
  310MOL   Cl4537743   2.794   1.347   6.875  0.1823  0.0567  0.0920
  310MOL   Cl4637744   2.671   1.491   7.075 -0.2764  0.0132 -0.2556
  310MOL    C4737745   2.812   1.617   6.878 -0.6352  0.2041 -0.8744
  310MOL    H4837746   2.761   1.702   6.923 -2.9436 -2.3418  1.5960
  310MOL    H4937747   2.895   1.619   6.949  0.3367  2.3939 -2.0441
  310MOL    C5037748   2.857   1.668   6.741 -0.2260  0.3346 -0.5738
  310MOL   Cl5137749   2.979   1.795   6.765  0.2694 -0.2317  0.0393
  310MOL   Cl5237750   2.725   1.744   6.648  0.4018 -0.1456  0.4253
  310MOL    C5337751   2.911   1.557   6.643 -0.4218  0.4252  0.8306
  310MOL    H5437752   2.978   1.490   6.696 -1.0129 -1.7078 -1.0410
  310MOL    H5537753   2.821   1.504   6.611  0.4858 -0.6621  0.0872
  310MOL    C5637754   2.997   1.588   6.518 -0.2766 -0.4438  0.0376
  310MOL   Cl5737755   3.003   1.442   6.424  0.3583  0.1451  0.3350
  310MOL   Cl5837756   3.164   1.617   6.583  0.1168 -0.0994 -0.4847
  310MOL    C5937757   2.946   1.711   6.437  0.3389  0.4319 -0.5616
  310MOL    H6037758   2.854   1.681   6.388 -0.3514  0.7737  0.4972
  310MOL    H6137759   2.904   1.792   6.498 -0.2218 -2.0920  2.5409
  310MOL    C6237760   3.027   1.789   6.329  0.6426 -0.1004 -0.1680
  310MOL   Cl6337761   3.125   1.904   6.419 -0.1854  0.3372  0.1845
  310MOL   Cl6437762   2.893   1.883   6.248 -0.1762 -0.1233 -0.1001
  310MOL    C6537763   3.093   1.697   6.220 -0.1832  0.1354  0.2166
  310MOL    H6637764   3.148   1.618   6.272  3.8848  2.0519 -0.9574
  310MOL    H6737765   3.022   1.636   6.165  0.3687  1.3662 -1.9205
  310MOL    C6837766   3.201   1.756   6.118  0.8509 -0.3337 -0.0937
  310MOL   Cl6937767   3.257   1.620   6.022 -0.3977  0.4859  0.4572
  310MOL   Cl7037768   3.347   1.808   6.211 -0.1745  0.1154 -0.0159
  310MOL    C7137769   3.160   1.875   6.032  0.4830  0.0781 -0.2579
  310MOL    H7237770   3.055   1.856   6.012  0.9305 -1.4619 -1.2523
  310MOL    H7337771   3.151   1.947   6.114  2.1159 -1.8114  1.6520
  310MOL    C7437772   3.241   1.913   5.903 -0.3709  0.1957 -0.4311
  310MOL   Cl7537773   3.191   2.082   5.865 -0.0411 -0.2158  0.0855
  310MOL   Cl7637774   3.186   1.811   5.770 -0.1962  0.1615  0.2571
  310MOL    C7737775   3.400   1.902   5.900 -0.0688  0.3727 -0.7568
  310MOL    H7837776   3.422   1.806   5.947 -0.5308  2.2185  3.5195
  310MOL    H7937777   3.427   1.870   5.800  0.1265 -1.0500 -0.2570
  310MOL    C8037778   3.497   2.011   5.952  0.7037  0.0100 -0.1525
  310MOL   Cl8137779   3.429   2.105   6.089 -0.0136 -0.6411 -0.2481
  310MOL   Cl8237780   3.524   2.110   5.805 -0.2747 -0.2585  0.4802
  310MOL    C8337781   3.644   1.960   6.000 -0.1502 -0.1146 -0.2896
  310MOL    H8437782   3.699   2.050   6.027  1.2621 -0.9703 -0.3077
  310MOL    H8537783   3.624   1.914   6.097 -0.0620 -2.2135 -1.2396
  310MOL    C8637784   3.730   1.864   5.904  0.0688 -0.4980 -0.7885
  310MOL   Cl8737785   3.768   1.930   5.745  0.0112 -0.1545 -0.2506
  310MOL   Cl8837786   3.638   1.716   5.878 -0.1056 -0.2164 -0.0170
  310MOL    C8937787   3.867   1.817   5.969  0.2318  0.5373 -0.2162
  310MOL    H9037788   3.847   1.752   6.054 -0.2328 -0.2317 -0.9059
  310MOL    H9137789   3.917   1.754   5.895 -1.9578  0.2592 -1.5209
  310MOL    C9237790   3.977   1.916   6.013  0.5492 -0.1219  0.0224
  310MOL   Cl9337791   3.913   2.002   6.165 -0.1125  0.1198  0.2932
  310MOL   Cl9437792   4.025   2.032   5.882 -0.1148  0.1746  0.2010
  310MOL    C9537793   4.112   1.839   6.044  0.7994 -0.4184  0.2752
  310MOL    H9637794   4.083   1.752   6.103 -3.8871  0.1436 -1.0017
  310MOL    H9737795   4.139   1.783   5.955  0.0444 -1.9529  1.0022
  310MOL    C9837796   4.250   1.917   6.091  0.0553 -0.6681 -0.0775
  310MOL   Cl9937797   4.213   2.056   6.195 -0.3877 -0.2939 -0.3713
  310MOL  Cl10037798   4.326   1.960   5.931 -0.4261 -0.6561  0.0363
  310MOL   C10137799   4.349   1.827   6.161  0.1567  0.1941  0.1160
  310MOL   H10237800   4.373   1.751   6.087 -1.1913  0.0717 -0.2154
  310MOL   H10337801   4.441   1.881   6.182  0.8460 -0.7823 -0.3360
  310MOL   C10437802   4.318   1.748   6.293  0.1554  0.0855  0.1938
  310MOL  Cl10537803   4.219   1.838   6.408  0.6007  0.1214  0.0139
  310MOL  Cl10637804   4.475   1.732   6.376 -0.0535  0.1362 -0.0166
  310MOL   C10737805   4.246   1.606   6.282 -0.2674 -0.4577  0.3701
  310MOL   H10837806   4.268   1.561   6.379  1.2779 -1.3437 -0.3677
  310MOL   H10937807   4.137   1.612   6.287 -0.4252 -1.8441 -0.9539
  310MOL   C11037808   4.300   1.494   6.173 -0.3032  0.1119 -0.4824
  310MOL  Cl11137809   4.476   1.454   6.181 -0.4000 -0.0673  0.1135
  310MOL  Cl11237810   4.266   1.540   6.006 -0.0476  0.0078 -0.4740
  310MOL   C11337811   4.230   1.356   6.191  0.3005 -0.0838  0.2261
  310MOL   H11437812   4.147   1.377   6.123 -0.0738 -1.1482  0.3498
  310MOL   H11537813   4.303   1.287   6.150  0.2577  0.3325 -0.5536
  310MOL   C11637814   4.183   1.309   6.332  1.0226  0.0124 -0.4019
  310MOL  Cl11737815   4.037   1.404   6.383  0.3158 -0.3190  0.0631
  310MOL  Cl11837816   4.314   1.327   6.446 -0.1680 -0.0092 -0.3871
  310MOL   C11937817   4.147   1.164   6.330 -0.1748 -0.2957 -0.6476
  310MOL   H12037818   4.107   1.142   6.429  2.3988 -1.4162  0.1707
  310MOL   H12137819   4.074   1.142   6.251  0.5823 -2.9054 -0.6703
  310MOL   H12237820   4.225   1.089   6.314 -0.5581 -0.5192 -1.4979
  311MOL     C137821   7.935   5.830   7.871  0.2235 -0.4331 -0.3366
  311MOL    Cl237822   7.863   5.733   8.001 -0.1153  0.2694  0.1691
  311MOL    Cl337823   7.888   5.760   7.717  0.0501 -0.1207  0.2625
  311MOL     C437824   7.891   5.982   7.889 -0.1669 -0.3589 -0.4470
  311MOL     H537825   7.788   5.989   7.854  0.7623  2.1629 -2.8470
  311MOL     H637826   7.884   6.002   7.996 -1.7510  0.2270 -0.6511
  311MOL     H737827   8.043   5.815   7.883  0.3766  1.3319  0.7728
  311MOL     C837828   7.976   6.093   7.819 -0.3280 -0.0599 -0.1759
  311MOL    Cl937829   7.944   6.083   7.641 -0.1908  0.2541 -0.4687
  311MOL   Cl1037830   8.154   6.048   7.835 -0.1558 -0.1431  0.1354
  311MOL    C1137831   7.946   6.237   7.872  0.1997 -0.8936 -1.2651
  311MOL    H1237832   7.844   6.266   7.847 -0.5176  0.7105  3.1337
  311MOL    H1337833   7.937   6.227   7.980  3.2571  1.2646 -0.7421
  311MOL    C1437834   8.038   6.360   7.852 -0.6167  0.0086 -0.5291
  311MOL   Cl1537835   8.188   6.333   7.941  0.2785  0.2336 -0.0389
  311MOL   Cl1637836   7.966   6.488   7.951 -0.1434 -0.4272 -0.1552
  311MOL    C1737837   8.083   6.414   7.715 -0.1605 -0.1386  0.3498
  311MOL    H1837838   8.176   6.471   7.726 -1.2299  1.5207  1.0629
  311MOL    H1937839   8.102   6.324   7.657 -1.0508  0.1482 -0.3980
  311MOL    C2037840   7.991   6.499   7.630 -0.2402  0.0093  0.2548
  311MOL   Cl2137841   7.981   6.664   7.692 -0.0275  0.0273 -0.3053
  311MOL   Cl2237842   7.825   6.428   7.622 -0.1578  0.1525  0.0951
  311MOL    C2337843   8.054   6.509   7.492 -0.5991 -0.0683  0.2484
  311MOL    H2437844   8.147   6.544   7.536  0.2353 -2.5761  0.5558
  311MOL    H2537845   8.078   6.411   7.452 -1.2516 -0.6712  1.3309
  311MOL    C2637846   8.000   6.609   7.379  0.1840  0.3600  0.5227
  311MOL   Cl2737847   8.132   6.621   7.261 -0.1723  0.6583 -0.1204
  311MOL   Cl2837848   7.975   6.778   7.420 -0.1811  0.4093  0.1954
  311MOL    C2937849   7.878   6.552   7.285 -0.7114  0.0167 -0.4541
  311MOL    H3037850   7.919   6.481   7.214  2.0973 -0.2748  1.3830
  311MOL    H3137851   7.815   6.494   7.352  0.7657  0.9839  1.8579
  311MOL    C3237852   7.780   6.638   7.201  0.1135 -0.1595  0.2271
  311MOL   Cl3337853   7.682   6.739   7.316  0.3863 -0.0560 -0.2814
  311MOL   Cl3437854   7.665   6.536   7.116 -0.0187  0.0101  0.1230
  311MOL    C3537855   7.841   6.760   7.113 -0.1172  0.3193 -0.4357
  311MOL    H3637856   7.785   6.852   7.127  1.2254  1.0474  0.2737
  311MOL    H3737857   7.940   6.780   7.154  0.1633  0.2628 -1.0816
  311MOL    C3837858   7.874   6.723   6.964  0.2711  0.6659 -0.5279
  311MOL   Cl3937859   7.723   6.740   6.867  0.4117  0.1555  0.1719
  311MOL   Cl4037860   7.935   6.559   6.955  0.1780  0.0550  0.3605
  311MOL    C4137861   7.984   6.809   6.895  0.3389 -0.8848 -0.1482
  311MOL    H4237862   8.082   6.776   6.930  0.3338 -1.2111 -0.4355
  311MOL    H4337863   7.973   6.783   6.790 -3.8409 -2.8277  0.6594
  311MOL    C4437864   7.988   6.966   6.892  0.2368  0.2909  0.0363
  311MOL   Cl4537865   8.059   7.002   7.050 -0.2342 -0.0720 -0.0484
  311MOL   Cl4637866   7.823   7.036   6.882 -0.1271 -0.1612 -0.1233
  311MOL    C4737867   8.086   7.013   6.776 -0.1065 -0.4820 -0.1109
  311MOL    H4837868   8.189   6.978   6.790  0.8092  1.6712 -1.1095
  311MOL    H4937869   8.058   6.970   6.680 -3.2828  0.8184  0.1832
  311MOL    C5037870   8.099   7.167   6.745 -0.1627 -0.5122 -0.2583
  311MOL   Cl5137871   8.143   7.250   6.902  0.0928 -0.2512  0.0813
  311MOL   Cl5237872   7.946   7.234   6.674 -0.0960 -0.0044  0.1832
  311MOL    C5337873   8.224   7.210   6.660  1.0211  0.2117 -0.3591
  311MOL    H5437874   8.207   7.314   6.631  0.8134  0.4667  0.6548
  311MOL    H5537875   8.316   7.206   6.718  1.5308  0.3008 -1.1577
  311MOL    C5637876   8.253   7.128   6.530  0.0122  0.5359 -0.8068
  311MOL   Cl5737877   8.300   6.962   6.561 -0.3220  0.2843  0.2125
  311MOL   Cl5837878   8.390   7.203   6.441 -0.4754  0.4178  0.4697
  311MOL    C5937879   8.126   7.117   6.437 -0.0027 -0.3631 -0.1294
  311MOL    H6037880   8.047   7.060   6.486  0.9289  0.9074  2.9869
  311MOL    H6137881   8.093   7.220   6.427  3.3752  0.9200  1.0937
  311MOL    C6237882   8.134   7.054   6.296 -0.5886 -0.1892 -0.2805
  311MOL   Cl6337883   8.245   6.914   6.267 -0.1248  0.2238  0.4884
  311MOL   Cl6437884   8.219   7.180   6.189  0.2454 -0.3840 -0.4635
  311MOL    C6537885   7.994   7.036   6.228 -0.4934  0.7607 -0.2684
  311MOL    H6637886   7.950   7.134   6.210 -1.3528  0.2197 -1.2051
  311MOL    H6737887   8.005   6.996   6.127 -1.4331  0.0410 -0.0958
  311MOL    C6837888   7.889   6.940   6.294 -0.7315 -0.0656 -0.2300
  311MOL   Cl6937889   7.793   7.045   6.399 -0.2055 -0.4836  0.0924
  311MOL   Cl7037890   7.974   6.812   6.377  0.2043  0.1545  0.0917
  311MOL    C7137891   7.798   6.852   6.197 -0.9257 -0.3613  0.0171
  311MOL    H7237892   7.860   6.778   6.147 -1.3767 -0.5775 -0.2214
  311MOL    H7337893   7.714   6.801   6.245 -0.1534 -1.1016  0.6051
  311MOL    C7437894   7.704   6.914   6.091  0.1662 -0.1131 -0.1151
  311MOL   Cl7537895   7.639   6.768   6.006  0.1675 -0.3164 -0.2056
  311MOL   Cl7637896   7.789   7.007   5.964 -0.0033 -0.0511  0.1238
  311MOL    C7737897   7.584   6.998   6.150 -0.1714  0.4614 -0.1609
  311MOL    H7837898   7.551   6.936   6.234 -1.4673  2.2972  0.7102
  311MOL    H7937899   7.620   7.097   6.176  1.2391 -0.2890  0.8104
  311MOL    C8037900   7.456   7.031   6.062 -0.5191  0.3610  0.1787
  311MOL   Cl8137901   7.357   6.887   6.076  0.2027  0.0232 -0.2095
  311MOL   Cl8237902   7.495   7.077   5.898  0.0797  0.3054 -0.0773
  311MOL    C8337903   7.378   7.145   6.129  0.3663 -0.5255  0.5678
  311MOL    H8437904   7.355   7.114   6.230 -0.4376  0.8951  0.8292
  311MOL    H8537905   7.438   7.235   6.144  2.1440 -1.4955 -0.4036
  311MOL    C8637906   7.248   7.202   6.064  0.8352 -0.7212 -0.1877
  311MOL   Cl8737907   7.294   7.287   5.913  0.1521 -0.0631 -0.1882
  311MOL   Cl8837908   7.219   7.328   6.190  0.4550 -0.2540 -0.4401
  311MOL    C8937909   7.133   7.100   6.030  0.8380 -0.1823  0.0702
  311MOL    H9037910   7.155   7.049   5.936 -1.3730 -0.8266 -0.1256
  311MOL    H9137911   7.134   7.020   6.104  1.1067 -0.9126 -0.7089
  311MOL    C9237912   6.984   7.150   6.018 -0.4951 -0.7957 -0.1003
  311MOL   Cl9337913   6.887   7.037   5.920  0.2532 -0.2227  0.0935
  311MOL   Cl9437914   6.987   7.309   5.930 -0.1175 -0.1788  0.1470
  311MOL    C9537915   6.902   7.176   6.149 -0.1554 -0.7719 -0.4388
  311MOL    H9637916   6.958   7.253   6.203  1.5175 -0.8834 -1.9498
  311MOL    H9737917   6.807   7.214   6.113 -0.3717 -0.2805  0.6243
  311MOL    C9837918   6.883   7.067   6.250 -0.2654  0.0004  0.4503
  311MOL   Cl9937919   6.778   7.136   6.376 -0.1362  0.1461  0.1033
  311MOL  Cl10037920   7.036   7.043   6.346 -0.1023 -0.1530 -0.1991
  311MOL   C10137921   6.809   6.934   6.215  0.1928 -0.1977  0.1874
  311MOL   H10237922   6.703   6.952   6.199  0.3836  0.0091 -0.8786
  311MOL   H10337923   6.837   6.908   6.113 -0.5401 -0.9469  0.1760
  311MOL   C10437924   6.841   6.802   6.294  0.1367  0.4651 -0.5870
  311MOL  Cl10537925   7.012   6.752   6.242  0.1896 -0.1503 -0.0817
  311MOL  Cl10637926   6.718   6.694   6.215 -0.3144 -0.0662  0.2317
  311MOL   C10737927   6.827   6.803   6.451  0.0306 -0.2877 -0.1315
  311MOL   H10837928   6.858   6.902   6.484 -2.1463  0.1956  0.5413
  311MOL   H10937929   6.719   6.816   6.457  0.4864  2.6182  3.0997
  311MOL   C11037930   6.890   6.690   6.533  0.2810 -0.1707 -0.1167
  311MOL  Cl11137931   6.845   6.720   6.698  0.0451 -0.0365 -0.3971
  311MOL  Cl11237932   7.070   6.698   6.533  0.3724 -0.3662 -0.1192
  311MOL   C11337933   6.835   6.547   6.494 -0.2525  1.1353 -0.6784
  311MOL   H11437934   6.729   6.540   6.518 -0.3588  1.1125 -1.1486
  311MOL   H11537935   6.847   6.528   6.387 -0.1765  1.5072 -0.7375
  311MOL   C11637936   6.892   6.411   6.551 -0.7455  0.1168  0.1811
  311MOL  Cl11737937   7.054   6.383   6.480 -0.0015 -0.0395  0.2937
  311MOL  Cl11837938   6.783   6.274   6.494  0.0131  0.1299  0.7098
  311MOL   C11937939   6.906   6.394   6.704 -0.4747 -0.3286 -0.3343
  311MOL   H12037940   6.811   6.400   6.758  0.7909  1.4071  1.8003
  311MOL   H12137941   6.950   6.299   6.734 -2.2424 -1.0348  0.0628
  311MOL   H12237942   6.973   6.473   6.740 -1.2059 -0.0998  0.5354
  312MOL     C137943   4.368   0.955   3.582  0.2507 -0.6072  0.2393
  312MOL    Cl237944   4.248   1.087   3.593  0.0769 -0.4259 -0.2147
  312MOL    Cl337945   4.392   0.895   3.747  0.5364  0.0199 -0.2154
  312MOL     C437946   4.327   0.841   3.483  0.1980 -0.1663  0.3111
  312MOL     H537947   4.237   0.793   3.523 -0.4438  0.7512 -0.0259
  312MOL     H637948   4.302   0.891   3.390 -1.3132  0.9039  1.2664
  312MOL     H737949   4.460   0.997   3.539  1.4619 -3.5502 -0.1497
  312MOL     C837950   4.436   0.732   3.447  0.4651  1.4001  0.3886
  312MOL    Cl937951   4.498   0.638   3.589 -0.0013 -0.1615  0.1151
  312MOL   Cl1037952   4.577   0.813   3.388  0.0685 -0.1007  0.0156
  312MOL    C1137953   4.383   0.635   3.328  0.3969 -0.1036 -0.1558
  312MOL    H1237954   4.338   0.700   3.254  2.2179 -0.0052 -1.2033
  312MOL    H1337955   4.472   0.604   3.273 -0.1027 -1.6463 -0.1432
  312MOL    C1437956   4.279   0.516   3.361  0.9610  0.4746  0.8946
  312MOL   Cl1537957   4.148   0.530   3.237 -0.1765 -0.3380  0.1624
  312MOL   Cl1637958   4.193   0.552   3.508  0.2371 -0.3242 -0.0839
  312MOL    C1737959   4.328   0.367   3.369 -0.1742 -0.3138  0.0246
  312MOL    H1837960   4.367   0.355   3.470  0.9635 -3.9177 -0.7772
  312MOL    H1937961   4.235   0.309   3.374 -0.6004  0.3152 -0.5362
  312MOL    C2037962   4.421   0.304   3.261  0.3446 -0.1762 -0.1809
  312MOL   Cl2137963   4.579   0.386   3.278  0.4344 -0.0343  0.0313
  312MOL   Cl2237964   4.359   0.342   3.092  0.2324  0.3758  0.2659
  312MOL    C2337965   4.453   0.156   3.288  0.7544  0.1285  1.1309
  312MOL    H2437966   4.526   0.122   3.214  0.3981  0.9032  0.4233
  312MOL    H2537967   4.520   0.147   3.374  1.2810  0.1602  0.7284
  312MOL    C2637968   4.352   0.037   3.295 -0.1651 -0.0613 -0.7499
  312MOL   Cl2737969   4.253   0.039   3.438  0.3085  0.0009  0.0349
  312MOL   Cl2837970   4.453   9.073   3.313  0.2420  0.2514 -0.1643
  312MOL    C2937971   4.263   0.036   3.167  0.0894  0.0520 -0.7611
  312MOL    H3037972   4.217   0.133   3.154 -0.1210  0.2339  1.2196
  312MOL    H3137973   4.336   0.029   3.086  1.5677  0.1597  0.5329
  312MOL    C3237974   4.162   9.102   3.124  0.1687 -0.3024  0.5045
  312MOL   Cl3337975   4.096   9.149   2.965 -0.2256 -0.0594 -0.2036
  312MOL   Cl3437976   4.023   9.122   3.225  0.1398 -0.2229 -0.2107
  312MOL    C3537977   4.199   8.951   3.133 -0.2100 -0.0721 -0.2538
  312MOL    H3637978   4.227   8.934   3.237 -1.0492 -1.7552 -0.2752
  312MOL    H3737979   4.107   8.892   3.123  0.1496 -0.9583  1.3734
  312MOL    C3837980   4.302   8.881   3.031 -0.9092 -0.0786 -0.3218
  312MOL   Cl3937981   4.454   8.973   3.027  0.3913  0.1741 -0.4265
  312MOL   Cl4037982   4.228   8.865   2.863  0.1740 -0.0785 -0.3322
  312MOL    C4137983   4.351   8.733   3.064 -0.6117  0.6362 -0.2861
  312MOL    H4237984   4.386   8.687   2.971 -0.1559 -0.6155  0.4874
  312MOL    H4337985   4.446   8.737   3.117  0.5620  2.2601 -2.4161
  312MOL    C4437986   4.267   8.635   3.149  0.6891  0.0564 -0.7286
  312MOL   Cl4537987   4.243   8.683   3.324 -0.2956  0.1009 -0.2204
  312MOL   Cl4637988   4.362   8.478   3.148  0.1889 -0.0360  0.2452
  312MOL    C4737989   4.132   8.617   3.070  0.2585  0.1464  0.3025
  312MOL    H4837990   4.109   8.717   3.033 -1.8817 -0.3574  0.2588
  312MOL    H4937991   4.145   8.560   2.979 -1.2542 -0.3938  0.4139
  312MOL    C5037992   4.002   8.577   3.147 -0.0774  0.8934 -0.3092
  312MOL   Cl5137993   3.874   8.574   3.026  0.4152 -0.1399 -0.2726
  312MOL   Cl5237994   3.935   8.702   3.269  0.3522 -0.2296 -0.4207
  312MOL    C5337995   4.007   8.440   3.230 -0.1601 -0.2061  0.4821
  312MOL    H5437996   4.089   8.442   3.302 -1.0769 -0.2927  1.5549
  312MOL    H5537997   3.914   8.436   3.289  0.1008  0.3482  0.9392
  312MOL    C5637998   4.021   8.295   3.164  0.0239 -0.2592 -0.2779
  312MOL   Cl5737999   4.142   8.274   3.039  0.1780 -0.2069  0.2247
  312MOL   Cl5838000   3.868   8.261   3.090  0.0642 -0.4523 -0.1164
  312MOL    C5938001   4.052   8.177   3.261 -0.1828 -0.7141 -1.0574
  312MOL    H6038002   4.022   8.082   3.217 -0.7818 -1.3861  0.7358
  312MOL    H6138003   4.159   8.160   3.263 -0.1931 -0.9257 -2.2667
  312MOL    C6238004   3.997   8.170   3.411 -0.3135  0.5004  0.1473
  312MOL   Cl6338005   3.817   8.185   3.407  0.1066 -0.1407 -0.0108
  312MOL   Cl6438006   4.079   8.298   3.518 -0.4148  0.1511  0.0292
  312MOL    C6538007   3.999   8.023   3.466 -0.7907 -0.8113  0.1418
  312MOL    H6638008   3.958   8.027   3.566  1.5418  1.3043  1.0683
  312MOL    H6738009   3.934   7.953   3.414 -0.5298 -0.2723 -0.9267
  312MOL    C6838010   4.134   7.947   3.474  0.5317  0.8494  0.3347
  312MOL   Cl6938011   4.262   8.041   3.556 -0.0013 -0.4169  0.2174
  312MOL   Cl7038012   4.208   7.916   3.314 -0.3631  0.6766  0.3454
  312MOL    C7138013   4.112   7.807   3.544  0.3450 -0.4427 -0.1876
  312MOL    H7238014   4.029   7.830   3.612  0.2999  1.2371 -0.7951
  312MOL    H7338015   4.063   7.741   3.473  2.0596 -2.2835  0.2917
  312MOL    C7438016   4.220   7.730   3.627  0.1875  0.7259  0.7723
  312MOL   Cl7538017   4.279   7.821   3.773 -0.1052  0.1240 -0.3535
  312MOL   Cl7638018   4.362   7.714   3.533 -0.2525  0.1470  0.0593
  312MOL    C7738019   4.173   7.589   3.668  0.5133 -0.1914 -0.0275
  312MOL    H7838020   4.117   7.540   3.588  0.0373 -2.0593  1.3978
  312MOL    H7938021   4.255   7.517   3.662 -0.8951 -1.9642  1.4416
  312MOL    C8038022   4.089   7.546   3.802 -0.3764 -0.1511  0.1840
  312MOL   Cl8138023   4.032   7.371   3.788 -0.1870  0.1152  0.7677
  312MOL   Cl8238024   3.938   7.646   3.794  0.3763  0.1823 -0.0051
  312MOL    C8338025   4.162   7.562   3.939  0.4454 -1.0000  0.7026
  312MOL    H8438026   4.181   7.667   3.963 -1.5238 -0.6401  0.6965
  312MOL    H8538027   4.091   7.540   4.019  0.5796  1.4217  1.5393
  312MOL    C8638028   4.300   7.503   3.967  0.0399 -0.1198 -0.2068
  312MOL   Cl8738029   4.330   7.576   4.126  0.4041  0.0390  0.0861
  312MOL   Cl8838030   4.439   7.551   3.851 -0.0045  0.0664 -0.4093
  312MOL    C8938031   4.292   7.350   3.978 -1.0138 -0.7615  0.7797
  312MOL    H9038032   4.192   7.322   4.010 -1.0176  0.5020  1.9211
  312MOL    H9138033   4.302   7.301   3.881 -3.4307  1.5353 -0.6984
  312MOL    C9238034   4.400   7.272   4.061 -0.6104  0.3216 -0.0414
  312MOL   Cl9338035   4.378   7.281   4.238 -0.6178 -0.2526 -0.0481
  312MOL   Cl9438036   4.567   7.343   4.033  0.2575  0.3219  0.2422
  312MOL    C9538037   4.407   7.117   4.038  0.3924 -0.2687 -0.3053
  312MOL    H9638038   4.502   7.083   4.079  1.1170  3.0247  0.9370
  312MOL    H9738039   4.326   7.068   4.093 -0.3322  0.7095 -0.4802
  312MOL    C9838040   4.409   7.055   3.893 -0.0693 -0.3957  0.3218
  312MOL   Cl9938041   4.247   7.069   3.825  0.0804 -0.0366  0.3292
  312MOL  Cl10038042   4.448   6.881   3.911  0.2895  0.1385 -0.1853
  312MOL   C10138043   4.512   7.127   3.797  0.0649 -0.1380  0.3838
  312MOL   H10238044   4.483   7.232   3.798  2.1192  0.4596 -0.1204
  312MOL   H10338045   4.609   7.102   3.840 -0.5966 -0.1875  1.8770
  312MOL   C10438046   4.526   7.101   3.648 -0.0711  0.3475 -0.4498
  312MOL  Cl10538047   4.380   7.147   3.555  0.4990  0.6510  0.1223
  312MOL  Cl10638048   4.570   6.930   3.631 -0.0660 -0.1494  0.3575
  312MOL   C10738049   4.645   7.166   3.577  0.3365  0.1036  0.0118
  312MOL   H10838050   4.744   7.123   3.596  0.9785  1.0628 -1.0432
  312MOL   H10938051   4.627   7.163   3.469  0.7736  0.7298 -0.0822
  312MOL   C11038052   4.684   7.316   3.580  0.2328  0.3485 -0.6527
  312MOL  Cl11138053   4.740   7.369   3.745  0.1303 -0.0895  0.5401
  312MOL  Cl11238054   4.548   7.416   3.531 -0.0378  0.0155 -0.0506
  312MOL   C11338055   4.794   7.357   3.471  0.1233 -0.2630  0.4433
  312MOL   H11438056   4.747   7.367   3.373 -0.3418  2.4269  0.8803
  312MOL   H11538057   4.818   7.459   3.502 -3.0919  0.5180  0.5441
  312MOL   C11638058   4.930   7.280   3.457  0.6943 -0.0223 -0.6275
  312MOL  Cl11738059   4.892   7.119   3.390  0.6565 -0.2012 -0.3477
  312MOL  Cl11838060   5.021   7.262   3.620 -0.1995 -0.1433  0.0764
  312MOL   C11938061   5.019   7.356   3.353 -0.1002  0.9968 -0.3933
  312MOL   H12038062   5.121   7.318   3.343  0.1206  1.9662 -2.0248
  312MOL   H12138063   4.973   7.359   3.255 -0.6680  2.2069 -0.1080
  312MOL   H12238064   5.021   7.462   3.378  0.7848  0.6483  1.0876
  313MOL     C138065   9.012   6.191   2.186 -0.2194 -0.9334 -0.7068
  313MOL    Cl238066   9.082   6.268   2.333  0.3914 -0.3501  0.0615
  313MOL    Cl338067   8.937   6.046   2.240  0.2387 -0.3980  0.0532
  313MOL     C438068   8.907   6.270   2.104  0.2852  0.3247  0.7230
  313MOL     H538069   8.846   6.204   2.041 -1.1258  2.2306  0.0615
  313MOL     H638070   8.836   6.317   2.171 -1.7551 -0.4701 -0.8308
  313MOL     H738071   9.092   6.159   2.119 -0.6539 -1.1247 -1.1398
  313MOL     C838072   8.959   6.385   2.006 -0.6218  1.0575 -0.4287
  313MOL    Cl938073   9.075   6.331   1.885 -0.2658  0.1297  0.0912
  313MOL   Cl1038074   9.043   6.492   2.113 -0.0126 -0.4573 -0.4398
  313MOL    C1138075   8.838   6.455   1.937 -0.0349  0.4968 -0.0111
  313MOL    H1238076   8.810   6.537   2.003  2.1213  0.9930  0.3070
  313MOL    H1338077   8.895   6.516   1.866  1.1314  0.7292  1.1111
  313MOL    C1438078   8.717   6.389   1.859  0.3695  0.0397 -0.4632
  313MOL   Cl1538079   8.614   6.324   1.987  0.3929 -0.3574  0.4629
  313MOL   Cl1638080   8.778   6.259   1.757  0.0064  0.2764  0.2491
  313MOL    C1738081   8.621   6.488   1.784 -0.2287  0.3216  0.2422
  313MOL    H1838082   8.529   6.431   1.777  0.4175 -0.7792  0.6444
  313MOL    H1938083   8.609   6.571   1.853  2.6432  1.3083 -0.3808
  313MOL    C2038084   8.654   6.527   1.637  0.1261 -0.4490 -0.1957
  313MOL   Cl2138085   8.555   6.680   1.627  0.3819  0.3336  0.3101
  313MOL   Cl2238086   8.595   6.411   1.521  0.2065 -0.2977 -0.0641
  313MOL    C2338087   8.804   6.565   1.614 -0.1050 -0.2743 -0.0033
  313MOL    H2438088   8.828   6.659   1.663 -1.7709  0.3615 -0.3669
  313MOL    H2538089   8.871   6.492   1.661 -0.8295  0.2387  1.8496
  313MOL    C2638090   8.859   6.590   1.472  0.3620 -0.0456  0.0357
  313MOL   Cl2738091   8.769   6.715   1.381  0.1827  0.0594 -0.1821
  313MOL   Cl2838092   8.859   6.439   1.371 -0.0191  0.6987 -0.0777
  313MOL    C2938093   9.013   6.632   1.485  0.5040 -0.0610  0.2009
  313MOL    H3038094   9.046   6.599   1.583  1.5838 -2.3081 -0.8697
  313MOL    H3138095   9.076   6.565   1.426 -0.1606 -0.2503 -0.3166
  313MOL    C3238096   9.063   6.781   1.478  0.2346  0.8436  0.1246
  313MOL   Cl3338097   8.972   6.891   1.577 -0.0079 -0.0989 -0.2979
  313MOL   Cl3438098   9.065   6.838   1.311 -0.1211  0.0284 -0.0559
  313MOL    C3538099   0.036   6.796   1.524  0.0456 -0.1181 -0.3184
  313MOL    H3638100   0.105   6.768   1.445 -0.3986 -0.9100 -0.4268
  313MOL    H3738101   0.051   6.904   1.527 -1.5503  0.0887  1.4136
  313MOL    C3838102   0.095   6.736   1.666 -0.8735 -0.6123  0.3358
  313MOL   Cl3938103   0.106   6.555   1.648 -0.0100 -0.0247  0.0407
  313MOL   Cl4038104   9.168   6.758   1.801 -0.1238 -0.0752  0.0459
  313MOL    C4138105   0.234   6.790   1.703 -0.0609  0.0549  0.5305
  313MOL    H4238106   0.262   6.755   1.803 -0.9698  0.8117  1.0662
  313MOL    H4338107   0.302   6.745   1.631  0.8155  0.7309  0.9145
  313MOL    C4438108   0.278   6.941   1.697 -0.7603  0.5217 -0.0120
  313MOL   Cl4538109   0.141   7.038   1.757 -0.2064  0.3169  0.0520
  313MOL   Cl4638110   0.318   6.998   1.531 -0.1149  0.4073 -0.0798
  313MOL    C4738111   0.402   6.971   1.797  0.1619  0.0007  0.3162
  313MOL    H4838112   0.413   7.079   1.788  0.0061 -0.1157 -1.4906
  313MOL    H4938113   0.368   6.943   1.897  1.7180  1.5111  1.2750
  313MOL    C5038114   0.536   6.886   1.783  0.0156  0.3077 -0.0847
  313MOL   Cl5138115   0.590   6.874   1.612  0.1826  0.2528 -0.2222
  313MOL   Cl5238116   0.530   6.710   1.822 -0.4446  0.0804 -0.0055
  313MOL    C5338117   0.662   6.940   1.850 -0.1033 -0.1605  1.0634
  313MOL    H5438118   0.749   6.877   1.835  2.4580  3.0977  1.7429
  313MOL    H5538119   0.674   7.036   1.798 -2.4590  0.0549  0.8570
  313MOL    C5638120   0.670   6.959   2.009  0.1596 -0.4657  0.6811
  313MOL   Cl5738121   0.679   6.801   2.085 -0.1290 -0.0138 -0.0027
  313MOL   Cl5838122   0.530   7.052   2.072  0.2906  0.0844 -0.3440
  313MOL    C5938123   0.795   7.041   2.058 -0.1721  0.6564  0.0770
  313MOL    H6038124   0.775   7.053   2.164  2.9162 -0.5707  0.8501
  313MOL    H6138125   0.881   6.974   2.065 -0.4924  0.3197  0.8587
  313MOL    C6238126   0.844   7.176   1.990  0.2374  0.4717  0.3624
  313MOL   Cl6338127   0.929   7.126   1.841  0.2655  0.3168 -0.1226
  313MOL   Cl6438128   0.976   7.246   2.093  0.1791 -0.1324  0.2427
  313MOL    C6538129   0.731   7.289   1.971  0.0752 -0.4436 -0.1264
  313MOL    H6638130   0.640   7.231   1.956  0.9217 -1.2485 -2.3283
  313MOL    H6738131   0.726   7.340   2.067  3.9359 -2.4815  1.2362
  313MOL    C6838132   0.732   7.402   1.865  0.5083  0.3141 -0.1991
  313MOL   Cl6938133   0.727   7.337   1.698  0.2456 -0.2912 -0.0895
  313MOL   Cl7038134   0.883   7.504   1.887  0.1443 -0.0494 -0.2365
  313MOL    C7138135   0.612   7.504   1.865 -0.9375  0.0362 -0.1765
  313MOL    H7238136   0.631   7.579   1.942 -2.8833 -0.0868  0.4498
  313MOL    H7338137   0.612   7.553   1.768 -0.9128  0.0790 -0.1550
  313MOL    C7438138   0.469   7.455   1.891  0.1107 -0.5088  0.6770
  313MOL   Cl7538139   0.447   7.388   2.055  0.2537 -0.6027 -0.1503
  313MOL   Cl7638140   0.416   7.337   1.768 -0.5848  0.1724  0.2299
  313MOL    C7738141   0.371   7.574   1.888  0.4806  0.5614  0.2011
  313MOL    H7838142   0.426   7.639   1.957  1.7148  0.8528 -1.0430
  313MOL    H7938143   0.363   7.621   1.790  0.4991 -2.9815 -1.5753
  313MOL    C8038144   0.221   7.565   1.934  0.3255  0.5533 -0.3914
  313MOL   Cl8138145   0.223   7.606   2.106 -0.2923 -0.1091 -0.2086
  313MOL   Cl8238146   0.143   7.407   1.917 -0.5249 -0.1187 -0.0836
  313MOL    C8338147   0.123   7.664   1.859 -0.0017 -0.3569  0.9969
  313MOL    H8438148   0.133   7.639   1.754 -0.4905 -0.6613  1.0226
  313MOL    H8538149   0.026   7.627   1.891  0.6273 -1.9813  1.0572
  313MOL    C8638150   0.126   7.823   1.876 -0.9046  0.6217  0.0886
  313MOL   Cl8738151   0.286   7.897   1.843 -0.2515  0.0396  0.0730
  313MOL   Cl8838152   0.077   7.874   2.041 -0.2779 -0.0587 -0.1685
  313MOL    C8938153   0.041   7.909   1.766 -0.6544 -0.0571  0.3088
  313MOL    H9038154   0.057   8.014   1.788  0.0702  0.2870 -1.7849
  313MOL    H9138155   0.088   7.904   1.668 -2.3833  1.6814 -0.6278
  313MOL    C9238156   9.074   7.882   1.732 -0.0874  0.5036 -0.4045
  313MOL   Cl9338157   9.066   7.720   1.661  0.1421 -0.0431 -0.0551
  313MOL   Cl9438158   9.014   7.997   1.596  0.4218 -0.0665  0.1697
  313MOL    C9538159   8.990   7.888   1.860 -0.2948  0.2012 -0.0912
  313MOL    H9638160   9.003   7.795   1.915  1.6183  0.6134  0.1767
  313MOL    H9738161   9.028   7.976   1.912 -1.5477  2.0753 -2.2768
  313MOL    C9838162   8.831   7.898   1.847 -1.2984 -0.6361  0.0614
  313MOL   Cl9938163   8.776   7.775   1.725 -0.0362  0.4877  0.1682
  313MOL  Cl10038164   8.775   8.057   1.784 -0.4432 -0.1231 -0.1562
  313MOL   C10138165   8.750   7.881   1.971  0.1794  0.0652  0.6043
  313MOL   H10238166   8.647   7.899   1.940  0.1920 -2.2890 -0.9093
  313MOL   H10338167   8.743   7.775   1.992  0.9318  0.2612  1.8805
  313MOL   C10438168   8.793   7.953   2.105 -0.2895 -0.8245 -0.0252
  313MOL  Cl10538169   8.862   8.115   2.068 -0.0382  0.3634 -0.3292
  313MOL  Cl10638170   8.934   7.874   2.180 -0.2794 -0.0735  0.2629
  313MOL   C10738171   8.680   7.949   2.220 -0.2790 -0.2319 -0.0201
  313MOL   H10838172   8.672   7.851   2.268 -1.7108 -0.1200 -0.0147
  313MOL   H10938173   8.718   8.011   2.302  1.5735 -2.1933  0.6653
  313MOL   C11038174   8.535   8.006   2.189 -0.1424 -0.8356  0.4594
  313MOL  Cl11138175   8.441   7.906   2.081 -0.1675  0.2520  0.3021
  313MOL  Cl11238176   8.551   8.168   2.112 -0.1543  0.0617 -0.0096
  313MOL   C11338177   8.451   8.038   2.320  0.3148  0.2603 -0.1834
  313MOL   H11438178   8.486   8.127   2.372  0.2475  0.5426 -0.6208
  313MOL   H11538179   8.357   8.081   2.285  2.0200  3.6619 -0.8145
  313MOL   C11638180   8.426   7.927   2.432 -0.0249  0.0618  0.1709
  313MOL  Cl11738181   8.297   7.992   2.533 -0.2858  0.0131 -0.0430
  313MOL  Cl11838182   8.571   7.892   2.529  0.0089  0.5693 -0.2641
  313MOL   C11938183   8.367   7.792   2.377 -0.2060  0.5657 -0.0696
  313MOL   H12038184   8.442   7.717   2.352  0.9773  2.1206 -1.2601
  313MOL   H12138185   8.305   7.746   2.453 -2.0788  0.7545 -1.4423
  313MOL   H12238186   8.308   7.812   2.287 -0.9252 -2.0902 -0.2193
  314MOL     C138187   6.879   8.871   4.557 -0.0279 -1.0341  0.1675
  314MOL    Cl238188   6.960   9.002   4.455 -0.2191  0.0694 -0.3660
  314MOL    Cl338189   6.893   8.720   4.471  0.3275  0.0777  0.0149
  314MOL     C438190   6.961   8.880   4.687 -0.0477 -0.1977  0.3078
  314MOL     H538191   7.051   8.820   4.672 -1.2651 -1.7770 -0.9159
  314MOL     H638192   7.005   8.976   4.712  1.4674 -0.2538 -1.9355
  314MOL     H738193   6.773   8.892   4.576 -0.1419 -1.2040 -0.2705
  314MOL     C838194   6.892   8.841   4.821  0.2360 -0.0056 -0.1110
  314MOL    Cl938195   6.812   8.682   4.801  0.3278  0.1486  0.4323
  314MOL   Cl1038196   6.763   8.961   4.857 -0.0906  0.2144  0.5462
  314MOL    C1138197   6.991   8.823   4.951  0.1218 -0.2169  0.4648
  314MOL    H1238198   6.920   8.816   5.032 -1.4313  1.5022 -0.7173
  314MOL    H1338199   7.040   8.726   4.934 -1.4669 -1.1624  1.1928
  314MOL    C1438200   7.104   8.928   4.979  0.3261 -0.3109  0.0070
  314MOL   Cl1538201   7.048   9.094   4.956 -0.1570 -0.3834  0.2767
  314MOL   Cl1638202   7.233   8.910   4.854  0.1369 -0.0018 -0.0655
  314MOL    C1738203   7.168   8.922   5.118  0.1925 -0.4283  0.2652
  314MOL    H1838204   7.254   8.989   5.117  2.0168 -2.6871  0.8935
  314MOL    H1938205   7.094   8.958   5.188 -1.0556 -1.9020 -0.2648
  314MOL    C2038206   7.221   8.788   5.167 -0.0267  0.0181  0.0083
  314MOL   Cl2138207   7.328   8.702   5.056 -0.1010 -0.0508 -0.3994
  314MOL   Cl2238208   7.084   8.678   5.198  0.2058  0.1175  0.2500
  314MOL    C2338209   7.306   8.789   5.308  0.6860 -0.6021 -0.5816
  314MOL    H2438210   7.306   8.687   5.346  0.5055 -0.2997  0.2470
  314MOL    H2538211   7.406   8.824   5.286  0.5398  0.7511  0.8102
  314MOL    C2638212   7.256   8.882   5.425 -0.0811 -0.0129  0.4349
  314MOL   Cl2738213   7.093   8.846   5.487  0.2749 -0.4618 -0.1672
  314MOL   Cl2838214   7.257   9.052   5.365 -0.0519  0.0383 -0.1162
  314MOL    C2938215   7.357   8.892   5.543  0.4737  0.7204  0.0317
  314MOL    H3038216   7.442   8.952   5.510  0.2464  1.0483  0.0327
  314MOL    H3138217   7.308   8.950   5.621 -0.9735  0.0021 -0.3331
  314MOL    C3238218   7.417   8.764   5.605  0.0172  0.7033 -0.1133
  314MOL   Cl3338219   7.530   8.700   5.488  0.1929  0.1522  0.2089
  314MOL   Cl3438220   7.296   8.635   5.626 -0.3132 -0.2765 -0.0980
  314MOL    C3538221   7.486   8.785   5.742  0.2687  0.7046 -0.2737
  314MOL    H3638222   7.400   8.779   5.810  0.9513 -1.7266  0.3913
  314MOL    H3738223   7.556   8.704   5.758 -1.0911 -0.7591 -1.6237
  314MOL    C3838224   7.583   8.909   5.773 -0.6582 -0.2807 -0.1497
  314MOL   Cl3938225   7.478   9.054   5.789 -0.1805 -0.0638 -0.0263
  314MOL   Cl4038226   7.695   8.937   5.633 -0.0871 -0.3360 -0.1097
  314MOL    C4138227   7.673   8.881   5.899  0.6554  0.0436 -0.1186
  314MOL    H4238228   7.719   8.785   5.874 -0.5125 -0.9960  1.6098
  314MOL    H4338229   7.764   8.941   5.898  2.2801 -2.2747  2.3658
  314MOL    C4438230   7.629   8.860   6.041  0.7475  0.4766 -0.2776
  314MOL   Cl4538231   7.752   8.778   6.131 -0.3780 -0.1226 -0.2492
  314MOL   Cl4638232   7.490   8.741   6.040 -0.0942 -0.0205 -0.2590
  314MOL    C4738233   7.570   8.981   6.126  0.1770  0.4213  0.7666
  314MOL    H4838234   7.469   9.009   6.097  0.3295  0.8340  0.6379
  314MOL    H4938235   7.550   8.948   6.228 -0.3337  1.6501  1.0726
  314MOL    C5038236   7.660   9.107   6.152 -0.2211 -0.0795  0.7394
  314MOL   Cl5138237   7.688   0.015   5.998  0.5014 -0.1372 -0.3407
  314MOL   Cl5238238   7.804   9.069   6.244  0.3171 -0.0030  0.0476
  314MOL    C5338239   7.585   0.044   6.231  0.3319 -0.2478 -0.8280
  314MOL    H5438240   7.650   0.132   6.235  0.7474 -0.5755 -0.2364
  314MOL    H5538241   7.510   0.072   6.157  0.7709 -1.7602 -1.8611
  314MOL    C5638242   7.496   0.025   6.359 -0.3625  0.2070 -0.0000
  314MOL   Cl5738243   7.588   9.115   6.478  0.7776  0.0546 -0.2535
  314MOL   Cl5838244   7.361   9.103   6.317  0.1870  0.2272  0.3645
  314MOL    C5938245   7.446   0.153   6.427 -0.4753  0.6865  0.1676
  314MOL    H6038246   7.379   0.126   6.509 -0.4296  1.2542  0.3968
  314MOL    H6138247   7.534   0.191   6.479 -0.7978 -0.2950  1.4553
  314MOL    C6238248   7.384   0.271   6.357 -0.0868  0.5076 -0.2015
  314MOL   Cl6338249   7.269   0.219   6.239  0.1061 -0.2771  0.3321
  314MOL   Cl6438250   7.523   0.353   6.272 -0.0794 -0.2379  0.3383
  314MOL    C6538251   7.318   0.383   6.437 -0.1162  0.6395  0.1689
  314MOL    H6638252   7.383   0.394   6.524 -1.4809 -0.6943  1.3883
  314MOL    H6738253   7.334   0.484   6.401  0.6589  0.4164 -0.1120
  314MOL    C6838254   7.167   0.386   6.477 -0.8847 -0.1140 -0.0249
  314MOL   Cl6938255   7.155   0.473   6.633 -0.1051 -0.1160 -0.2366
  314MOL   Cl7038256   7.113   0.224   6.519 -0.0642 -0.2900  0.1622
  314MOL    C7138257   7.057   0.439   6.385 -0.1139 -0.6376 -0.2234
  314MOL    H7238258   7.050   0.362   6.308 -2.1731 -1.1340  0.4116
  314MOL    H7338259   6.966   0.420   6.443  1.4347  0.1263  2.5822
  314MOL    C7438260   7.052   0.575   6.316 -0.3998  0.6142 -0.4641
  314MOL   Cl7538261   7.187   0.584   6.195 -0.3132 -0.0669 -0.4482
  314MOL   Cl7638262   7.091   0.708   6.424  0.2870 -0.0179 -0.0015
  314MOL    C7738263   6.925   0.603   6.234  0.3256 -0.3485  1.1562
  314MOL    H7838264   6.928   0.710   6.215  0.4466 -0.2695  1.6310
  314MOL    H7938265   6.936   0.563   6.133  1.7231 -0.3060  1.2908
  314MOL    C8038266   6.785   0.569   6.286  0.8408 -0.3906 -0.2835
  314MOL   Cl8138267   6.763   0.620   6.461  0.0893  0.2155 -0.0806
  314MOL   Cl8238268   6.759   0.388   6.273 -0.2523 -0.3949  0.0173
  314MOL    C8338269   6.673   0.621   6.189  0.1059  0.3889 -0.3889
  314MOL    H8438270   6.662   0.560   6.100  3.6263  0.2918 -0.8492
  314MOL    H8538271   6.575   0.606   6.233  0.0910 -1.7254 -1.0753
  314MOL    C8638272   6.668   0.767   6.132  0.4263  0.4910  0.7436
  314MOL   Cl8738273   6.521   0.774   6.019  0.2920 -0.3388 -0.1324
  314MOL   Cl8838274   6.807   0.784   6.018 -0.3082  0.1420  0.2366
  314MOL    C8938275   6.669   0.872   6.250  0.1858 -0.2238 -0.2469
  314MOL    H9038276   6.580   0.856   6.312 -1.1131 -2.3841 -2.5972
  314MOL    H9138277   6.759   0.847   6.308  1.7449  2.2381 -1.5544
  314MOL    C9238278   6.684   1.021   6.220  0.1717 -0.2073 -0.5850
  314MOL   Cl9338279   6.856   1.042   6.188  0.0508 -0.2962 -0.0568
  314MOL   Cl9438280   6.644   1.088   6.380  0.1344 -0.7530  0.0875
  314MOL    C9538281   6.593   1.086   6.109  0.3542  0.0070 -0.9463
  314MOL    H9638282   6.636   1.051   6.016  2.3851  0.3144 -0.1464
  314MOL    H9738283   6.507   1.019   6.115  1.4225 -1.2322  1.2651
  314MOL    C9838284   6.571   1.239   6.093  0.3407 -0.4618  0.1295
  314MOL   Cl9938285   6.453   1.298   6.209 -0.3208  0.2870  0.0745
  314MOL  Cl10038286   6.504   1.257   5.931  0.2300 -0.0071 -0.0777
  314MOL   C10138287   6.702   1.317   6.106 -0.2281  0.1026  0.1009
  314MOL   H10238288   6.743   1.300   6.206 -2.1691  0.7157  1.0456
  314MOL   H10338289   6.773   1.286   6.031 -1.5091 -0.6407 -0.8213
  314MOL   C10438290   6.705   1.476   6.094 -0.3331 -0.0465 -0.1463
  314MOL  Cl10538291   6.882   1.503   6.102 -0.1625  0.2503 -0.3599
  314MOL  Cl10638292   6.634   1.562   6.232 -0.0853  0.1199 -0.0201
  314MOL   C10738293   6.652   1.532   5.955  0.3123 -0.4091  0.0889
  314MOL   H10838294   6.659   1.456   5.877  1.2693  0.3015 -0.5381
  314MOL   H10938295   6.544   1.540   5.962  0.3313 -1.1937  1.3454
  314MOL   C11038296   6.718   1.659   5.882  0.1049 -0.1681  0.1590
  314MOL  Cl11138297   6.879   1.622   5.825  0.1249 -0.0935  0.3600
  314MOL  Cl11238298   6.719   1.780   6.003 -0.0339  0.1735 -0.5346
  314MOL   C11338299   6.648   1.724   5.755 -0.2368  0.1122  0.3920
  314MOL   H11438300   6.552   1.761   5.790  0.2835  0.6214  1.2870
  314MOL   H11538301   6.701   1.813   5.723  1.9000 -0.5403  1.9866
  314MOL   C11638302   6.604   1.638   5.633  0.8459 -0.4709  1.0035
  314MOL  Cl11738303   6.546   1.761   5.512  0.2422  0.5861 -0.2117
  314MOL  Cl11838304   6.471   1.534   5.667 -0.0869  0.1199  0.0447
  314MOL   C11938305   6.714   1.554   5.562  0.6236  0.0463  0.2304
  314MOL   H12038306   6.662   1.520   5.472  0.0161  2.7610 -0.4853
  314MOL   H12138307   6.798   1.616   5.530  2.6057 -1.2889  2.6812
  314MOL   H12238308   6.744   1.473   5.628  1.2507  0.4316  0.4239
  315MOL     C138309   1.754   4.359   7.258  0.4265  0.1589 -0.2877
  315MOL    Cl238310   1.663   4.346   7.107 -0.2739  0.1760 -0.1829
  315MOL    Cl338311   1.680   4.243   7.373 -0.2536  0.1121  0.4127
  315MOL     C438312   1.903   4.327   7.244 -0.0322  0.5498  0.5647
  315MOL     H538313   1.925   4.222   7.264 -0.5785  0.6216  1.5880
  315MOL     H638314   1.931   4.324   7.138  0.4693  0.0215  0.7097
  315MOL     H738315   1.737   4.458   7.301  0.6546  0.4185 -0.8005
  315MOL     C838316   2.000   4.414   7.326  0.2758 -0.0897 -0.0772
  315MOL    Cl938317   1.944   4.391   7.492 -0.1506 -0.1291 -0.6968
  315MOL   Cl1038318   1.980   4.579   7.274  0.2251  0.1528 -0.6858
  315MOL    C1138319   2.149   4.373   7.305 -0.1834 -0.0640 -0.5629
  315MOL    H1238320   2.212   4.452   7.347  0.6115 -0.3215 -1.2668
  315MOL    H1338321   2.162   4.288   7.371  1.5672  0.2737 -0.4599
  315MOL    C1438322   2.215   4.332   7.168  0.4087 -0.0282 -0.6256
  315MOL   Cl1538323   2.161   4.436   7.037 -0.2053 -0.1888 -0.3388
  315MOL   Cl1638324   2.170   4.164   7.118  0.1456  0.1026 -0.2367
  315MOL    C1738325   2.378   4.329   7.174  0.1604 -0.4653  0.8505
  315MOL    H1838326   2.395   4.256   7.253  0.1178 -2.0923 -0.6279
  315MOL    H1938327   2.422   4.291   7.082  0.4535  1.8497 -0.0136
  315MOL    C2038328   2.455   4.466   7.194 -0.3601  0.1421 -0.8309
  315MOL   Cl2138329   2.456   4.488   7.371 -0.1868 -0.0422 -0.0576
  315MOL   Cl2238330   2.401   4.622   7.125 -0.1752 -0.0170  0.0515
  315MOL    C2338331   2.602   4.439   7.141 -0.1435  0.4658  0.4040
  315MOL    H2438332   2.652   4.366   7.204  1.3072  1.4786  0.4526
  315MOL    H2538333   2.603   4.398   7.040 -0.1272  2.4515 -0.4335
  315MOL    C2638334   2.704   4.557   7.123 -1.4176 -0.1552 -0.2811
  315MOL   Cl2738335   2.681   4.645   6.967 -0.0594  0.1042  0.0082
  315MOL   Cl2838336   2.866   4.478   7.116  0.1774 -0.2439  0.2730
  315MOL    C2938337   2.704   4.665   7.235 -0.4319  0.1695  0.2985
  315MOL    H3038338   2.601   4.682   7.264 -0.9488  0.8474 -1.8783
  315MOL    H3138339   2.749   4.613   7.321 -1.2027  0.0642  0.6391
  315MOL    C3238340   2.779   4.803   7.219 -0.4280  0.3620 -0.3516
  315MOL   Cl3338341   2.797   4.871   7.386 -0.2503 -0.2587  0.3674
  315MOL   Cl3438342   2.688   4.926   7.131 -0.1077 -0.0126  0.4880
  315MOL    C3538343   2.920   4.796   7.169 -0.5335  0.2828 -0.2024
  315MOL    H3638344   2.970   4.727   7.237 -2.7922 -2.0974 -0.8535
  315MOL    H3738345   2.914   4.746   7.072  0.1374 -1.3595  0.5816
  315MOL    C3838346   3.031   4.908   7.148  0.4528  0.8654 -1.1641
  315MOL   Cl3938347   3.162   4.809   7.089  0.2155 -0.1799 -0.2695
  315MOL   Cl4038348   3.068   4.988   7.310  0.1329  0.1746 -0.0758
  315MOL    C4138349   2.982   5.019   7.059 -0.1536 -0.6999 -0.0829
  315MOL    H4238350   2.920   4.979   6.978 -0.0761 -0.3646 -0.3083
  315MOL    H4338351   2.912   5.073   7.123 -0.7771  1.2903 -2.3775
  315MOL    C4438352   3.077   5.134   7.002 -0.2572  0.0819  0.6952
  315MOL   Cl4538353   3.098   5.247   7.140  0.0598  0.1550 -0.1387
  315MOL   Cl4638354   2.980   5.213   6.874 -0.2994 -0.0488 -0.1872
  315MOL    C4738355   3.217   5.091   6.947  0.5330  0.2322 -0.1981
  315MOL    H4838356   3.278   5.062   7.032  2.5247  0.9836 -1.3481
  315MOL    H4938357   3.193   4.997   6.896  3.1289 -0.9319  0.6229
  315MOL    C5038358   3.297   5.184   6.844  0.0601  0.6454  0.6763
  315MOL   Cl5138359   3.206   5.169   6.686 -0.1618 -0.4873 -0.1040
  315MOL   Cl5238360   3.457   5.103   6.817  0.3436  0.0551  0.4073
  315MOL    C5338361   3.304   5.329   6.891  0.0327  0.4240 -0.6230
  315MOL    H5438362   3.199   5.357   6.883 -0.8793 -2.6771  0.1175
  315MOL    H5538363   3.331   5.342   6.996 -2.7570  2.5517 -0.1151
  315MOL    C5638364   3.402   5.424   6.813  0.1646 -0.3512  0.4732
  315MOL   Cl5738365   3.428   5.372   6.645 -0.0573  0.2482 -0.1093
  315MOL   Cl5838366   3.563   5.442   6.890  0.3350 -0.0662  0.0479
  315MOL    C5938367   3.329   5.567   6.801  0.2709  0.0292  0.7653
  315MOL    H6038368   3.369   5.613   6.711  0.9175  1.7471  1.8883
  315MOL    H6138369   3.226   5.551   6.771  0.3543 -2.8834  1.8959
  315MOL    C6238370   3.310   5.669   6.915 -0.6111 -0.4266 -0.3568
  315MOL   Cl6338371   3.228   5.589   7.052  0.3907  0.4596  0.0502
  315MOL   Cl6438372   3.188   5.792   6.857 -0.1067  0.1487 -0.1392
  315MOL    C6538373   3.437   5.758   6.966 -0.1393 -0.0780 -0.5158
  315MOL    H6638374   3.490   5.705   7.045 -0.9052  1.5936  1.1748
  315MOL    H6738375   3.509   5.758   6.885 -0.1650 -0.1486 -0.5372
  315MOL    C6838376   3.424   5.903   7.029  0.8420 -0.2719  0.3537
  315MOL   Cl6938377   3.292   5.911   7.143  0.0599  0.1534 -0.0165
  315MOL   Cl7038378   3.388   6.015   6.894 -0.3387  0.1996  0.0184
  315MOL    C7138379   3.553   5.954   7.107  0.2577  0.4518  0.0420
  315MOL    H7238380   3.577   5.879   7.183 -3.2225 -0.9110 -0.1344
  315MOL    H7338381   3.624   5.960   7.024 -0.0828  3.3522 -0.1053
  315MOL    C7438382   3.568   6.082   7.184  0.2249  0.2429 -0.2212
  315MOL   Cl7538383   3.748   6.075   7.235  0.2062 -0.0122 -0.1549
  315MOL   Cl7638384   3.465   6.065   7.332  0.0050 -0.1965  0.0215
  315MOL    C7738385   3.531   6.212   7.108  0.1120  0.3328 -0.0942
  315MOL    H7838386   3.562   6.207   7.004 -0.7209 -1.3612 -0.2795
  315MOL    H7938387   3.425   6.228   7.088  0.3291 -0.7298 -2.1614
  315MOL    C8038388   3.577   6.347   7.167 -0.2748 -0.1526  0.3726
  315MOL   Cl8138389   3.493   6.478   7.077  0.0441 -0.0333  0.0364
  315MOL   Cl8238390   3.753   6.371   7.118 -0.1094  0.1880  0.0830
  315MOL    C8338391   3.567   6.370   7.326  0.1638 -0.4863  0.1553
  315MOL    H8438392   3.616   6.283   7.369  2.8290  1.4386  1.0811
  315MOL    H8538393   3.637   6.452   7.338  0.5482 -0.9525  1.1173
  315MOL    C8638394   3.427   6.395   7.384 -0.0932 -0.2210 -0.5160
  315MOL   Cl8738395   3.281   6.327   7.302  0.2525 -0.1329 -0.0347
  315MOL   Cl8838396   3.396   6.574   7.359 -0.3492  0.0631 -0.7265
  315MOL    C8938397   3.424   6.363   7.537 -0.3352 -0.5860 -0.0161
  315MOL    H9038398   3.401   6.258   7.522  2.5494 -1.5400  1.9500
  315MOL    H9138399   3.522   6.384   7.579 -0.6714 -1.6112  1.3101
  315MOL    C9238400   3.320   6.421   7.638 -0.3223 -0.3899 -0.3708
  315MOL   Cl9338401   3.145   6.416   7.573 -0.2933 -0.2622 -0.1767
  315MOL   Cl9438402   3.370   6.588   7.683  0.2737  0.0333  0.3494
  315MOL    C9538403   3.311   6.336   7.768  0.0176  0.7386  0.8898
  315MOL    H9638404   3.236   6.397   7.818 -2.8061 -1.7561 -0.1255
  315MOL    H9738405   3.256   6.248   7.732 -0.7580  1.1105  1.1484
  315MOL    C9838406   3.431   6.296   7.863 -0.2014 -0.1796  0.0557
  315MOL   Cl9938407   3.552   6.418   7.878 -0.4386 -0.4251  0.0269
  315MOL  Cl10038408   3.509   6.163   7.772 -0.0043  0.0368  0.2781
  315MOL   C10138409   3.358   6.256   7.998  0.7554 -0.2475  0.3037
  315MOL   H10238410   3.303   6.343   8.035 -1.6234 -1.4064 -0.3555
  315MOL   H10338411   3.278   6.189   7.967  0.2804  1.3623 -2.0812
  315MOL   C10438412   3.443   6.182   8.102 -0.0437  0.5080 -0.4897
  315MOL  Cl10538413   3.499   6.022   8.043 -0.1091 -0.3844  0.5158
  315MOL  Cl10638414   3.338   6.156   8.248  0.0273 -0.1166  0.1419
  315MOL   C10738415   3.566   6.270   8.147 -0.4044 -0.3135  0.6739
  315MOL   H10838416   3.643   6.266   8.070  1.0477  0.8843  2.0383
  315MOL   H10938417   3.538   6.375   8.152 -0.7179 -0.3272 -0.5769
  315MOL   C11038418   3.649   6.244   8.276 -0.0092  0.0279 -0.1145
  315MOL  Cl11138419   3.569   6.330   8.413  0.0148  0.1605 -0.6407
  315MOL  Cl11238420   3.805   6.319   8.249  0.2130  0.4168 -0.3546
  315MOL   C11338421   3.671   6.096   8.315 -0.0497  0.1385  0.2718
  315MOL   H11438422   3.568   6.064   8.329  0.3104 -0.4459  1.7213
  315MOL   H11538423   3.715   6.049   8.227 -0.2434  0.3912  0.0379
  315MOL   C11638424   3.749   6.053   8.445 -0.3634 -0.2556 -0.2322
  315MOL  Cl11738425   3.921   6.061   8.398  0.7672  0.1130  0.1340
  315MOL  Cl11838426   3.716   5.881   8.475  0.3370 -0.2210 -0.2031
  315MOL   C11938427   3.707   6.115   8.582 -0.2402 -0.5866  0.0742
  315MOL   H12038428   3.767   6.076   8.664 -1.5832 -1.1740  0.7820
  315MOL   H12138429   3.730   6.222   8.577 -1.9674 -0.1500  1.1332
  315MOL   H12238430   3.602   6.106   8.608 -1.0388  2.9136 -1.5896
  316MOL     C138431   4.481   4.361   4.768  0.5539 -0.3768  0.4050
  316MOL    Cl238432   4.636   4.316   4.841 -0.2570 -0.4177 -0.2843
  316MOL    Cl338433   4.430   4.514   4.840  0.3213 -0.4444  0.0913
  316MOL     C438434   4.495   4.366   4.617 -0.3481  1.1238  0.1312
  316MOL     H538435   4.511   4.469   4.586  0.9352  1.1624  0.8677
  316MOL     H638436   4.583   4.313   4.580 -1.2577 -0.3402  0.0168
  316MOL     H738437   4.408   4.287   4.800 -0.3434  0.1564 -0.4169
  316MOL     C838438   4.382   4.308   4.537  0.5720  0.3791 -0.1550
  316MOL    Cl938439   4.223   4.373   4.579  0.3259 -0.2506 -0.1791
  316MOL   Cl1038440   4.374   4.133   4.567  0.1825 -0.0837  0.0392
  316MOL    C1138441   4.399   4.314   4.381  0.1660  0.3565  0.2148
  316MOL    H1238442   4.333   4.236   4.343 -2.1060  1.2505  2.2439
  316MOL    H1338443   4.367   4.416   4.362  1.1236  0.8962  1.4841
  316MOL    C1438444   4.536   4.299   4.302 -0.5261  0.5759  0.1259
  316MOL   Cl1538445   4.622   4.150   4.358  0.1147  0.1585  0.2747
  316MOL   Cl1638446   4.642   4.444   4.333 -0.2384  0.1059  0.0241
  316MOL    C1738447   4.516   4.271   4.151 -0.1755  0.2483  0.3693
  316MOL    H1838448   4.615   4.261   4.107  0.5631  2.3851  1.4871
  316MOL    H1938449   4.468   4.173   4.152  2.9161 -1.3271  0.3384
  316MOL    C2038450   4.425   4.351   4.066  0.2857 -0.0572  0.4598
  316MOL   Cl2138451   4.479   4.518   4.055 -0.3730  0.2187 -0.1408
  316MOL   Cl2238452   4.249   4.348   4.116 -0.1760  0.0261 -0.1598
  316MOL    C2338453   4.437   4.304   3.916  0.2104  0.1876 -0.0116
  316MOL    H2438454   4.359   4.353   3.858 -0.2430 -0.7518 -0.2016
  316MOL    H2538455   4.526   4.350   3.873  1.5235 -2.2932 -0.0381
  316MOL    C2638456   4.430   4.157   3.861  0.8366  0.2335 -0.6064
  316MOL   Cl2738457   4.581   4.077   3.927 -0.0101 -0.3488  1.0900
  316MOL   Cl2838458   4.448   4.164   3.681  0.1929  0.1331 -0.2114
  316MOL    C2938459   4.297   4.086   3.902  0.2097  0.5993 -0.0227
  316MOL    H3038460   4.304   4.069   4.010  1.9368 -3.9141 -0.7065
  316MOL    H3138461   4.213   4.154   3.891 -1.6850 -1.2497  2.1406
  316MOL    C3238462   4.257   3.950   3.841 -0.1427  0.1669 -0.0514
  316MOL   Cl3338463   4.148   3.884   3.966  0.0366  0.1296 -0.2696
  316MOL   Cl3438464   4.398   3.837   3.829 -0.5340  0.3203  0.1558
  316MOL    C3538465   4.181   3.968   3.703 -0.4852  0.1150 -0.0960
  316MOL    H3638466   4.095   4.026   3.735  0.5107  2.9933 -2.3748
  316MOL    H3738467   4.236   4.036   3.637  0.4373 -0.0746  0.4701
  316MOL    C3838468   4.154   3.845   3.607 -1.1149 -0.0655 -0.5763
  316MOL   Cl3938469   4.077   3.718   3.702 -0.0462 -0.3930 -0.5896
  316MOL   Cl4038470   4.306   3.784   3.528  0.0104 -0.0141 -0.0486
  316MOL    C4138471   4.060   3.870   3.483  0.2991  0.1291  0.2180
  316MOL    H4238472   4.124   3.911   3.405 -0.3209  1.7025  0.5243
  316MOL    H4338473   4.017   3.775   3.450 -0.3157  0.2276  0.7138
  316MOL    C4438474   3.942   3.975   3.484  0.5144  0.6334 -0.6353
  316MOL   Cl4538475   4.015   4.136   3.465  0.1397  0.1059  0.2233
  316MOL   Cl4638476   3.856   3.970   3.641 -0.4324  0.2062 -0.1640
  316MOL    C4738477   3.847   3.950   3.368 -0.1624 -0.1424  0.1360
  316MOL    H4838478   3.893   4.003   3.285 -0.4150 -0.4611 -0.2047
  316MOL    H4938479   3.840   3.842   3.355 -1.6455 -0.4017  2.6606
  316MOL    C5038480   3.704   4.008   3.367 -0.0352  0.3093 -0.7764
  316MOL   Cl5138481   3.648   3.991   3.197  0.3595 -0.2600  0.4015
  316MOL   Cl5238482   3.704   4.178   3.412 -0.0569 -0.0889  0.4453
  316MOL    C5338483   3.592   3.931   3.448 -0.1967  0.6580 -0.1302
  316MOL    H5438484   3.591   3.971   3.550 -0.1513  0.5069 -0.0704
  316MOL    H5538485   3.500   3.962   3.398  0.1079 -0.2994 -1.3078
  316MOL    C5638486   3.584   3.773   3.447 -0.6405  0.4626 -0.2303
  316MOL   Cl5738487   3.709   3.692   3.544 -0.5247 -0.0541 -0.4218
  316MOL   Cl5838488   3.602   3.704   3.287 -0.0089  0.0564  0.6336
  316MOL    C5938489   3.449   3.726   3.497  0.1629 -0.4386  0.2572
  316MOL    H6038490   3.371   3.743   3.424 -0.3609 -0.1040  0.8912
  316MOL    H6138491   3.454   3.617   3.500  0.3905 -0.4148  0.8874
  316MOL    C6238492   3.375   3.782   3.618  0.2658 -0.1184 -0.1773
  316MOL   Cl6338493   3.233   3.671   3.644 -0.0984 -0.2349  0.1411
  316MOL   Cl6438494   3.316   3.948   3.597 -0.1012 -0.0139  0.4654
  316MOL    C6538495   3.461   3.764   3.742  0.5266  0.4097 -1.2817
  316MOL    H6638496   3.504   3.664   3.728  1.3066  0.8674 -2.2654
  316MOL    H6738497   3.547   3.830   3.730 -0.2311  1.9544  1.4646
  316MOL    C6838498   3.416   3.779   3.886  0.4020  0.6889 -0.6275
  316MOL   Cl6938499   3.339   3.630   3.941  0.2512 -0.2311 -0.2482
  316MOL   Cl7038500   3.301   3.919   3.907 -0.1754 -0.4145  0.1255
  316MOL    C7138501   3.527   3.809   4.002  0.0177 -0.4434 -1.0762
  316MOL    H7238502   3.474   3.853   4.087  2.0260  1.3671 -0.7106
  316MOL    H7338503   3.566   3.713   4.034 -0.2019 -0.0212  0.5221
  316MOL    C7438504   3.653   3.898   3.961  0.2030  0.2393 -0.1601
  316MOL   Cl7538505   3.620   4.042   3.859 -0.1083  0.3559  0.0801
  316MOL   Cl7638506   3.766   3.794   3.860 -0.6298 -0.3543  0.2458
  316MOL    C7738507   3.735   3.964   4.081 -0.1845  0.1944 -0.1849
  316MOL    H7838508   3.823   3.996   4.025  0.5049 -1.4378 -0.0551
  316MOL    H7938509   3.689   4.057   4.114  2.1575  1.4501 -0.3530
  316MOL    C8038510   3.787   3.880   4.199 -0.4008  0.1007  0.0735
  316MOL   Cl8138511   3.831   3.715   4.161 -0.0271  0.0050 -0.0866
  316MOL   Cl8238512   3.650   3.845   4.315 -0.4646 -0.1019  0.0047
  316MOL    C8338513   3.908   3.939   4.273 -0.6882 -0.7880  0.6123
  316MOL    H8438514   3.914   3.891   4.371  0.4090 -1.2035  0.3536
  316MOL    H8538515   3.998   3.902   4.224 -0.3157 -0.3433  0.9476
  316MOL    C8638516   3.921   4.094   4.299 -0.4667 -0.2767 -0.6597
  316MOL   Cl8738517   3.993   4.159   4.145 -0.7636 -0.4482  0.0433
  316MOL   Cl8838518   4.036   4.125   4.433  0.0267  0.0688 -0.1128
  316MOL    C8938519   3.788   4.170   4.346  0.2990  1.5614 -0.1448
  316MOL    H9038520   3.698   4.111   4.329  2.0459 -1.3617  0.3493
  316MOL    H9138521   3.787   4.168   4.455  0.7469  2.5416 -0.1166
  316MOL    C9238522   3.764   4.317   4.312  0.0716 -0.1543  0.6469
  316MOL   Cl9338523   3.621   4.367   4.409  0.3424 -0.0713  0.0120
  316MOL   Cl9438524   3.716   4.324   4.141  0.3210 -0.0427  0.1503
  316MOL    C9538525   3.881   4.402   4.353 -0.1471 -0.3779  0.2343
  316MOL    H9638526   3.873   4.425   4.460  1.1451  1.3577 -0.0199
  316MOL    H9738527   3.975   4.348   4.342 -1.0353 -1.3825 -2.7659
  316MOL    C9838528   3.911   4.532   4.279 -0.0283  0.1705  0.8811
  316MOL   Cl9938529   3.968   4.491   4.111 -0.1233  0.2708 -0.0322
  316MOL  Cl10038530   4.043   4.599   4.374  0.0430 -0.3718 -0.0505
  316MOL   C10138531   3.785   4.626   4.265  0.2179  0.0570 -0.0910
  316MOL   H10238532   3.721   4.585   4.187 -0.6691  0.3926  0.4496
  316MOL   H10338533   3.730   4.632   4.359 -0.4895 -1.0599 -0.4230
  316MOL   C10438534   3.781   4.770   4.213  0.2731  0.7248 -0.1286
  316MOL  Cl10538535   3.605   4.807   4.168  0.5581  0.2509 -0.2633
  316MOL  Cl10638536   3.856   4.787   4.050  0.0010  0.4329  0.1390
  316MOL   C10738537   3.842   4.889   4.293  0.1680  0.5985 -0.0064
  316MOL   H10838538   3.945   4.862   4.314 -0.0271 -1.2899 -1.3237
  316MOL   H10938539   3.853   4.972   4.224  0.0149  0.6908  0.0811
  316MOL   C11038540   3.785   4.944   4.418 -0.8516 -0.3293  0.2204
  316MOL  Cl11138541   3.908   5.061   4.465 -0.0019 -0.5718  0.2469
  316MOL  Cl11238542   3.784   4.808   4.547 -0.5509 -0.1445 -0.2884
  316MOL   C11338543   3.639   4.996   4.401  0.3360  0.3469  0.0552
  316MOL   H11438544   3.628   5.023   4.296  0.1118  3.4205  0.8053
  316MOL   H11538545   3.580   4.906   4.417  0.4349  0.2281 -0.2490
  316MOL   C11638546   3.591   5.116   4.494  0.2249  0.4498  0.3289
  316MOL  Cl11738547   3.414   5.114   4.488 -0.0217 -0.3967  0.3115
  316MOL  Cl11838548   3.644   5.276   4.427  0.0272 -0.1389 -0.1985
  316MOL   C11938549   3.626   5.099   4.646 -0.1236 -0.3684 -0.4445
  316MOL   H12038550   3.584   5.010   4.692 -0.0749  0.3789  1.0849
  316MOL   H12138551   3.731   5.103   4.675 -0.6154  0.3898  1.2925
  316MOL   H12238552   3.575   5.178   4.701 -1.6790 -0.2451 -2.0157
  317MOL     C138553   4.628   6.290   6.514  0.2145  0.5325 -0.1261
  317MOL    Cl238554   4.459   6.332   6.552 -0.4122  0.0045  0.1218
  317MOL    Cl338555   4.658   6.155   6.617 -0.6061  0.2116 -0.0966
  317MOL     C438556   4.634   6.260   6.365  0.6433  0.2341 -0.1239
  317MOL     H538557   4.725   6.199   6.358 -0.0295 -0.9847  1.3720
  317MOL     H638558   4.553   6.202   6.320  1.6453  0.6529 -2.5472
  317MOL     H738559   4.700   6.367   6.544  1.7628 -0.7504 -0.4461
  317MOL     C838560   4.666   6.382   6.271 -0.1709 -0.0136 -0.0123
  317MOL    Cl938561   4.822   6.453   6.310  0.0796 -0.0181  0.3306
  317MOL   Cl1038562   4.538   6.500   6.286  0.1976 -0.1965  0.0788
  317MOL    C1138563   4.682   6.350   6.113 -0.2067 -0.5245 -0.1420
  317MOL    H1238564   4.590   6.355   6.055 -0.3949  1.2010  0.2757
  317MOL    H1338565   4.743   6.429   6.069  0.0595 -0.6282  0.0374
  317MOL    C1438566   4.748   6.212   6.064 -0.7611  0.0113 -0.7957
  317MOL   Cl1538567   4.631   6.081   6.096  0.1063  0.1803 -0.0601
  317MOL   Cl1638568   4.897   6.186   6.160 -0.1457  0.1374  0.2715
  317MOL    C1738569   4.785   6.211   5.913  0.4026  0.1644  0.0113
  317MOL    H1838570   4.881   6.263   5.904  1.1796 -1.3534 -0.7272
  317MOL    H1938571   4.804   6.109   5.880 -1.1265 -0.1920  0.2317
  317MOL    C2038572   4.694   6.258   5.794 -0.0396  0.5276  0.1477
  317MOL   Cl2138573   4.671   6.436   5.804 -0.4979  0.3396  0.0153
  317MOL   Cl2238574   4.534   6.184   5.804 -0.7577  0.4551  0.0717
  317MOL    C2338575   4.752   6.212   5.654  0.1265 -0.2035 -0.0552
  317MOL    H2438576   4.761   6.104   5.659 -1.2477 -0.2904  0.8514
  317MOL    H2538577   4.685   6.232   5.570  0.1503 -0.7672 -0.2074
  317MOL    C2638578   4.888   6.261   5.589  0.1263 -0.0311  0.1505
  317MOL   Cl2738579   5.020   6.189   5.686 -0.0412 -0.0146  0.0938
  317MOL   Cl2838580   4.905   6.439   5.588  0.0963  0.1862 -0.0542
  317MOL    C2938581   4.929   6.204   5.454 -0.4577  0.1222 -0.2444
  317MOL    H3038582   5.028   6.240   5.428  0.4079 -2.7727 -1.1393
  317MOL    H3138583   4.933   6.097   5.474 -0.1206  0.1974  0.0880
  317MOL    C3238584   4.834   6.204   5.330  0.4971 -0.5606  0.1208
  317MOL   Cl3338585   4.768   6.371   5.303 -0.0666  0.4517 -0.1185
  317MOL   Cl3438586   4.695   6.087   5.345 -0.2469  0.3000  0.1582
  317MOL    C3538587   4.923   6.183   5.206 -0.4295 -0.5456  0.6231
  317MOL    H3638588   4.993   6.266   5.204 -1.4114  0.3584  2.5151
  317MOL    H3738589   4.989   6.103   5.241  0.5119 -0.3837 -0.7695
  317MOL    C3838590   4.880   6.150   5.059  0.4003  0.1414 -0.3301
  317MOL   Cl3938591   4.797   5.995   5.062 -0.2067  0.1262  0.1414
  317MOL   Cl4038592   5.040   6.117   4.986  0.1481  0.3949 -0.3998
  317MOL    C4138593   4.804   6.263   4.986  0.5161  0.1141 -0.1903
  317MOL    H4238594   4.712   6.266   5.045  0.3417 -0.2732 -0.4378
  317MOL    H4338595   4.847   6.363   4.991  0.4918  0.0843  0.7642
  317MOL    C4438596   4.766   6.240   4.835 -0.0692  0.1023  0.1815
  317MOL   Cl4538597   4.678   6.390   4.801 -0.0322  0.1504 -0.7319
  317MOL   Cl4638598   4.660   6.100   4.807 -0.0056 -0.3760 -0.5147
  317MOL    C4738599   4.889   6.221   4.734 -0.3544  0.3978  0.2585
  317MOL    H4838600   4.961   6.293   4.772  1.2858 -2.1267  2.0500
  317MOL    H4938601   4.916   6.119   4.762 -0.7189  0.1971 -0.1185
  317MOL    C5038602   4.884   6.235   4.576 -0.3084  0.2576 -0.5115
  317MOL   Cl5138603   5.053   6.245   4.508 -0.2183  0.0654 -0.0647
  317MOL   Cl5238604   4.800   6.379   4.525 -0.2136 -0.1625  0.0211
  317MOL    C5338605   4.810   6.106   4.516 -0.1248  0.2588  1.1157
  317MOL    H5438606   4.831   6.024   4.584  1.8493  1.5430  2.1164
  317MOL    H5538607   4.703   6.122   4.528 -0.4452 -0.4896 -0.6834
  317MOL    C5638608   4.819   6.065   4.371 -0.3825  0.4951  0.3007
  317MOL   Cl5738609   4.827   6.207   4.267 -0.1792  0.2346  0.3541
  317MOL   Cl5838610   4.669   5.973   4.335  0.2311  0.2894  0.3473
  317MOL    C5938611   4.938   5.968   4.351  0.3127  0.3054  0.1383
  317MOL    H6038612   5.020   6.007   4.411 -0.6974  1.9952  0.4665
  317MOL    H6138613   4.912   5.883   4.413 -1.2712  0.2535 -0.5686
  317MOL    C6238614   4.983   5.914   4.208 -0.0955  0.1751  0.1900
  317MOL   Cl6338615   5.086   6.034   4.136  0.1726  0.3218 -0.2725
  317MOL   Cl6438616   4.843   5.901   4.088 -0.0155 -0.3871  0.1006
  317MOL    C6538617   5.051   5.778   4.210 -0.5393  0.1313 -0.1401
  317MOL    H6638618   5.078   5.755   4.107 -1.4987 -0.4708 -0.2598
  317MOL    H6738619   5.147   5.792   4.260 -0.4290  1.0556 -0.5893
  317MOL    C6838620   4.994   5.645   4.277  0.2122  0.2600 -0.4770
  317MOL   Cl6938621   5.032   5.664   4.450 -0.5396  0.1674 -0.5767
  317MOL   Cl7038622   5.088   5.513   4.208  0.0509 -0.5050  0.1838
  317MOL    C7138623   4.839   5.637   4.249 -0.9198 -0.0230  0.0476
  317MOL    H7238624   4.792   5.731   4.276  0.7562  1.1732 -1.1039
  317MOL    H7338625   4.828   5.607   4.144  0.1623 -0.5308  0.0680
  317MOL    C7438626   4.740   5.538   4.330  0.1693 -1.0798 -0.2342
  317MOL   Cl7538627   4.793   5.368   4.322 -0.4318  0.0013  0.1443
  317MOL   Cl7638628   4.582   5.565   4.238 -0.2404 -0.1712  0.0043
  317MOL    C7738629   4.718   5.576   4.474 -0.3654  0.2997  0.6549
  317MOL    H7838630   4.816   5.565   4.521 -0.5890 -0.4070  0.9577
  317MOL    H7938631   4.694   5.682   4.474  0.9279  0.6103 -0.4927
  317MOL    C8038632   4.618   5.514   4.577  0.0023 -0.0056  0.8309
  317MOL   Cl8138633   4.649   5.344   4.604  0.1414  0.0699  0.0518
  317MOL   Cl8238634   4.459   5.524   4.506  0.3068  0.1119 -0.2483
  317MOL    C8338635   4.612   5.597   4.715  0.1470 -0.2197  0.7011
  317MOL    H8438636   4.578   5.698   4.694 -0.3414 -1.0505 -2.8175
  317MOL    H8538637   4.528   5.561   4.775  1.1611 -0.6786  1.8856
  317MOL    C8638638   4.738   5.640   4.797 -1.1367 -0.8092  0.1516
  317MOL   Cl8738639   4.805   5.782   4.726  0.1588 -0.7634  0.1678
  317MOL   Cl8838640   4.873   5.517   4.819 -0.3093 -0.3369  0.3469
  317MOL    C8938641   4.690   5.687   4.934 -0.1914 -0.2333  0.0466
  317MOL    H9038642   4.756   5.765   4.973  2.1955 -2.4539  0.5681
  317MOL    H9138643   4.599   5.744   4.916 -1.7918 -2.0417  2.2058
  317MOL    C9238644   4.646   5.595   5.046  0.1739 -0.4201  0.5459
  317MOL   Cl9338645   4.798   5.556   5.147 -0.1677 -0.1026 -0.3060
  317MOL   Cl9438646   4.571   5.445   4.988  0.2960 -0.0640 -0.5543
  317MOL    C9538647   4.542   5.656   5.143 -0.6254  0.2969  0.5746
  317MOL    H9638648   4.560   5.598   5.234  1.6213  0.7930  0.4719
  317MOL    H9738649   4.579   5.754   5.172  2.1340  0.1396 -2.1762
  317MOL    C9838650   4.386   5.659   5.120  0.2558 -1.1669  0.4402
  317MOL   Cl9938651   4.334   5.671   4.954  0.4506  0.1825  0.2399
  317MOL  Cl10038652   4.341   5.817   5.200 -0.0817  0.1319 -0.3561
  317MOL   C10138653   4.323   5.543   5.196  0.2000 -0.1084 -0.3889
  317MOL   H10238654   4.363   5.446   5.169  1.7358 -0.8193  4.0692
  317MOL   H10338655   4.357   5.545   5.300  2.4800 -2.5018 -1.0515
  317MOL   C10438656   4.167   5.511   5.213 -0.0888 -0.2310  0.0183
  317MOL  Cl10538657   4.084   5.654   5.294 -0.0229  0.1643  0.5086
  317MOL  Cl10638658   4.156   5.381   5.327 -0.1380 -0.2384 -0.3224
  317MOL   C10738659   4.084   5.483   5.079  0.0560  0.6935 -0.3034
  317MOL   H10838660   3.982   5.515   5.099 -0.4096  0.2141 -1.8047
  317MOL   H10938661   4.117   5.570   5.021 -0.9846  2.5344  1.8017
  317MOL   C11038662   4.093   5.348   5.005  0.1752 -0.0765 -1.0069
  317MOL  Cl11138663   3.976   5.236   5.082 -0.0999  0.4863 -0.5265
  317MOL  Cl11238664   4.253   5.279   5.013  0.0846 -0.0058  0.0717
  317MOL   C11338665   4.051   5.366   4.855  0.0064 -0.2620  0.3019
  317MOL   H11438666   4.137   5.421   4.817 -0.5873  1.0764  0.8375
  317MOL   H11538667   4.055   5.275   4.796  1.6433 -0.8068  1.2284
  317MOL   C11638668   3.932   5.453   4.807 -0.3073 -0.2197  0.2996
  317MOL  Cl11738669   3.963   5.628   4.837  0.3941 -0.3116  0.3557
  317MOL  Cl11838670   3.775   5.397   4.877 -0.5173 -0.0640  0.0032
  317MOL   C11938671   3.927   5.436   4.657  0.2877  0.6314  0.5954
  317MOL   H12038672   4.015   5.456   4.596 -1.2145  1.5337 -1.3368
  317MOL   H12138673   3.912   5.329   4.637  0.5681  0.7605 -0.3373
  317MOL   H12238674   3.858   5.494   4.595 -0.4861  1.3032  2.0623
  318MOL     C138675   2.865   4.079   8.778  0.1496 -0.4649 -0.9578
  318MOL    Cl238676   2.749   3.954   8.724  0.1739 -0.2949  0.1283
  318MOL    Cl338677   2.809   4.133   8.939 -0.1460  0.4218  0.3908
  318MOL     C438678   3.007   4.022   8.784 -0.6203  0.3249  0.5260
  318MOL     H538679   3.061   4.070   8.865 -1.0471 -1.3247  1.8115
  318MOL     H638680   3.016   3.923   8.828 -1.6612 -0.0021  0.0071
  318MOL     H738681   2.859   4.171   8.719 -0.8322 -1.0115 -1.7369
  318MOL     C838682   3.085   4.022   8.648 -0.5181  0.4988 -0.1711
  318MOL    Cl938683   3.261   4.006   8.697 -0.0449  0.0007  0.0537
  318MOL   Cl1038684   3.076   4.184   8.565  0.3357  0.0231  0.1698
  318MOL    C1138685   3.046   3.924   8.534 -0.2918 -0.4838 -0.1405
  318MOL    H1238686   2.941   3.938   8.512  0.0987 -1.8779 -3.0763
  318MOL    H1338687   3.089   3.967   8.444  0.3390  0.6418  0.6770
  318MOL    C1438688   3.075   3.773   8.543 -1.0994 -0.3811 -0.2083
  318MOL   Cl1538689   2.981   3.706   8.675 -0.3213 -0.3013  0.0063
  318MOL   Cl1638690   3.245   3.726   8.569 -0.2918 -0.0581 -0.3945
  318MOL    C1738691   3.024   3.698   8.417  0.4169  0.6229 -0.3994
  318MOL    H1838692   3.061   3.595   8.418 -0.2708  0.3750  1.5209
  318MOL    H1938693   2.917   3.688   8.434  0.7640 -0.7165  1.1696
  318MOL    C2038694   3.055   3.745   8.269 -0.1117  0.5855  0.7390
  318MOL   Cl2138695   3.222   3.791   8.270 -0.0835  0.1369  0.5853
  318MOL   Cl2238696   2.951   3.880   8.237  0.3495 -0.2229 -0.4347
  318MOL    C2338697   3.031   3.633   8.161  0.1829 -0.3874  0.2777
  318MOL    H2438698   3.098   3.549   8.178  0.0658 -0.8865 -1.6126
  318MOL    H2538699   2.931   3.594   8.173 -0.9122  1.4301 -2.4489
  318MOL    C2638700   3.060   3.656   8.005  0.6457 -0.0575 -0.1859
  318MOL   Cl2738701   2.983   3.513   7.924  0.2606  0.1554  0.0197
  318MOL   Cl2838702   3.238   3.667   7.990  0.3777  0.2641 -0.0217
  318MOL    C2938703   3.000   3.783   7.939  0.3682 -0.0180  0.1600
  318MOL    H3038704   3.027   3.871   7.998 -0.1583  0.6735 -0.6242
  318MOL    H3138705   3.044   3.793   7.840  0.6539  0.0771  0.2959
  318MOL    C3238706   2.842   3.792   7.905  0.7561  0.2605  0.2034
  318MOL   Cl3338707   2.738   3.726   8.035 -0.1516  0.0858  0.4101
  318MOL   Cl3438708   2.796   3.704   7.758 -0.3063 -0.0995 -0.0780
  318MOL    C3538709   2.797   3.943   7.902  0.6090  0.5382 -1.0686
  318MOL    H3638710   2.689   3.955   7.902  0.6056  0.5219 -0.7330
  318MOL    H3738711   2.827   3.982   7.999 -0.4158 -1.6485  0.1673
  318MOL    C3838712   2.846   4.038   7.782 -0.0917  0.2313  0.3221
  318MOL   Cl3938713   3.023   4.038   7.772  0.4121  0.0783  0.6576
  318MOL   Cl4038714   2.804   4.203   7.828  0.0261  0.2886 -0.0628
  318MOL    C4138715   2.791   4.012   7.638  0.5235  0.2621  0.0070
  318MOL    H4238716   2.863   4.045   7.563  0.4844 -1.4178 -0.8029
  318MOL    H4338717   2.796   3.903   7.634  0.9627  0.2484  0.8498
  318MOL    C4438718   2.661   4.081   7.586 -0.6255  0.2788  0.6534
  318MOL   Cl4538719   2.632   3.976   7.453 -0.0501  0.0479  0.0075
  318MOL   Cl4638720   2.686   4.244   7.518  0.6748 -0.1340  0.2119
  318MOL    C4738721   2.536   4.075   7.685 -0.0162  0.6975 -0.8118
  318MOL    H4838722   2.518   3.968   7.681 -0.0471  0.7558 -2.4494
  318MOL    H4938723   2.557   4.101   7.789 -1.7573 -0.7350 -0.0721
  318MOL    C5038724   2.408   4.146   7.654 -0.5672  0.3736 -0.1233
  318MOL   Cl5138725   2.373   4.149   7.480  0.0355 -0.1359 -0.0099
  318MOL   Cl5238726   2.423   4.311   7.715  0.2342 -0.1981 -0.2173
  318MOL    C5338727   2.284   4.085   7.718  0.6287 -0.1104 -0.2192
  318MOL    H5438728   2.205   4.159   7.703 -1.1566 -1.6827  1.2042
  318MOL    H5538729   2.261   4.001   7.652 -0.4066 -0.1977  0.2427
  318MOL    C5638730   2.286   4.033   7.868 -0.0752 -0.7675  0.0941
  318MOL   Cl5738731   2.363   4.153   7.981  0.2919 -0.0743  0.6999
  318MOL   Cl5838732   2.378   3.876   7.867 -0.1423 -0.1991  0.1639
  318MOL    C5938733   2.144   3.994   7.921 -0.3142  1.0016  0.3452
  318MOL    H6038734   2.116   3.900   7.874 -2.6637  0.6878  2.2884
  318MOL    H6138735   2.151   3.982   8.029 -2.1599  0.1947  0.3938
  318MOL    C6238736   2.019   4.088   7.905 -0.5835 -0.5643 -0.2372
  318MOL   Cl6338737   1.958   4.087   7.737 -0.7662 -0.5760 -0.1791
  318MOL   Cl6438738   2.051   4.255   7.939  0.6912  0.0278 -0.0482
  318MOL    C6538739   1.895   4.043   7.984 -0.0506 -0.8126 -0.2435
  318MOL    H6638740   1.818   4.120   7.977  1.0672  0.5439  1.8284
  318MOL    H6738741   1.843   3.962   7.932 -1.8044  0.8825 -1.2082
  318MOL    C6838742   1.900   3.990   8.126 -0.5772  1.0477  0.5568
  318MOL   Cl6938743   2.024   4.076   8.219 -0.2853 -0.3984  0.0515
  318MOL   Cl7038744   1.951   3.819   8.124 -0.3293  0.2255  0.4635
  318MOL    C7138745   1.770   4.001   8.212 -0.1085  0.1824 -0.2191
  318MOL    H7238746   1.791   3.965   8.313 -0.2855  1.6505  0.3604
  318MOL    H7338747   1.748   4.107   8.226  0.3379  0.0676  1.5155
  318MOL    C7438748   1.635   3.945   8.157 -0.1155 -0.1905  0.2082
  318MOL   Cl7538749   1.654   3.789   8.070 -0.0452 -0.0314  0.2165
  318MOL   Cl7638750   1.555   4.057   8.053  0.2350  0.4132  0.0805
  318MOL    C7738751   1.520   3.915   8.258  0.2161 -0.3017 -0.5218
  318MOL    H7838752   1.431   3.870   8.213 -0.5366  0.4378  0.2014
  318MOL    H7938753   1.551   3.840   8.330  0.5944  2.1441  1.9604
  318MOL    C8038754   1.482   4.010   8.376  0.7136  0.0028  0.3011
  318MOL   Cl8138755   1.625   4.043   8.484  0.0875  0.0028 -0.0534
  318MOL   Cl8238756   1.354   3.927   8.479  0.3260 -0.3118  0.2687
  318MOL    C8338757   1.443   4.157   8.333  0.3353  0.5571 -0.3635
  318MOL    H8438758   1.441   4.205   8.431 -1.0624 -0.9202  0.3783
  318MOL    H8538759   1.520   4.204   8.273  0.3798  0.1256 -0.6518
  318MOL    C8638760   1.298   4.202   8.289 -0.6000  0.2466  0.0257
  318MOL   Cl8738761   1.249   4.105   8.146  0.2883  0.2342  0.2293
  318MOL   Cl8838762   1.319   4.369   8.233  0.1257 -0.3633 -0.0281
  318MOL    C8938763   1.175   4.189   8.388 -0.6393  0.3038  0.9973
  318MOL    H9038764   1.088   4.215   8.326  0.0973 -0.9806 -0.6130
  318MOL    H9138765   1.166   4.081   8.404 -1.1799  0.4949  1.9918
  318MOL    C9238766   1.156   4.263   8.520  0.4839  0.2168  0.8314
  318MOL   Cl9338767   1.158   4.437   8.493  0.0612  0.2775  0.3044
  318MOL   Cl9438768   1.288   4.231   8.629  0.3220 -0.1694  0.2820
  318MOL    C9538769   1.024   4.210   8.591 -0.8174 -0.4165  0.6588
  318MOL    H9638770   0.952   4.186   8.513  0.5582 -0.9873 -0.4598
  318MOL    H9738771   1.041   4.110   8.631 -0.3276 -0.4308  0.4237
  318MOL    C9838772   0.940   4.279   8.703  0.0915 -0.1510 -0.5641
  318MOL   Cl9938773   0.863   4.431   8.633 -0.1033 -0.4848  0.2475
  318MOL  Cl10038774   1.064   4.328   8.825 -0.0047  0.3926  0.0762
  318MOL   C10138775   0.828   4.191   8.771  0.2801  1.0630  0.0248
  318MOL   H10238776   0.865   4.134   8.856 -0.6729  2.1866  1.2237
  318MOL   H10338777   0.762   4.266   8.815 -0.0093  1.0557 -0.3922
  318MOL   C10438778   0.741   4.101   8.682  0.5615 -0.3264  0.3322
  318MOL  Cl10538779   0.832   3.956   8.616  0.3544  0.1285  0.2921
  318MOL  Cl10638780   0.692   4.204   8.544  0.1964 -0.0135  0.7052
  318MOL   C10738781   0.609   4.057   8.757 -0.1927  1.1438 -0.2908
  318MOL   H10838782   0.548   4.146   8.773 -0.7881  0.7548 -0.3788
  318MOL   H10938783   0.555   3.997   8.684 -1.1620  0.4848  0.9584
  318MOL   C11038784   0.620   3.976   8.891 -0.0588  0.1251  0.1046
  318MOL  Cl11138785   0.673   4.077   9.020  0.0360 -0.1771 -0.4569
  318MOL  Cl11238786   0.730   3.833   8.887  0.1988 -0.0335 -0.1569
  318MOL   C11338787   0.477   3.930   8.941  0.0730 -0.2100  0.0455
  318MOL   H11438788   0.506   3.878   9.032 -0.5192 -2.3876 -0.9936
  318MOL   H11538789   0.422   4.017   8.976  0.8299 -0.1208  1.0497
  318MOL   C11638790   0.385   3.840   8.854  1.1397  0.0788 -0.5276
  318MOL  Cl11738791   0.470   3.700   8.786 -0.2559 -0.0324 -0.0690
  318MOL  Cl11838792   0.315   3.940   8.730 -0.1725 -0.0560 -0.1196
  318MOL   C11938793   0.275   3.772   8.941 -0.4019 -0.3253 -0.1386
  318MOL   H12038794   0.332   3.723   9.020  3.0189 -0.4294 -2.5852
  318MOL   H12138795   0.216   3.848   8.992 -0.3138 -0.1124 -0.3560
  318MOL   H12238796   0.210   3.698   8.893 -1.2459 -0.7499  1.5896
  319MOL     C138797   4.241   3.730   4.433 -0.5518 -0.3543 -0.1527
  319MOL    Cl238798   4.095   3.650   4.391 -0.3716 -0.3737 -0.1359
  319MOL    Cl338799   4.242   3.882   4.333 -0.2134  0.3784 -0.2583
  319MOL     C438800   4.259   3.768   4.578 -0.4013 -0.5947  0.4314
  319MOL     H538801   4.329   3.849   4.599  0.0936 -0.9277  0.0662
  319MOL     H638802   4.162   3.803   4.614 -0.6218  1.6390 -2.1641
  319MOL     H738803   4.331   3.679   4.402  1.4466  2.4544  0.7926
  319MOL     C838804   4.311   3.659   4.678 -0.0613  0.0735 -0.1899
  319MOL    Cl938805   4.458   3.587   4.628  0.0911 -0.1768 -0.0592
  319MOL   Cl1038806   4.189   3.529   4.690 -0.4739 -0.5232 -0.0094
  319MOL    C1138807   4.351   3.704   4.818  0.0892  0.1101 -0.6031
  319MOL    H1238808   4.375   3.615   4.875 -1.9746  1.0934  1.9407
  319MOL    H1338809   4.440   3.765   4.800  0.3643  0.1323  0.8122
  319MOL    C1438810   4.254   3.795   4.900  0.2393 -0.2819  0.1996
  319MOL   Cl1538811   4.089   3.733   4.896 -0.1418  0.5830  0.0844
  319MOL   Cl1638812   4.260   3.962   4.835  0.2586  0.0177 -0.3368
  319MOL    C1738813   4.305   3.806   5.049 -0.2235  0.1153  0.6100
  319MOL    H1838814   4.302   3.706   5.094 -0.0899 -0.7895 -1.3296
  319MOL    H1938815   4.413   3.802   5.046 -0.3131 -1.1356 -1.9577
  319MOL    C2038816   4.262   3.912   5.152  0.1057 -0.8901  0.0104
  319MOL   Cl2138817   4.274   3.835   5.315 -0.1958 -0.1711 -0.7430
  319MOL   Cl2238818   4.083   3.944   5.139  0.0205  0.4586  0.0554
  319MOL    C2338819   4.369   4.028   5.157 -0.4690  0.5774  1.0884
  319MOL    H2438820   4.445   4.007   5.231 -0.0087  0.4934  0.5903
  319MOL    H2538821   4.422   4.025   5.062 -1.7535  0.9660  0.3415
  319MOL    C2638822   4.334   4.177   5.174 -0.4659  0.5175  0.3315
  319MOL   Cl2738823   4.240   4.232   5.031 -0.1048  0.3105  0.2090
  319MOL   Cl2838824   4.494   4.259   5.172 -0.0903  0.3032 -0.1793
  319MOL    C2938825   4.247   4.218   5.293  0.6072  0.0806 -0.3920
  319MOL    H3038826   4.146   4.191   5.261  0.2817  0.6375  0.1546
  319MOL    H3138827   4.265   4.151   5.377  0.3744  0.4900 -0.0088
  319MOL    C3238828   4.244   4.360   5.353 -0.2778 -0.0529 -0.2960
  319MOL   Cl3338829   4.239   4.481   5.217 -0.2315 -0.0145 -0.6112
  319MOL   Cl3438830   4.394   4.395   5.446 -0.1715 -0.0440  0.2423
  319MOL    C3538831   4.122   4.381   5.457  0.2957 -0.1938 -0.6934
  319MOL    H3638832   4.142   4.320   5.545  1.0891  0.1071 -0.6610
  319MOL    H3738833   4.124   4.485   5.489  1.1298 -0.1302 -0.9458
  319MOL    C3838834   3.973   4.347   5.422 -0.2520  0.0250 -0.4805
  319MOL   Cl3938835   3.952   4.176   5.441 -0.0831  0.1359 -0.5838
  319MOL   Cl4038836   3.931   4.392   5.257  0.2756  0.2035 -0.1436
  319MOL    C4138837   3.874   4.419   5.514 -0.0277 -0.3397  0.0432
  319MOL    H4238838   3.889   4.527   5.504  1.4547 -0.3305  2.2416
  319MOL    H4338839   3.772   4.399   5.481 -0.2129 -2.6794  1.8807
  319MOL    C4438840   3.869   4.401   5.671  0.3607  0.9575 -0.3539
  319MOL   Cl4538841   4.029   4.445   5.740  0.1161  0.0497  0.1295
  319MOL   Cl4638842   3.834   4.237   5.716  0.1396 -0.5934 -0.1388
  319MOL    C4738843   3.759   4.504   5.728  0.1152  0.4869  0.3348
  319MOL    H4838844   3.813   4.598   5.729 -0.5444  0.9686 -3.0713
  319MOL    H4938845   3.677   4.515   5.657  1.1354 -0.0071 -0.9456
  319MOL    C5038846   3.699   4.481   5.862 -0.3077  0.6968  0.0789
  319MOL   Cl5138847   3.824   4.431   5.980  0.2713 -0.0993  0.1148
  319MOL   Cl5238848   3.582   4.348   5.854 -0.5218 -0.3064  0.0106
  319MOL    C5338849   3.639   4.608   5.931 -0.0912 -0.2052 -0.2090
  319MOL    H5438850   3.597   4.572   6.025 -0.9247 -0.4394 -0.6591
  319MOL    H5538851   3.726   4.672   5.946  0.8448 -2.3770  4.4750
  319MOL    C5638852   3.538   4.705   5.855 -0.4112 -0.1821 -0.2335
  319MOL   Cl5738853   3.390   4.608   5.794  0.4013 -0.0963  0.2071
  319MOL   Cl5838854   3.612   4.779   5.710  0.2554  0.2139 -0.0184
  319MOL    C5938855   3.472   4.806   5.953  0.3303 -0.4858 -0.0278
  319MOL    H6038856   3.397   4.862   5.897 -0.1677 -0.4122  0.7183
  319MOL    H6138857   3.413   4.739   6.015 -0.8207  0.8682  0.3563
  319MOL    C6238858   3.556   4.903   6.039  0.0568 -0.2546 -0.4414
  319MOL   Cl6338859   3.646   5.016   5.928  0.0609  0.1130 -0.2341
  319MOL   Cl6438860   3.678   4.827   6.148  0.0785  0.0493 -0.1068
  319MOL    C6538861   3.469   5.002   6.122  0.2170 -0.3803 -0.2820
  319MOL    H6638862   3.531   5.084   6.159 -1.3174  0.7148 -0.0922
  319MOL    H6738863   3.405   5.056   6.053 -0.1251  0.3603  0.5912
  319MOL    C6838864   3.369   4.955   6.237 -1.0264 -1.0171 -0.1950
  319MOL   Cl6938865   3.233   4.858   6.173 -0.1734  0.3058  0.2457
  319MOL   Cl7038866   3.292   5.103   6.295 -0.1538  0.1117  0.2582
  319MOL    C7138867   3.438   4.891   6.365 -0.6288 -0.4488  0.7167
  319MOL    H7238868   3.516   4.825   6.327 -0.2446 -0.1676  1.0196
  319MOL    H7338869   3.491   4.965   6.425  0.6237 -0.4092 -0.4050
  319MOL    C7438870   3.377   4.790   6.459 -0.2226 -0.0371  0.1368
  319MOL   Cl7538871   3.507   4.759   6.572 -0.4970  0.5910  0.3773
  319MOL   Cl7638872   3.350   4.646   6.366  0.2962 -0.0081 -0.3389
  319MOL    C7738873   3.249   4.850   6.535 -0.6352  0.0551 -0.7874
  319MOL    H7838874   3.296   4.879   6.629  0.3448 -1.0093 -0.9293
  319MOL    H7938875   3.218   4.943   6.489 -0.0096  0.1138 -1.0910
  319MOL    C8038876   3.138   4.756   6.574 -0.0178  0.5301  0.1001
  319MOL   Cl8138877   3.046   4.837   6.695 -0.2280  0.0832  0.0029
  319MOL   Cl8238878   3.200   4.609   6.655 -0.3063  0.1541 -0.3138
  319MOL    C8338879   3.047   4.721   6.448  0.1131 -0.5459 -0.5981
  319MOL    H8438880   3.058   4.805   6.380 -2.9438 -0.0834 -0.5666
  319MOL    H8538881   3.098   4.638   6.399  2.5700 -0.4148  1.5532
  319MOL    C8638882   2.894   4.688   6.459  0.3327 -0.2448 -0.0834
  319MOL   Cl8738883   2.846   4.634   6.302  0.1945  0.0974 -0.0040
  319MOL   Cl8838884   2.809   4.838   6.480  0.5201 -0.1140  0.6963
  319MOL    C8938885   2.867   4.591   6.576 -0.0043 -0.2576  0.0782
  319MOL    H9038886   2.952   4.522   6.581 -0.2437 -0.6787 -1.4158
  319MOL    H9138887   2.873   4.660   6.660  0.4502  0.6348 -0.6891
  319MOL    C9238888   2.731   4.508   6.586 -0.0046  0.0786 -0.0190
  319MOL   Cl9338889   2.601   4.626   6.609  0.4433  0.2267  0.0682
  319MOL   Cl9438890   2.755   4.417   6.733 -0.1833  0.5025 -0.2395
  319MOL    C9538891   2.684   4.422   6.466  0.3184  0.1398  0.2286
  319MOL    H9638892   2.625   4.478   6.395 -0.6654 -0.3936  0.6123
  319MOL    H9738893   2.764   4.386   6.401 -1.4932 -0.9307 -1.4376
  319MOL    C9838894   2.580   4.304   6.488 -0.4179 -0.6391 -0.1110
  319MOL   Cl9938895   2.668   4.170   6.563 -0.1441 -0.0807  0.1549
  319MOL  Cl10038896   2.522   4.257   6.324 -0.2257  0.1737 -0.0518
  319MOL   C10138897   2.454   4.336   6.584 -0.2103  0.2955 -0.2839
  319MOL   H10238898   2.501   4.383   6.671 -1.8803 -0.0655  0.8234
  319MOL   H10338899   2.394   4.408   6.528  0.2508  0.8237 -0.1122
  319MOL   C10438900   2.357   4.228   6.638 -0.7110 -0.5366 -0.2057
  319MOL  Cl10538901   2.226   4.321   6.702  0.0446 -0.4171  0.1246
  319MOL  Cl10638902   2.436   4.130   6.762 -0.0196  0.3734 -0.3274
  319MOL   C10738903   2.293   4.141   6.523 -0.2659 -0.5880  0.6334
  319MOL   H10838904   2.232   4.213   6.469 -0.7161 -1.5849 -0.2079
  319MOL   H10938905   2.386   4.110   6.473  0.7463  3.0118  0.1653
  319MOL   C11038906   2.207   4.012   6.546 -0.2287  0.0671  0.3770
  319MOL  Cl11138907   2.115   4.025   6.701 -0.3541  0.1034  0.1140
  319MOL  Cl11238908   2.334   3.881   6.570 -0.0519 -0.3767 -0.1191
  319MOL   C11338909   2.118   3.959   6.428  0.2175  0.1039 -0.4284
  319MOL   H11438910   2.176   3.891   6.365 -1.7988  0.8111 -3.1297
  319MOL   H11538911   2.054   3.895   6.488 -0.7764  1.2737 -0.2132
  319MOL   C11638912   2.028   4.059   6.347  0.0188  0.0668 -0.7847
  319MOL  Cl11738913   1.911   3.959   6.263  0.2465  0.4582  0.1825
  319MOL  Cl11838914   2.115   4.150   6.217 -0.0378 -0.1017 -0.1054
  319MOL   C11938915   1.952   4.162   6.432 -0.0455 -0.1228 -0.0728
  319MOL   H12038916   1.875   4.115   6.494 -1.0458  1.5329 -0.0107
  319MOL   H12138917   2.022   4.222   6.491 -1.5891 -0.8873  2.6403
  319MOL   H12238918   1.901   4.230   6.364  2.7237  0.4572 -1.6131
  320MOL     C138919   6.964   4.298   0.997  0.0637 -0.3907  0.0385
  320MOL    Cl238920   6.973   4.450   1.093 -0.0300 -0.1013 -0.1773
  320MOL    Cl338921   7.074   4.314   0.852 -0.2974 -0.3890 -0.4581
  320MOL     C438922   7.004   4.182   1.088 -0.1962 -0.4515  0.6537
  320MOL     H538923   7.107   4.184   1.123  0.4240  0.8206 -1.1685
  320MOL     H638924   6.933   4.196   1.169  0.2009  0.1038  0.9056
  320MOL     H738925   6.861   4.284   0.964 -0.0026  0.5476 -0.1529
  320MOL     C838926   6.973   4.036   1.044 -0.2519  0.2235  0.5160
  320MOL    Cl938927   6.803   4.025   1.007  0.1764 -0.0045  0.0870
  320MOL   Cl1038928   7.005   3.933   1.190  0.3289  0.1816  0.0624
  320MOL    C1138929   7.048   3.966   0.923  0.2096 -0.6181 -0.2851
  320MOL    H1238930   6.988   3.875   0.914  0.5417 -0.8980  0.3585
  320MOL    H1338931   7.015   4.030   0.841 -2.7078 -1.4327  0.1863
  320MOL    C1438932   7.199   3.936   0.914  0.0166 -0.8111  0.2336
  320MOL   Cl1538933   7.243   3.807   1.031 -0.5865  0.0105  0.2187
  320MOL   Cl1638934   7.294   4.078   0.946 -0.2340 -0.3654  0.1437
  320MOL    C1738935   7.257   3.870   0.784 -0.0138 -0.9708 -0.0234
  320MOL    H1838936   7.366   3.872   0.789 -0.0804  0.0482  1.4032
  320MOL    H1938937   7.235   3.764   0.773  0.2202 -0.9201 -1.0717
  320MOL    C2038938   7.205   3.924   0.649  0.4382 -0.3985  0.4618
  320MOL   Cl2138939   7.201   4.103   0.648  0.0962 -0.1251  0.0998
  320MOL   Cl2238940   7.033   3.882   0.615 -0.3283  0.1888 -0.1141
  320MOL    C2338941   7.287   3.880   0.517 -0.2390  0.1676  0.0801
  320MOL    H2438942   7.251   3.781   0.489 -1.0034 -0.2908  2.5066
  320MOL    H2538943   7.266   3.946   0.432  0.7488  1.9581  1.1988
  320MOL    C2638944   7.441   3.886   0.510  0.8693 -0.7524 -0.4498
  320MOL   Cl2738945   7.522   3.756   0.588 -0.0598  0.0979  0.2500
  320MOL   Cl2838946   7.500   4.036   0.582  0.0158  0.2836 -0.1124
  320MOL    C2938947   7.488   3.881   0.356  0.1715 -0.3629  0.5503
  320MOL    H3038948   7.465   3.979   0.313 -1.5973 -0.5857  0.9519
  320MOL    H3138949   7.597   3.881   0.361  0.2706 -0.8424 -1.2962
  320MOL    C3238950   7.447   3.757   0.261  0.0501 -0.3432  0.3267
  320MOL   Cl3338951   7.283   3.791   0.200  0.2224  0.5623  0.1092
  320MOL   Cl3438952   7.449   3.603   0.349  0.0088 -0.0387 -0.0393
  320MOL    C3538953   7.553   3.741   0.141  0.7953  0.0124  0.4295
  320MOL    H3638954   7.652   3.722   0.183 -0.5975 -1.3366  3.3021
  320MOL    H3738955   7.536   3.649   0.085 -1.1087 -1.3627  3.1480
  320MOL    C3838956   7.583   3.856   0.036 -0.2128  0.2807 -0.4063
  320MOL   Cl3938957   7.655   4.000   0.132  0.0368 -0.3901  0.1163
  320MOL   Cl4038958   7.440   3.917   9.140 -0.0436  0.1260  0.1983
  320MOL    C4138959   7.681   3.832   9.090 -0.0362  0.0792  0.0980
  320MOL    H4238960   7.619   3.810   9.004  0.8658 -1.7626 -0.0941
  320MOL    H4338961   7.707   3.937   9.074 -1.3172  0.3906 -0.0295
  320MOL    C4438962   7.812   3.741   9.095  0.7478  0.1658  0.6483
  320MOL   Cl4538963   7.762   3.573   9.132 -0.1113  0.3107  0.3717
  320MOL   Cl4638964   7.922   3.788   0.039 -0.3401 -0.4819 -0.4035
  320MOL    C4738965   7.888   3.732   8.957 -0.5898 -0.2509  0.5507
  320MOL    H4838966   7.974   3.667   8.972 -0.7027 -0.4616  0.2932
  320MOL    H4938967   7.827   3.668   8.893 -0.6935 -1.5812  1.9710
  320MOL    C5038968   7.925   3.866   8.879 -0.1410 -0.3809  0.3147
  320MOL   Cl5138969   7.992   3.999   8.981 -0.5806  0.1903 -0.0395
  320MOL   Cl5238970   7.777   3.938   8.806 -0.6757 -0.1028 -0.0426
  320MOL    C5338971   8.026   3.850   8.763 -0.3631 -0.3018  0.6274
  320MOL    H5438972   8.064   3.949   8.736  1.1634 -0.3014  2.6529
  320MOL    H5538973   8.105   3.801   8.819  1.2965 -0.4438 -1.7326
  320MOL    C5638974   8.015   3.766   8.631  0.8722  0.3945  0.6115
  320MOL   Cl5738975   7.894   3.849   8.530 -0.1656  0.3964 -0.1657
  320MOL   Cl5838976   7.955   3.604   8.674 -0.0049  0.2710  0.0248
  320MOL    C5938977   8.143   3.743   8.554  0.1464 -0.5748  0.1782
  320MOL    H6038978   8.202   3.660   8.593  2.1897  0.2447 -1.0682
  320MOL    H6138979   8.107   3.704   8.458 -2.5241 -1.9252  1.6651
  320MOL    C6238980   8.241   3.859   8.524  0.1443  0.8455 -0.6340
  320MOL   Cl6338981   8.324   3.910   8.675  0.5318 -0.2940 -0.2495
  320MOL   Cl6438982   8.153   4.010   8.486  0.2388  0.0361 -0.0374
  320MOL    C6538983   8.363   3.830   8.431  0.3698 -0.4594 -0.6105
  320MOL    H6638984   8.433   3.913   8.436  0.3035 -0.4779  1.0256
  320MOL    H6738985   8.417   3.744   8.472  0.9400 -1.5057 -3.4885
  320MOL    C6838986   8.348   3.800   8.280  0.5982 -0.0852  0.3921
  320MOL   Cl6938987   8.296   3.637   8.258  0.1104 -0.3933  0.4132
  320MOL   Cl7038988   8.516   3.800   8.213  0.3142  0.0076 -0.4532
  320MOL    C7138989   8.258   3.900   8.196  0.3827  0.2071 -0.0767
  320MOL    H7238990   8.154   3.867   8.206  0.2422  1.4454  3.3877
  320MOL    H7338991   8.247   4.003   8.229  0.4383  0.3972 -0.6572
  320MOL    C7438992   8.281   3.927   8.041  0.0439 -0.0540 -0.4296
  320MOL   Cl7538993   8.288   3.770   7.960  0.0712  0.0542  0.0210
  320MOL   Cl7638994   8.442   4.015   8.027  0.4518  0.0873  0.3585
  320MOL    C7738995   8.174   4.016   7.981  0.0974  0.2818  0.0607
  320MOL    H7838996   8.075   3.989   8.019 -0.7539 -1.1549 -3.0034
  320MOL    H7938997   8.189   4.119   8.013 -0.9287  0.1252  1.0746
  320MOL    C8038998   8.161   4.039   7.825 -0.4358  0.1958  0.4334
  320MOL   Cl8138999   8.317   4.104   7.753 -0.2609 -0.1423 -0.0743
  320MOL   Cl8239000   8.041   4.170   7.815  0.0076 -0.2854  0.1625
  320MOL    C8339001   8.112   3.935   7.727 -0.0144 -0.1944  0.1920
  320MOL    H8439002   8.117   3.990   7.633 -0.2834  0.3066  0.4696
  320MOL    H8539003   8.189   3.858   7.725  1.2617  1.0681 -1.5401
  320MOL    C8639004   7.977   3.862   7.739  0.3637 -0.4408  0.5351
  320MOL   Cl8739005   7.839   3.970   7.724  0.1888  0.2700  0.0055
  320MOL   Cl8839006   7.961   3.764   7.885  0.3713  0.1189 -0.1133
  320MOL    C8939007   7.960   3.772   7.611 -0.4154  0.2303 -0.6940
  320MOL    H9039008   7.858   3.737   7.629  0.3503 -1.2963  0.8363
  320MOL    H9139009   7.950   3.835   7.523  0.8361  0.3685 -0.7434
  320MOL    C9239010   8.044   3.641   7.580  0.0351 -0.1803  0.4902
  320MOL   Cl9339011   8.025   3.520   7.709  0.1154  0.0880  0.2238
  320MOL   Cl9439012   8.212   3.691   7.544  0.2319 -0.2316  0.4742
  320MOL    C9539013   7.995   3.572   7.444  0.3912 -1.0257 -0.1871
  320MOL    H9639014   7.887   3.559   7.449  0.1555  0.9174  0.2313
  320MOL    H9739015   7.992   3.651   7.368  1.1527  0.7852  1.6199
  320MOL    C9839016   8.043   3.433   7.389 -0.7030 -0.0714  0.4987
  320MOL   Cl9939017   7.980   3.299   7.498 -0.3218 -0.2610 -0.1175
  320MOL  Cl10039018   8.219   3.418   7.369  0.3675 -0.2910  0.3116
  320MOL   C10139019   7.980   3.418   7.245 -0.5243 -0.0109 -0.4205
  320MOL   H10239020   8.041   3.481   7.181 -2.1644  1.6913 -0.3648
  320MOL   H10339021   8.008   3.318   7.213  0.0720  0.6128 -1.8603
  320MOL   C10439022   7.827   3.437   7.217  0.3432 -0.1781 -0.4056
  320MOL  Cl10539023   7.816   3.400   7.041  0.1936  0.0679  0.0797
  320MOL  Cl10639024   7.786   3.608   7.224 -0.3522 -0.2132  0.0525
  320MOL   C10739025   7.733   3.348   7.305  0.3057 -0.5755  0.6303
  320MOL   H10839026   7.778   3.254   7.336  1.6584 -0.5393 -1.1070
  320MOL   H10939027   7.728   3.400   7.401 -0.4875  0.5777 -0.0194
  320MOL   C11039028   7.593   3.313   7.247  0.5884  0.2011  0.6226
  320MOL  Cl11139029   7.619   3.168   7.141 -0.1592 -0.0117  0.2068
  320MOL  Cl11239030   7.530   3.451   7.145 -0.3875  0.2366 -0.3105
  320MOL   C11339031   7.491   3.286   7.356  0.4966 -0.6960 -0.4658
  320MOL   H11439032   7.487   3.382   7.409  0.3861 -0.3655 -1.0585
  320MOL   H11539033   7.400   3.270   7.298 -0.7443 -0.5336  1.4088
  320MOL   C11639034   7.511   3.187   7.469  0.6872  0.1745  0.4251
  320MOL  Cl11739035   7.356   3.176   7.554 -0.1236 -0.3555  0.1250
  320MOL  Cl11839036   7.614   3.244   7.594  0.0684 -0.4462  0.1213
  320MOL   C11939037   7.558   3.049   7.419  0.3462 -0.1616  0.2853
  320MOL   H12039038   7.493   3.011   7.341 -1.9145 -0.1824  2.1053
  320MOL   H12139039   7.656   3.054   7.372 -0.8303  1.6623 -2.0421
  320MOL   H12239040   7.556   2.965   7.489  1.7718 -0.8798 -0.5196
  321MOL     C139041   0.976   2.896   6.433  0.1693  0.1762 -0.0033
  321MOL    Cl239042   1.122   2.785   6.435 -0.2204 -0.2991 -0.3318
  321MOL    Cl339043   0.830   2.796   6.404 -0.1971 -0.0728 -0.1161
  321MOL     C439044   0.944   2.958   6.572 -0.4806  0.9748 -0.8156
  321MOL     H539045   0.881   2.890   6.629  2.4394 -0.1427  1.1993
  321MOL     H639046   1.035   2.946   6.631 -1.3831  1.2243  0.6506
  321MOL     H739047   0.986   2.963   6.347  0.9488 -0.7007 -0.5911
  321MOL     C839048   0.914   3.117   6.575  0.5076 -0.0680 -0.8910
  321MOL    Cl939049   1.050   3.199   6.489 -0.7670  0.3583  0.1069
  321MOL   Cl1039050   0.923   3.174   6.746  0.0181 -0.0031  0.0959
  321MOL    C1139051   0.781   3.159   6.507 -0.4754 -0.4563  0.0772
  321MOL    H1239052   0.799   3.261   6.475  0.5996 -0.3218  1.0807
  321MOL    H1339053   0.760   3.098   6.419 -0.2650 -2.3091  1.2666
  321MOL    C1439054   0.647   3.166   6.587  0.3245  0.1475  0.1937
  321MOL   Cl1539055   0.644   3.011   6.682  0.1674 -0.3033 -0.0552
  321MOL   Cl1639056   0.515   3.168   6.467 -0.1109 -0.8492  0.3632
  321MOL    C1739057   0.614   3.285   6.683  0.4731 -0.5264 -0.4096
  321MOL    H1839058   0.509   3.283   6.712  0.2624  0.7096 -1.0768
  321MOL    H1939059   0.666   3.265   6.777  0.9935  0.1342 -0.5568
  321MOL    C2039060   0.646   3.434   6.645 -0.3889  1.0214 -0.7361
  321MOL   Cl2139061   0.542   3.531   6.744  0.2760  0.3501  0.2921
  321MOL   Cl2239062   0.612   3.455   6.474  0.0851 -0.0918  0.2160
  321MOL    C2339063   0.798   3.473   6.681 -0.0382  0.2147 -0.3624
  321MOL    H2439064   0.820   3.438   6.782 -1.0770  1.4723  0.3092
  321MOL    H2539065   0.861   3.410   6.619  0.1218  1.2501 -1.2546
  321MOL    C2639066   0.852   3.619   6.677 -0.4211  0.3041  0.6343
  321MOL   Cl2739067   1.027   3.616   6.679 -0.3651  0.1978 -0.0382
  321MOL   Cl2839068   0.799   3.700   6.825  0.5057  0.3529  0.2899
  321MOL    C2939069   0.805   3.709   6.555 -0.1402  0.0215 -0.2072
  321MOL    H3039070   0.698   3.699   6.541 -0.7936  2.0863  2.7315
  321MOL    H3139071   0.824   3.810   6.593  2.0859  0.2828 -1.9287
  321MOL    C3239072   0.882   3.702   6.421 -0.2821 -0.4057 -0.1509
  321MOL   Cl3339073   0.776   3.783   6.289 -0.2625 -0.3538  0.2463
  321MOL   Cl3439074   0.906   3.532   6.378  0.2588 -0.2789  0.2362
  321MOL    C3539075   1.024   3.762   6.407  0.2932  0.6016  0.2898
  321MOL    H3639076   1.101   3.703   6.457 -0.8149  0.2440  1.6182
  321MOL    H3739077   1.049   3.751   6.302 -0.2813 -0.6302  0.2702
  321MOL    C3839078   1.060   3.915   6.441 -0.8927  0.7425 -0.0479
  321MOL   Cl3939079   1.065   3.929   6.622  0.0207 -0.1492  0.1476
  321MOL   Cl4039080   0.938   4.036   6.391 -0.0100  0.3177  0.3053
  321MOL    C4139081   1.197   3.971   6.390  0.4688  0.4459 -1.1592
  321MOL    H4239082   1.202   4.076   6.420 -0.0822  0.3301 -0.6509
  321MOL    H4339083   1.270   3.916   6.450 -1.9056 -0.1796  1.2410
  321MOL    C4439084   1.239   3.969   6.241 -0.2498 -0.0563 -0.0608
  321MOL   Cl4539085   1.299   3.801   6.204  0.2120  0.0739 -0.0219
  321MOL   Cl4639086   1.391   4.068   6.237  0.4433 -0.1291  0.1827
  321MOL    C4739087   1.140   4.035   6.143  0.8355  0.3541  0.2983
  321MOL    H4839088   1.040   4.000   6.168  1.0390 -0.3939  0.0654
  321MOL    H4939089   1.152   4.141   6.169  1.6234  0.7032 -1.4396
  321MOL    C5039090   1.167   4.029   5.984 -0.1883  0.3305 -1.0026
  321MOL   Cl5139091   1.033   4.137   5.931  0.6324  0.2259  0.5981
  321MOL   Cl5239092   1.123   3.861   5.938 -0.2068 -0.1723 -0.0952
  321MOL    C5339093   1.308   4.081   5.945  0.8604  0.4329 -0.3564
  321MOL    H5439094   1.330   4.167   6.008  3.0715  0.1351 -0.6948
  321MOL    H5539095   1.375   4.001   5.973 -0.0871  0.2727  1.5264
  321MOL    C5639096   1.340   4.126   5.797 -0.3524  0.1691  0.4751
  321MOL   Cl5739097   1.242   4.269   5.769 -0.5174  0.1547 -0.3884
  321MOL   Cl5839098   1.289   3.997   5.691  0.0176 -0.4090  0.0923
  321MOL    C5939099   1.482   4.156   5.764 -0.3199 -0.8345  0.5579
  321MOL    H6039100   1.529   4.060   5.744  3.0808  1.1409 -1.3914
  321MOL    H6139101   1.484   4.203   5.666 -2.1619  1.2561  1.4781
  321MOL    C6239102   1.582   4.221   5.869  0.7822 -0.2251 -0.1797
  321MOL   Cl6339103   1.627   4.092   5.984  0.4094 -0.0778 -0.0296
  321MOL   Cl6439104   1.505   4.367   5.942 -0.0352 -0.0115 -0.2614
  321MOL    C6539105   1.710   4.266   5.785 -0.3248 -0.3638 -0.0967
  321MOL    H6639106   1.748   4.185   5.723  1.1918  0.0123  0.3163
  321MOL    H6739107   1.673   4.341   5.715 -0.3271 -0.5043 -0.2442
  321MOL    C6839108   1.834   4.325   5.851 -0.0786  0.1650 -0.2006
  321MOL   Cl6939109   1.945   4.358   5.713 -0.4969  0.3279 -0.4931
  321MOL   Cl7039110   1.902   4.201   5.956  0.3608 -0.2825 -0.5594
  321MOL    C7139111   1.804   4.455   5.940  0.0910  0.0642  0.3817
  321MOL    H7239112   1.737   4.523   5.886  2.0821  1.4448 -0.4264
  321MOL    H7339113   1.751   4.427   6.030  1.1038  1.1441  1.3297
  321MOL    C7439114   1.919   4.548   5.986  0.4932  0.2478 -0.2703
  321MOL   Cl7539115   1.829   4.661   6.087 -0.1019  0.1409  0.0760
  321MOL   Cl7639116   1.979   4.642   5.852  0.2092 -0.1212  0.3358
  321MOL    C7739117   2.024   4.465   6.069  0.4456 -0.1452  0.0476
  321MOL    H7839118   1.976   4.421   6.157 -0.0119 -0.7761 -0.5099
  321MOL    H7939119   2.060   4.378   6.015 -0.5763 -0.6871  0.2234
  321MOL    C8039120   2.158   4.534   6.112 -0.2946 -0.2566  0.6941
  321MOL   Cl8139121   2.274   4.537   5.972 -0.2610 -0.1500 -0.2352
  321MOL   Cl8239122   2.230   4.427   6.232  0.2986 -0.1908 -0.3094
  321MOL    C8339123   2.132   4.674   6.167  0.4214 -0.4632 -0.4734
  321MOL    H8439124   2.103   4.738   6.084  0.7990 -0.4366 -0.5861
  321MOL    H8539125   2.044   4.665   6.231  0.4138  1.3967 -0.1967
  321MOL    C8639126   2.228   4.746   6.268  0.2307 -0.0934  0.4721
  321MOL   Cl8739127   2.393   4.729   6.211 -0.5753  0.2487 -0.2145
  321MOL   Cl8839128   2.226   4.677   6.422  0.2411 -0.4060  0.0241
  321MOL    C8939129   2.208   4.902   6.286  0.3599  0.3418  0.4918
  321MOL    H9039130   2.274   4.931   6.368 -0.2542  0.5487  0.9133
  321MOL    H9139131   2.252   4.937   6.193  0.1483 -0.2729  0.1557
  321MOL    C9239132   2.061   4.975   6.299 -0.0484 -0.2403 -0.3076
  321MOL   Cl9339133   1.961   4.867   6.409 -0.3356 -0.4940 -0.0200
  321MOL   Cl9439134   1.985   4.983   6.148 -0.0475 -0.0941 -0.1770
  321MOL    C9539135   2.091   5.120   6.368  0.1617  0.5761 -0.7396
  321MOL    H9639136   2.149   5.095   6.457 -2.5437  1.0367  1.2184
  321MOL    H9739137   2.167   5.174   6.312 -0.1563 -1.2140 -2.9611
  321MOL    C9839138   1.974   5.220   6.408 -0.3610  0.5160  0.0808
  321MOL   Cl9939139   1.880   5.128   6.533 -0.1687 -0.1464 -0.1337
  321MOL  Cl10039140   1.864   5.252   6.269 -0.0311 -0.1478  0.3942
  321MOL   C10139141   2.032   5.350   6.456 -0.1129 -0.4451 -0.0492
  321MOL   H10239142   2.121   5.335   6.516  0.4583 -0.0910 -0.7938
  321MOL   H10339143   2.077   5.401   6.370 -1.2510  1.2603  0.3252
  321MOL   C10439144   1.947   5.462   6.533 -0.1220 -1.1975 -0.5744
  321MOL  Cl10539145   2.060   5.603   6.549  0.0751 -0.1609  0.0230
  321MOL  Cl10639146   1.920   5.408   6.702 -0.1410  0.1883 -0.0246
  321MOL   C10739147   1.814   5.511   6.465 -0.4151  0.1667 -1.0419
  321MOL   H10839148   1.835   5.515   6.358  0.6911  2.8450 -0.7729
  321MOL   H10939149   1.744   5.428   6.479 -1.1943  0.9518 -0.2522
  321MOL   C11039150   1.734   5.639   6.506  0.2025  0.0378  0.0417
  321MOL  Cl11139151   1.816   5.777   6.437 -0.0759  0.1069 -0.2807
  321MOL  Cl11239152   1.739   5.667   6.680  0.0008  0.0793 -0.4294
  321MOL   C11339153   1.582   5.642   6.467 -0.3682 -0.5368 -0.6816
  321MOL   H11439154   1.534   5.571   6.534 -2.2205  1.5966  0.3005
  321MOL   H11539155   1.544   5.741   6.492  0.6164 -0.3636  0.1918
  321MOL   C11639156   1.532   5.614   6.320 -0.0419 -0.5159 -0.2917
  321MOL  Cl11739157   1.556   5.439   6.289 -0.0552 -0.1378  0.1320
  321MOL  Cl11839158   1.611   5.715   6.199  0.0340  0.3892  0.1483
  321MOL   C11939159   1.385   5.641   6.298  0.2941  0.0694 -0.2298
  321MOL   H12039160   1.362   5.747   6.306 -0.1130  0.0366 -0.9618
  321MOL   H12139161   1.349   5.614   6.199 -1.6376  0.7958  0.2590
  321MOL   H12239162   1.322   5.601   6.378 -0.1539  2.1431  0.4763
  322MOL     C139163   3.666   3.088   2.564 -0.3533 -0.5254 -0.2483
  322MOL    Cl239164   3.664   3.208   2.443  0.0363  0.1229  0.0036
  322MOL    Cl339165   3.816   3.114   2.664  0.1763  0.6639  0.2665
  322MOL     C439166   3.544   3.091   2.655  0.3082 -0.0934 -0.8745
  322MOL     H539167   3.569   3.163   2.733 -1.2783 -0.3633 -0.1111
  322MOL     H639168   3.465   3.129   2.591  0.7593 -0.4165 -1.6389
  322MOL     H739169   3.658   2.991   2.515  0.8388 -0.7009 -0.1283
  322MOL     C839170   3.493   2.961   2.712  0.7166  0.0812 -0.3969
  322MOL    Cl939171   3.638   2.883   2.790 -0.5110  0.0741  0.1671
  322MOL   Cl1039172   3.443   2.849   2.583 -0.1219 -0.0859 -0.0124
  322MOL    C1139173   3.370   2.942   2.807 -0.3538 -0.6186 -0.4689
  322MOL    H1239174   3.275   2.947   2.754 -0.5348  1.7631  0.0224
  322MOL    H1339175   3.371   2.836   2.831 -0.4266 -0.0703  2.1426
  322MOL    C1439176   3.360   3.021   2.938 -0.5096  0.0386 -0.3732
  322MOL   Cl1539177   3.213   2.948   3.002 -0.2180 -0.0952 -0.0772
  322MOL   Cl1639178   3.329   3.189   2.889 -0.2950  0.1937  0.1123
  322MOL    C1739179   3.476   3.009   3.040 -0.2616 -0.5105 -0.4091
  322MOL    H1839180   3.491   2.902   3.048 -3.6100 -0.9558  1.0454
  322MOL    H1939181   3.565   3.050   2.992 -0.2325  2.0029  1.7014
  322MOL    C2039182   3.466   3.075   3.191  0.0792 -0.5188 -0.0605
  322MOL   Cl2139183   3.339   2.985   3.287  0.2569  0.4698  0.1894
  322MOL   Cl2239184   3.414   3.239   3.179 -0.1284  0.0300  0.5089
  322MOL    C2339185   3.590   3.068   3.285  0.4798 -0.0386  0.2637
  322MOL    H2439186   3.661   3.145   3.255  0.9628  0.7037  3.1412
  322MOL    H2539187   3.558   3.082   3.389 -0.6803  0.8913 -0.2103
  322MOL    C2639188   3.689   2.947   3.285 -0.3469 -0.1751 -0.3509
  322MOL   Cl2739189   3.777   2.972   3.135 -0.2421  0.0735  0.2049
  322MOL   Cl2839190   3.600   2.790   3.279 -0.0271 -0.3002  0.2074
  322MOL    C2939191   3.779   2.960   3.415 -0.2285 -0.2084  0.4083
  322MOL    H3039192   3.792   3.066   3.437 -1.2547  0.1525 -0.6694
  322MOL    H3139193   3.724   2.930   3.505  0.4434  1.4711  1.4092
  322MOL    C3239194   3.904   2.877   3.426 -0.0374 -0.8189  0.4406
  322MOL   Cl3339195   3.961   2.881   3.598  0.0422  0.0154 -0.1442
  322MOL   Cl3439196   4.029   2.953   3.326  0.0750 -0.0464  0.2032
  322MOL    C3539197   3.899   2.725   3.390  0.0201  0.6574  0.4163
  322MOL    H3639198   3.802   2.683   3.417 -0.7494  0.2622 -2.7228
  322MOL    H3739199   3.882   2.727   3.282 -2.9029 -1.5120  0.7832
  322MOL    C3839200   4.014   2.624   3.406 -0.0062 -0.3492 -0.2705
  322MOL   Cl3939201   4.165   2.682   3.331 -0.5223  0.4997 -0.2300
  322MOL   Cl4039202   3.961   2.477   3.314 -0.1074 -0.0011 -0.3044
  322MOL    C4139203   4.043   2.578   3.555  0.1254 -0.2986 -0.0489
  322MOL    H4239204   4.120   2.650   3.582 -0.7297  0.9113 -0.8237
  322MOL    H4339205   3.962   2.618   3.615  0.7250  2.3767 -0.9563
  322MOL    C4439206   4.106   2.447   3.600 -0.0985  0.2910  0.5899
  322MOL   Cl4539207   3.982   2.317   3.579  0.3315 -0.0505 -0.5073
  322MOL   Cl4639208   4.145   2.460   3.767 -0.0474  0.2342  0.0902
  322MOL    C4739209   4.234   2.410   3.515  0.7130  0.6124 -0.2841
  322MOL    H4839210   4.201   2.424   3.412 -0.7122  1.3687  0.2638
  322MOL    H4939211   4.319   2.476   3.531  0.1868  0.9597  1.1665
  322MOL    C5039212   4.290   2.258   3.517 -0.0774 -0.3004 -0.4967
  322MOL   Cl5139213   4.433   2.260   3.413 -0.2353  0.1567 -0.1648
  322MOL   Cl5239214   4.185   2.149   3.421 -0.4127  0.1395  0.2873
  322MOL    C5339215   4.324   2.190   3.654  0.3856 -0.1917  0.0328
  322MOL    H5439216   4.391   2.260   3.704 -1.0244  1.0583  0.2085
  322MOL    H5539217   4.241   2.207   3.723 -0.0152 -1.6870 -0.0734
  322MOL    C5639218   4.369   2.038   3.666  0.1589  0.2218 -1.4363
  322MOL   Cl5739219   4.234   1.930   3.640 -0.0601  0.1394  0.5082
  322MOL   Cl5839220   4.397   2.032   3.844  0.0466 -0.0135 -0.3469
  322MOL    C5939221   4.497   1.997   3.589  0.2486  1.2201 -0.3799
  322MOL    H6039222   4.464   1.980   3.486  0.7312 -0.8581 -0.2138
  322MOL    H6139223   4.571   2.076   3.581 -0.2514  1.7698  0.3837
  322MOL    C6239224   4.588   1.875   3.634  0.3444 -0.3020  0.6811
  322MOL   Cl6339225   4.490   1.730   3.676 -0.1354  0.4309  0.5376
  322MOL   Cl6439226   4.682   1.908   3.778 -0.2034  0.1242 -0.0592
  322MOL    C6539227   4.673   1.812   3.525  0.1981  0.5169 -0.0748
  322MOL    H6639228   4.716   1.718   3.560  0.3029  0.2300 -0.9639
  322MOL    H6739229   4.598   1.781   3.453 -1.8240 -0.6230  2.4477
  322MOL    C6839230   4.768   1.904   3.435 -0.4325 -0.0757  0.7381
  322MOL   Cl6939231   4.854   2.029   3.536  0.4432 -0.2750 -0.3417
  322MOL   Cl7039232   4.666   1.999   3.330  0.0684  0.3456 -0.0003
  322MOL    C7139233   4.859   1.824   3.334  0.1458 -0.5195 -0.1947
  322MOL    H7239234   4.815   1.793   3.239  0.2943 -1.0967 -0.0766
  322MOL    H7339235   4.932   1.897   3.300  0.5863 -1.1305 -0.5808
  322MOL    C7439236   4.937   1.700   3.384 -0.6868 -0.1462  0.2255
  322MOL   Cl7539237   4.832   1.554   3.388  0.2758 -0.3157 -0.0091
  322MOL   Cl7639238   5.001   1.729   3.551 -0.2819  0.2865  0.2659
  322MOL    C7739239   5.054   1.670   3.287  0.0600  0.2730  0.0410
  322MOL    H7839240   5.016   1.690   3.187 -0.1369 -0.4802 -0.0334
  322MOL    H7939241   5.130   1.744   3.315  0.0727 -0.7688  2.8499
  322MOL    C8039242   5.143   1.537   3.277  0.0314 -0.1080 -0.1936
  322MOL   Cl8139243   5.045   1.410   3.202 -0.4333  0.2010  0.0096
  322MOL   Cl8239244   5.192   1.492   3.442  0.2300  0.2331  0.4041
  322MOL    C8339245   5.270   1.568   3.191 -0.2398 -0.1761  0.2682
  322MOL    H8439246   5.247   1.603   3.091 -0.3571 -1.5337 -0.1894
  322MOL    H8539247   5.307   1.659   3.239 -1.4444 -0.5891  2.0613
  322MOL    C8639248   5.387   1.463   3.164  0.0952  0.3134  0.2359
  322MOL   Cl8739249   5.492   1.439   3.315 -0.5588  0.2115 -0.5093
  322MOL   Cl8839250   5.500   1.537   3.045  0.0473  0.1546  0.0068
  322MOL    C8939251   5.337   1.324   3.111  0.2834 -0.1737  0.5496
  322MOL    H9039252   5.299   1.271   3.198  2.7853 -0.2134  1.6605
  322MOL    H9139253   5.249   1.342   3.050 -0.4675  1.0514  1.9564
  322MOL    C9239254   5.427   1.223   3.026 -0.5699  0.0047 -0.2410
  322MOL   Cl9339255   5.588   1.200   3.108  0.3723 -0.0195  0.0497
  322MOL   Cl9439256   5.452   1.298   2.870 -0.3717 -0.3208  0.1083
  322MOL    C9539257   5.386   1.081   3.008  0.1675  0.4051  0.0160
  322MOL    H9639258   5.452   1.039   2.932 -0.4518  0.7110 -0.6973
  322MOL    H9739259   5.399   1.026   3.101  0.5710 -0.5044 -0.5680
  322MOL    C9839260   5.240   1.049   2.965  0.1887 -0.0360  0.0518
  322MOL   Cl9939261   5.192   1.143   2.810 -0.2112 -0.3807 -0.2354
  322MOL  Cl10039262   5.132   1.090   3.097  0.1922 -0.0248  0.0289
  322MOL   C10139263   5.226   0.891   2.939  0.0636 -0.2016  0.4951
  322MOL   H10239264   5.298   0.863   2.861 -0.0322  1.0943 -0.0575
  322MOL   H10339265   5.247   0.844   3.035 -0.8679  0.2410  0.9192
  322MOL   C10439266   5.094   0.826   2.877  0.2115  0.7479  0.3299
  322MOL  Cl10539267   5.142   0.661   2.850 -0.0050  0.1956  0.0593
  322MOL  Cl10639268   5.046   0.876   2.715  0.1952 -0.1111  0.0042
  322MOL   C10739269   4.971   0.850   2.964  0.3541  0.2050  0.9267
  322MOL   H10839270   5.010   0.851   3.066 -1.2510  0.6817  1.5602
  322MOL   H10939271   4.941   0.954   2.948  1.1964  0.2554 -0.4599
  322MOL   C11039272   4.847   0.759   2.976  0.7553  0.0468 -0.2635
  322MOL  Cl11139273   4.883   0.610   3.069  0.1428  0.5592  0.2096
  322MOL  Cl11239274   4.791   0.708   2.816 -0.3530 -0.3616 -0.2570
  322MOL   C11339275   4.726   0.819   3.057 -0.2901 -0.0108 -0.5605
  322MOL   H11439276   4.640   0.751   3.057  1.2609 -2.0159  0.0692
  322MOL   H11539277   4.756   0.823   3.161 -0.1301  3.7521 -0.6608
  322MOL   C11639278   4.666   0.960   3.021 -0.1759 -0.3146  0.0589
  322MOL  Cl11739279   4.773   1.093   3.070 -0.0979  0.0437  0.3234
  322MOL  Cl11839280   4.513   0.996   3.114  0.1328  0.2276 -0.2803
  322MOL   C11939281   4.640   0.970   2.875  0.4259  0.6443 -1.1345
  322MOL   H12039282   4.731   0.953   2.817  0.1893  1.5344 -1.7830
  322MOL   H12139283   4.561   0.909   2.831  0.5050 -1.1183  1.1037
  322MOL   H12239284   4.609   1.072   2.851 -1.0425  0.2840 -0.7955
  323MOL     C139285   1.167   8.533   3.741 -0.1709 -0.5820 -0.0448
  323MOL    Cl239286   1.209   8.392   3.637 -0.0466 -0.3210 -0.1640
  323MOL    Cl339287   1.266   8.675   3.688 -0.0873  0.3702 -0.4133
  323MOL     C439288   1.020   8.562   3.730  0.9842 -0.0760 -0.4427
  323MOL     H539289   0.994   8.623   3.643  1.2487  0.5672 -0.0809
  323MOL     H639290   0.963   8.470   3.718  0.7061 -0.0859  0.9134
  323MOL     H739291   1.200   8.508   3.842  1.2736  1.4399 -0.0079
  323MOL     C839292   0.957   8.641   3.856 -0.4587 -0.6011  0.4055
  323MOL    Cl939293   1.057   8.790   3.875 -0.1593  0.1027 -0.6121
  323MOL   Cl1039294   0.970   8.550   4.007 -0.4415 -0.1510 -0.0630
  323MOL    C1139295   0.812   8.683   3.821 -0.4692 -0.1573 -0.3488
  323MOL    H1239296   0.771   8.736   3.908  0.4595  0.8646 -0.5217
  323MOL    H1339297   0.811   8.765   3.749 -0.2463  0.0070 -0.1697
  323MOL    C1439298   0.705   8.586   3.767 -0.8415  0.1408  0.1776
  323MOL   Cl1539299   0.710   8.439   3.869 -0.0527 -0.4974  0.2952
  323MOL   Cl1639300   0.750   8.526   3.607  0.0621  0.1131  0.0384
  323MOL    C1739301   0.550   8.626   3.764 -0.1599  0.1645 -0.0893
  323MOL    H1839302   0.498   8.537   3.727  0.3503 -0.7170  1.2880
  323MOL    H1939303   0.520   8.642   3.867 -0.7780  1.8484 -0.5101
  323MOL    C2039304   0.505   8.752   3.690 -0.1477  0.0549 -1.2792
  323MOL   Cl2139305   0.586   8.775   3.533 -0.3525 -0.0372  0.1344
  323MOL   Cl2239306   0.553   8.885   3.795  0.0781  0.3639  0.3774
  323MOL    C2339307   0.347   8.762   3.683  0.0023 -0.0739 -0.2102
  323MOL    H2439308   0.306   8.708   3.769  2.0362 -0.9121  0.2666
  323MOL    H2539309   0.310   8.862   3.709 -2.9477 -1.3055  0.5809
  323MOL    C2639310   0.267   8.713   3.553 -0.1596 -0.7153  0.4595
  323MOL   Cl2739311   0.091   8.690   3.593 -0.0461  0.0843 -0.3419
  323MOL   Cl2839312   0.311   8.548   3.508 -0.2846 -0.1999  0.3242
  323MOL    C2939313   0.269   8.807   3.427 -0.5168  0.3879 -0.2254
  323MOL    H3039314   0.364   8.801   3.374  0.9151 -1.1266  2.4291
  323MOL    H3139315   0.191   8.762   3.365  0.5121 -0.9611 -0.5372
  323MOL    C3239316   0.247   8.964   3.434  0.9922  0.7186  0.3585
  323MOL   Cl3339317   0.390   9.039   3.517 -0.2365  0.1215 -0.2323
  323MOL   Cl3439318   0.102   9.007   3.526  0.3086 -0.4312  0.0914
  323MOL    C3539319   0.232   9.028   3.294  0.9177 -0.1554  0.7059
  323MOL    H3639320   0.314   8.983   3.238 -0.7801 -1.7555 -0.5408
  323MOL    H3739321   0.139   8.991   3.251  2.2820 -0.0601 -2.4736
  323MOL    C3839322   0.235   9.180   3.262 -0.2151 -0.1028 -0.2447
  323MOL   Cl3939323   0.192   0.012   3.090  0.0221 -0.1889  0.6266
  323MOL   Cl4039324   0.406   0.060   3.278 -0.0892 -0.3086 -0.0102
  323MOL    C4139325   0.133   0.089   3.357 -0.3814 -0.2373  0.5733
  323MOL    H4239326   0.046   0.032   3.391 -0.1534 -0.5375  0.6494
  323MOL    H4339327   0.192   0.094   3.448 -0.1244  1.6494  0.3111
  323MOL    C4439328   0.086   0.226   3.322  0.4418 -0.7036 -0.0308
  323MOL   Cl4539329   0.046   0.313   3.473 -0.2103  0.4136  0.6370
  323MOL   Cl4639330   9.126   0.196   3.224 -0.3159 -0.0946  0.3006
  323MOL    C4739331   0.180   0.310   3.226 -0.2501 -0.2342 -0.3767
  323MOL    H4839332   0.282   0.303   3.263  0.2879 -0.2667 -1.8374
  323MOL    H4939333   0.176   0.261   3.129  0.5463 -2.4360  0.6772
  323MOL    C5039334   0.149   0.463   3.198 -0.2722  0.3385  0.0841
  323MOL   Cl5139335   9.155   0.495   3.155 -0.1993  0.3792  0.2318
  323MOL   Cl5239336   0.234   0.503   3.049 -0.2882  0.3991 -0.2713
  323MOL    C5339337   0.219   0.547   3.306 -0.4798  0.8203  0.0198
  323MOL    H5439338   0.224   0.491   3.400 -1.3224  0.1975 -0.3057
  323MOL    H5539339   0.322   0.557   3.274 -0.2874 -1.4248 -0.1049
  323MOL    C5639340   0.169   0.691   3.338 -0.4244  0.2974 -0.2934
  323MOL   Cl5739341   0.281   0.744   3.470  0.1685 -0.3465  0.2865
  323MOL   Cl5839342   0.006   0.666   3.410 -0.2597  0.1565  0.2605
  323MOL    C5939343   0.169   0.783   3.209  0.1383  0.3517 -0.8197
  323MOL    H6039344   0.258   0.782   3.146  0.3286 -0.6068 -0.5360
  323MOL    H6139345   0.104   0.723   3.146  0.6764 -0.3435 -0.7124
  323MOL    C6239346   0.132   0.932   3.214  0.0556 -0.4178  0.0632
  323MOL   Cl6339347   0.105   0.972   3.035 -0.4414  0.3544 -0.0394
  323MOL   Cl6439348   0.275   1.022   3.253 -0.0339 -0.5998  0.0739
  323MOL    C6539349   0.012   0.962   3.300  0.3952  1.0548 -0.1313
  323MOL    H6639350   9.108   0.909   3.257  1.0783  0.7394 -1.0946
  323MOL    H6739351   0.018   0.912   3.397 -0.8893 -0.9800 -1.0895
  323MOL    C6839352   9.159   1.111   3.325  0.0728 -0.7527  0.4412
  323MOL   Cl6939353   0.087   1.187   3.451 -0.5121 -0.3551  0.3027
  323MOL   Cl7039354   9.008   1.121   3.406  0.0811 -0.1650 -0.0577
  323MOL    C7139355   9.152   1.201   3.196 -0.7582 -0.0643  0.0023
  323MOL    H7239356   0.074   1.209   3.158 -1.7404  2.0560 -2.3286
  323MOL    H7339357   9.095   1.147   3.120  0.4259  0.0793 -1.0087
  323MOL    C7439358   9.087   1.351   3.210 -0.0600  0.5238 -0.7865
  323MOL   Cl7539359   8.913   1.324   3.173  0.4185  0.0053 -0.7431
  323MOL   Cl7639360   9.142   1.451   3.076 -0.2635  0.1213 -0.3229
  323MOL    C7739361   9.112   1.434   3.343  0.6234 -0.1574 -0.2295
  323MOL    H7839362   9.079   1.374   3.428 -1.7146 -0.5571 -1.3725
  323MOL    H7939363   0.040   1.440   3.352  0.5396 -0.6491  1.2841
  323MOL    C8039364   9.054   1.581   3.369  0.1492 -0.7172  0.5013
  323MOL   Cl8139365   8.900   1.609   3.281  0.4888 -0.3509 -0.0911
  323MOL   Cl8239366   9.163   1.705   3.314  0.2346 -0.2481 -0.1024
  323MOL    C8339367   9.027   1.612   3.517 -0.6061 -0.2009  0.7027
  323MOL    H8439368   8.967   1.703   3.515  0.1196  0.3145  1.9346
  323MOL    H8539369   8.970   1.526   3.554 -0.4201  0.4047  2.4443
  323MOL    C8639370   9.133   1.651   3.624  0.0077 -0.0944  0.0098
  323MOL   Cl8739371   9.173   1.827   3.608  0.3380 -0.6567 -0.2234
  323MOL   Cl8839372   0.112   1.570   3.600 -0.4780  0.1455  0.0067
  323MOL    C8939373   9.076   1.627   3.766 -0.2779  0.1560 -0.5568
  323MOL    H9039374   9.103   1.711   3.831 -1.2183 -0.2150  0.3235
  323MOL    H9139375   8.969   1.633   3.749 -0.1993  0.7538 -0.8537
  323MOL    C9239376   9.120   1.498   3.844 -0.9295  0.6834  0.3609
  323MOL   Cl9339377   0.111   1.508   3.892  0.0428 -0.2172 -0.1965
  323MOL   Cl9439378   9.092   1.359   3.734 -0.0788  0.2593  0.0898
  323MOL    C9539379   9.041   1.472   3.975  0.1442 -0.0952  0.2815
  323MOL    H9639380   9.067   1.371   4.007  1.9172  0.4738  0.6747
  323MOL    H9739381   9.088   1.537   4.049  3.3356 -1.1308 -0.7637
  323MOL    C9839382   8.887   1.475   3.993  0.0266 -0.1503 -1.1949
  323MOL   Cl9939383   8.799   1.383   3.868  0.1149 -0.3588 -0.0338
  323MOL  Cl10039384   8.840   1.646   3.969  0.1227  0.1529 -0.0884
  323MOL   C10139385   8.834   1.429   4.136  0.0837 -0.3944  0.2596
  323MOL   H10239386   8.731   1.464   4.134  0.4943  0.7889 -1.2407
  323MOL   H10339387   8.823   1.321   4.130 -0.9839 -0.2024 -1.9010
  323MOL   C10439388   8.900   1.476   4.267  0.3257  0.6578 -0.1423
  323MOL  Cl10539389   8.938   1.647   4.270 -0.0444  0.3290 -0.4235
  323MOL  Cl10639390   9.049   1.386   4.276  0.1439 -0.4011  0.1095
  323MOL   C10739391   8.820   1.446   4.401  0.2177  0.2767  0.2934
  323MOL   H10839392   8.831   1.343   4.436 -3.0124 -0.9041 -1.9832
  323MOL   H10939393   8.866   1.510   4.476  2.3776  0.0406 -0.7866
  323MOL   C11039394   8.663   1.469   4.404  0.2353  0.0563 -0.1859
  323MOL  Cl11139395   8.574   1.338   4.315  0.1622 -0.3245  0.3168
  323MOL  Cl11239396   8.614   1.623   4.323  0.3214 -0.1570 -0.4234
  323MOL   C11339397   8.613   1.458   4.553  0.2013 -0.2873 -0.2190
  323MOL   H11439398   8.504   1.469   4.552 -0.0106 -2.0847  0.9388
  323MOL   H11539399   8.625   1.353   4.577  0.3051 -0.1624  0.2809
  323MOL   C11639400   8.665   1.536   4.674 -0.0444  0.5624  0.5941
  323MOL  Cl11739401   8.821   1.468   4.728  0.3111  0.0231 -0.1294
  323MOL  Cl11839402   8.552   1.499   4.824 -0.4712  0.0589 -0.1186
  323MOL   C11939403   8.677   1.686   4.662  0.7989  0.4132 -0.5239
  323MOL   H12039404   8.715   1.738   4.750  3.4456 -2.7083  0.2650
  323MOL   H12139405   8.734   1.712   4.572  1.8633  0.8969  0.2792
  323MOL   H12239406   8.578   1.729   4.654  1.1954  1.1767 -1.4060
  324MOL     C139407   7.059   2.497   8.345  0.0701 -0.2605  0.5581
  324MOL    Cl239408   7.064   2.633   8.235  0.0463  0.3895 -0.2389
  324MOL    Cl339409   7.185   2.388   8.275  0.3057 -0.1407 -0.0315
  324MOL     C439410   7.080   2.533   8.503  0.9103 -0.1322 -0.0110
  324MOL     H539411   7.061   2.440   8.557  2.1292 -0.6032 -0.3837
  324MOL     H639412   7.183   2.555   8.530  0.5890  0.9174  0.3653
  324MOL     H739413   6.966   2.447   8.319 -1.2089  2.7694 -0.9802
  324MOL     C839414   6.985   2.642   8.572  0.2034  0.6931  0.2054
  324MOL    Cl939415   7.025   2.611   8.741 -0.0142  0.0002  0.1583
  324MOL   Cl1039416   6.821   2.592   8.535 -0.1337  0.0374 -0.0107
  324MOL    C1139417   7.020   2.783   8.528  0.3663  0.0914 -0.1867
  324MOL    H1239418   7.127   2.795   8.514  0.7199 -2.8228 -0.0835
  324MOL    H1339419   6.974   2.802   8.431  0.8970  0.1335 -0.4276
  324MOL    C1439420   6.970   2.906   8.617 -0.0766 -0.3159  0.8488
  324MOL   Cl1539421   7.086   2.922   8.748 -0.1332  0.1986  0.1234
  324MOL   Cl1639422   6.811   2.868   8.697 -0.0444  0.1103  0.3584
  324MOL    C1739423   6.942   3.034   8.532  0.8988 -0.7534  0.2839
  324MOL    H1839424   6.865   3.003   8.461  1.8069  3.2125 -2.5535
  324MOL    H1939425   6.894   3.111   8.592  0.1396 -0.0370 -1.1997
  324MOL    C2039426   7.056   3.099   8.445 -0.4502  0.0020  0.0023
  324MOL   Cl2139427   6.994   3.248   8.369 -0.0098  0.0728  0.1858
  324MOL   Cl2239428   7.097   2.994   8.306 -0.2825 -0.0233 -0.0277
  324MOL    C2339429   7.183   3.133   8.521 -0.7266  0.0927  0.4542
  324MOL    H2439430   7.216   3.050   8.584  0.8064  0.1651 -0.2136
  324MOL    H2539431   7.264   3.133   8.448 -1.0987 -0.4523  0.0402
  324MOL    C2639432   7.197   3.262   8.610 -0.0233 -0.1952  0.1204
  324MOL   Cl2739433   7.332   3.215   8.715 -0.0948  0.2136 -0.2746
  324MOL   Cl2839434   7.053   3.295   8.707  0.0173 -0.5273 -0.1996
  324MOL    C2939435   7.255   3.377   8.523  0.9052 -0.2413 -0.0371
  324MOL    H3039436   7.363   3.362   8.516  0.8846  0.5702 -2.4267
  324MOL    H3139437   7.213   3.367   8.423 -0.4373 -0.4251  0.5310
  324MOL    C3239438   7.235   3.524   8.571  0.0587 -0.2226  0.1139
  324MOL   Cl3339439   7.277   3.536   8.743  0.3510  0.0951 -0.0889
  324MOL   Cl3439440   7.059   3.563   8.544  0.5675  0.1138 -0.2399
  324MOL    C3539441   7.328   3.614   8.481  0.5022  0.0850 -0.3884
  324MOL    H3639442   7.421   3.557   8.475  0.2080 -0.6118  1.4375
  324MOL    H3739443   7.275   3.616   8.386 -1.2429 -0.6224  0.5457
  324MOL    C3839444   7.359   3.762   8.523 -0.2391  0.0360 -0.6329
  324MOL   Cl3939445   7.414   3.838   8.369  0.0047  0.0726  0.0774
  324MOL   Cl4039446   7.500   3.756   8.629  0.1267  0.0135 -0.0261
  324MOL    C4139447   7.241   3.850   8.590 -0.7141  0.7077  0.5159
  324MOL    H4239448   7.144   3.842   8.541 -0.2974 -0.3135 -0.1673
  324MOL    H4339449   7.228   3.796   8.684  0.2713 -1.7261 -0.7099
  324MOL    C4439450   7.254   3.998   8.618  0.2899  0.4707  0.5841
  324MOL   Cl4539451   7.101   4.034   8.701  0.0384 -0.0656  0.0184
  324MOL   Cl4639452   7.257   4.089   8.466 -0.0538 -0.2735  0.0671
  324MOL    C4739453   7.367   4.032   8.717 -0.2782 -0.3804  0.2723
  324MOL    H4839454   7.356   3.962   8.799  2.4539  0.6084  1.5171
  324MOL    H4939455   7.453   4.000   8.659 -1.0488  1.4473 -1.9655
  324MOL    C5039456   7.383   4.169   8.790  1.0187  0.4990 -0.0574
  324MOL   Cl5139457   7.393   4.298   8.672  0.0474  0.0466 -0.1189
  324MOL   Cl5239458   7.535   4.153   8.873 -0.3058  0.1032  0.3303
  324MOL    C5339459   7.280   4.186   8.900 -0.6654  0.0531 -0.1761
  324MOL    H5439460   7.191   4.218   8.845 -0.9434  0.2706  0.3964
  324MOL    H5539461   7.264   4.091   8.952  0.2794 -0.3892 -0.6938
  324MOL    C5639462   7.298   4.299   9.010 -0.1599 -0.4340  0.5649
  324MOL   Cl5739463   7.428   4.276   9.132 -0.1728  0.0532 -0.0310
  324MOL   Cl5839464   7.138   4.277   9.103  0.2540 -0.1521 -0.1896
  324MOL    C5939465   7.310   4.436   8.939  0.2993  0.0141 -0.0121
  324MOL    H6039466   7.417   4.448   8.919  0.4487 -3.4473 -1.6619
  324MOL    H6139467   7.265   4.438   8.840  1.6900 -0.0803 -0.6698
  324MOL    C6239468   7.275   4.575   9.015 -0.1390  0.3841 -0.1017
  324MOL   Cl6339469   7.354   4.572   9.174 -0.3037 -0.2292 -0.3123
  324MOL   Cl6439470   7.100   4.572   9.040  0.0025  0.3222 -0.1742
  324MOL    C6539471   7.322   4.687   8.935 -0.4558 -1.0618  0.7588
  324MOL    H6639472   7.426   4.666   8.909 -0.3742  0.2745 -0.0481
  324MOL    H6739473   7.284   4.684   8.833 -0.9481 -1.5653  0.9588
  324MOL    C6839474   7.313   4.835   8.984  0.2012  0.6319 -0.2197
  324MOL   Cl6939475   7.345   4.932   8.838 -0.4425  0.4923 -0.3454
  324MOL   Cl7039476   7.441   4.867   9.095  0.1269 -0.8218  0.2770
  324MOL    C7139477   7.180   4.884   9.056 -0.9909  0.6123 -0.3695
  324MOL    H7239478   7.153   4.808   9.129 -0.7378  0.9043  0.0232
  324MOL    H7339479   7.200   4.972   9.116 -1.5083  1.3529 -1.2669
  324MOL    C7439480   7.051   4.929   8.978 -0.1203 -0.3104 -0.3187
  324MOL   Cl7539481   6.912   4.942   9.088 -0.3243 -0.5915 -0.0800
  324MOL   Cl7639482   7.030   4.806   8.844  0.0021  0.0504  0.1451
  324MOL    C7739483   7.066   5.077   8.940  0.5401  0.2488  0.4238
  324MOL    H7839484   7.044   5.142   9.025 -0.4158  0.7674 -0.2089
  324MOL    H7939485   7.174   5.082   8.923  0.5779 -1.3482  0.1035
  324MOL    C8039486   6.996   5.137   8.814 -0.2500 -0.3742  0.7633
  324MOL   Cl8139487   7.070   5.062   8.677  0.0738 -0.0347  0.1034
  324MOL   Cl8239488   7.046   5.309   8.817  0.0737 -0.0013  0.0523
  324MOL    C8339489   6.845   5.109   8.819  0.4452  0.0025 -0.1709
  324MOL    H8439490   6.834   5.000   8.824  0.1179  0.0732  0.7472
  324MOL    H8539491   6.818   5.148   8.918  1.0588 -1.1511  0.4597
  324MOL    C8639492   6.747   5.155   8.708 -0.2115  0.0245 -0.4685
  324MOL   Cl8739493   6.586   5.111   8.766 -0.2678  0.1698 -0.3440
  324MOL   Cl8839494   6.773   5.055   8.554  0.1946  0.3585  0.1030
  324MOL    C8939495   6.755   5.305   8.666 -0.5361  0.5079  0.2753
  324MOL    H9039496   6.851   5.335   8.624  0.1507 -0.7025  0.9352
  324MOL    H9139497   6.682   5.295   8.586  0.1191 -1.3236 -0.1402
  324MOL    C9239498   6.706   5.426   8.757 -1.0430 -0.2054  0.0254
  324MOL   Cl9339499   6.735   5.400   8.933  0.1766  0.0282 -0.0473
  324MOL   Cl9439500   6.530   5.443   8.738 -0.1806  0.2647  0.1928
  324MOL    C9539501   6.775   5.567   8.738  0.4899 -0.3279 -0.1296
  324MOL    H9639502   6.731   5.634   8.812  1.8343  1.9201 -1.3161
  324MOL    H9739503   6.883   5.559   8.755  1.0847  3.2110 -1.8418
  324MOL    C9839504   6.755   5.656   8.612 -0.1396 -0.1256  0.0762
  324MOL   Cl9939505   6.597   5.739   8.616 -0.0039 -0.0372  0.1687
  324MOL  Cl10039506   6.764   5.563   8.460  0.3490 -0.4296 -0.0378
  324MOL   C10139507   6.866   5.761   8.618  0.3991 -0.3413  0.1926
  324MOL   H10239508   6.878   5.796   8.720 -1.1441 -0.1532  0.3322
  324MOL   H10339509   6.960   5.719   8.583  0.6789  0.4471 -0.0192
  324MOL   C10439510   6.865   5.898   8.543  0.2041  0.2009  0.1674
  324MOL  Cl10539511   7.014   5.966   8.592 -0.4767 -0.4491  0.2108
  324MOL  Cl10639512   6.748   6.001   8.620  0.0176 -0.0812 -0.0010
  324MOL   C10739513   6.856   5.881   8.385  0.2596 -0.5948 -0.9628
  324MOL   H10839514   6.894   5.785   8.350 -0.2598 -1.6234  1.1756
  324MOL   H10939515   6.749   5.867   8.375 -0.0341  1.1049 -0.4483
  324MOL   C11039516   6.888   6.002   8.289 -0.8410  0.2156 -0.1713
  324MOL  Cl11139517   7.062   6.039   8.294 -0.2975 -0.2222 -0.4601
  324MOL  Cl11239518   6.800   6.158   8.329  0.1094 -0.2819 -0.0446
  324MOL   C11339519   6.857   5.965   8.139  0.1675 -0.4057 -0.2422
  324MOL   H11439520   6.882   6.060   8.091  0.6758 -0.4617 -0.0952
  324MOL   H11539521   6.936   5.899   8.105  0.0574 -0.2887 -0.7232
  324MOL   C11639522   6.720   5.912   8.091  0.8905 -0.2916  0.0800
  324MOL  Cl11739523   6.578   6.016   8.141  0.2896  0.1750 -0.2158
  324MOL  Cl11839524   6.696   5.737   8.132 -0.2238  0.6097  0.4993
  324MOL   C11939525   6.717   5.922   7.939  0.4591 -0.1277 -0.0354
  324MOL   H12039526   6.733   6.025   7.908 -0.9038  0.7885  2.1228
  324MOL   H12139527   6.797   5.867   7.890 -1.6927 -2.5395 -0.9874
  324MOL   H12239528   6.624   5.885   7.895  0.2317  1.4383 -0.9182
  325MOL     C139529   1.338   0.431   9.082 -0.0438 -0.5534  1.4447
  325MOL    Cl239530   1.418   0.522   0.036  0.0202 -0.0306 -0.1788
  325MOL    Cl339531   1.307   0.538   8.952  0.2025  0.4107 -0.2849
  325MOL     C439532   1.443   0.322   9.039 -0.1261  0.2390 -0.5382
  325MOL     H539533   1.522   0.364   8.977 -0.5000  1.5708 -0.1155
  325MOL     H639534   1.480   0.280   9.133 -0.1409  0.6211 -0.3602
  325MOL     H739535   1.247   0.392   9.128  1.2270 -2.9805  1.9808
  325MOL     C839536   1.389   0.207   8.948  0.0824 -0.1018  0.2937
  325MOL    Cl939537   1.299   0.270   8.812 -0.6340  0.3219 -0.3200
  325MOL   Cl1039538   1.267   0.114   9.050  0.5514  0.0132  0.1057
  325MOL    C1139539   1.501   0.120   8.891 -0.4016 -0.2366  0.5706
  325MOL    H1239540   1.462   0.050   8.817  1.3557 -1.3900  0.7062
  325MOL    H1339541   1.564   0.188   8.834 -0.1200 -0.3660  0.7288
  325MOL    C1439542   1.610   0.055   8.986  0.1735 -0.3730 -0.1950
  325MOL   Cl1539543   1.531   9.144   9.118 -0.1956  0.5345  0.0431
  325MOL   Cl1639544   1.716   0.178   9.062  0.0627 -0.1374 -0.4647
  325MOL    C1739545   1.702   9.136   8.907 -0.4154 -0.2661  0.0572
  325MOL    H1839546   1.773   9.083   8.971  1.0044  0.4241 -0.9116
  325MOL    H1939547   1.636   9.056   8.875 -0.9887  0.2951 -0.1904
  325MOL    C2039548   1.772   9.172   8.769 -0.4560 -0.7210 -0.7984
  325MOL   Cl2139549   1.851   0.155   8.783  0.3216  0.2281  0.0455
  325MOL   Cl2239550   1.662   0.020   8.638  0.3552 -0.1165 -0.1978
  325MOL    C2339551   1.883   9.070   8.727 -0.2960  0.2112  0.0742
  325MOL    H2439552   1.945   9.119   8.652  0.8340 -2.2832 -0.6727
  325MOL    H2539553   1.951   9.053   8.810  0.7258 -5.5531 -1.7398
  325MOL    C2639554   1.854   8.929   8.665  0.3266 -0.3962 -0.1793
  325MOL   Cl2739555   1.838   8.943   8.486 -0.1548  0.2411 -0.2195
  325MOL   Cl2839556   1.705   8.859   8.731 -0.1718  0.0690 -0.3378
  325MOL    C2939557   1.974   8.834   8.700  0.6403 -0.5991  0.4490
  325MOL    H3039558   2.063   8.894   8.686  0.7792 -1.3632 -2.4390
  325MOL    H3139559   1.962   8.831   8.808 -1.8233  1.2727  0.2751
  325MOL    C3239560   1.995   8.697   8.633  0.2138 -0.1842  0.1708
  325MOL   Cl3339561   1.837   8.609   8.616 -0.3824  0.1244  0.1956
  325MOL   Cl3439562   2.094   8.600   8.744  0.0639  0.1017 -0.1245
  325MOL    C3539563   2.072   8.722   8.496  0.2985  0.1522  0.1499
  325MOL    H3639564   2.019   8.783   8.423  0.7277 -1.2566 -1.3697
  325MOL    H3739565   2.170   8.767   8.511 -0.8893  2.3997  1.4303
  325MOL    C3839566   2.122   8.601   8.407  0.6412  0.3853 -0.4386
  325MOL   Cl3939567   2.267   8.537   8.480 -0.1456  0.0296 -0.1739
  325MOL   Cl4039568   2.158   8.647   8.239  0.0040 -0.1745  0.2016
  325MOL    C4139569   2.013   8.490   8.406 -0.0781 -0.5214 -0.5753
  325MOL    H4239570   2.004   8.452   8.508 -1.2922  1.3819  0.0565
  325MOL    H4339571   1.917   8.532   8.377 -0.2459  0.8651  1.8510
  325MOL    C4439572   2.021   8.364   8.318  0.1648  0.0061 -0.0267
  325MOL   Cl4539573   1.974   8.409   8.153  0.6987  0.1858  0.2174
  325MOL   Cl4639574   1.882   8.268   8.371  0.0043 -0.0837 -0.2209
  325MOL    C4739575   2.143   8.271   8.337 -0.0113  0.1999 -0.4960
  325MOL    H4839576   2.234   8.326   8.312 -0.1777  1.0477  0.6944
  325MOL    H4939577   2.146   8.261   8.445  0.1211  0.3007 -0.4880
  325MOL    C5039578   2.158   8.131   8.275  0.1627  0.0326 -0.0186
  325MOL   Cl5139579   2.066   8.014   8.387 -0.3783  0.8118  0.4553
  325MOL   Cl5239580   2.326   8.085   8.295  0.2825  0.4331  0.3395
  325MOL    C5339581   2.105   8.109   8.128  1.3004 -0.1029 -0.6700
  325MOL    H5439582   2.088   8.001   8.123 -0.7570  0.1749 -0.1770
  325MOL    H5539583   2.006   8.154   8.125  1.0648 -0.6555 -1.6757
  325MOL    C5639584   2.191   8.148   8.002  0.0454  0.2264 -0.2052
  325MOL   Cl5739585   2.333   8.037   7.982  0.1483  0.2505 -0.0744
  325MOL   Cl5839586   2.259   8.305   8.030 -0.0444 -0.3184  0.1256
  325MOL    C5939587   2.114   8.155   7.863 -0.2185  0.0854  0.3427
  325MOL    H6039588   2.044   8.237   7.878 -0.2527  0.5632 -2.1590
  325MOL    H6139589   2.173   8.206   7.786 -0.4097 -2.2359 -1.3693
  325MOL    C6239590   2.050   8.031   7.787  0.1608  0.2110  0.2704
  325MOL   Cl6339591   1.942   7.955   7.905  0.1087 -0.4801 -0.1646
  325MOL   Cl6439592   2.166   7.907   7.742  0.2419 -0.1491  0.4148
  325MOL    C6539593   1.953   8.073   7.665 -0.2689  0.6359 -0.4159
  325MOL    H6639594   1.921   7.974   7.634 -0.4049  0.8985 -1.1097
  325MOL    H6739595   1.876   8.122   7.724 -2.8929 -0.9227 -2.4454
  325MOL    C6839596   2.000   8.171   7.551  0.5540 -0.0479  0.2129
  325MOL   Cl6939597   2.170   8.144   7.508 -0.1196  0.2125 -0.2413
  325MOL   Cl7039598   1.990   8.342   7.612 -0.1748  0.1493 -0.0787
  325MOL    C7139599   1.918   8.157   7.415 -1.0401 -0.3013  0.4461
  325MOL    H7239600   1.951   8.222   7.335  0.1132 -1.5101 -0.0943
  325MOL    H7339601   1.942   8.057   7.378 -1.1279 -0.4172  0.6973
  325MOL    C7439602   1.762   8.164   7.410  0.9271 -0.3988  0.0308
  325MOL   Cl7539603   1.697   8.318   7.469  0.2148  0.2384  0.1750
  325MOL   Cl7639604   1.698   8.038   7.527 -0.0840 -0.0235  0.1305
  325MOL    C7739605   1.679   8.129   7.278 -0.2994 -0.2925 -0.8824
  325MOL    H7839606   1.578   8.109   7.314  1.0390 -2.0985  2.0888
  325MOL    H7939607   1.680   8.219   7.217  0.1742  1.7040  1.9414
  325MOL    C8039608   1.721   8.000   7.195  0.1104  0.0315  0.2701
  325MOL   Cl8139609   1.735   7.852   7.302  0.2558  0.1078 -0.3054
  325MOL   Cl8239610   1.879   8.019   7.125  0.3018 -0.1974 -0.1319
  325MOL    C8339611   1.629   7.959   7.076 -0.7029  0.6204  0.2621
  325MOL    H8439612   1.677   7.880   7.018 -0.1815  2.1996 -1.4608
  325MOL    H8539613   1.545   7.909   7.124 -0.4493  0.8075  0.9102
  325MOL    C8639614   1.569   8.056   6.979 -0.1906 -0.8707 -0.2820
  325MOL   Cl8739615   1.438   8.143   7.058 -0.2752 -0.0271  0.0035
  325MOL   Cl8839616   1.502   7.955   6.856 -0.1631  0.3847 -0.0258
  325MOL    C8939617   1.673   8.157   6.926 -0.1449  0.7631  0.2228
  325MOL    H9039618   1.719   8.212   7.007  0.3420  2.0479 -0.9116
  325MOL    H9139619   1.756   8.094   6.893 -0.1347  0.1370  1.4078
  325MOL    C9239620   1.635   8.264   6.824 -0.2345 -0.5268  1.0827
  325MOL   Cl9339621   1.787   8.342   6.787 -0.1512  0.0096 -0.1106
  325MOL   Cl9439622   1.543   8.384   6.913 -0.0148  0.3295 -0.1135
  325MOL    C9539623   1.562   8.214   6.697  0.1457  1.0191  0.4873
  325MOL    H9639624   1.616   8.129   6.658  0.3475  1.4462 -0.1704
  325MOL    H9739625   1.465   8.171   6.721  0.3159 -0.2374 -1.0403
  325MOL    C9839626   1.538   8.310   6.572 -0.4192  1.1632  0.0957
  325MOL   Cl9939627   1.417   8.216   6.486 -0.2487 -0.3291  0.2768
  325MOL  Cl10039628   1.679   8.310   6.462  0.3629  0.2849  0.0380
  325MOL   C10139629   1.473   8.448   6.604  0.4704 -0.0988  0.1346
  325MOL   H10239630   1.372   8.428   6.641  1.4609 -4.1311  0.8937
  325MOL   H10339631   1.545   8.494   6.672 -2.5076  2.2785  1.8081
  325MOL   C10439632   1.453   8.557   6.487 -0.2615  0.6457  0.1326
  325MOL  Cl10539633   1.354   8.484   6.354  0.1284  0.1953 -0.2192
  325MOL  Cl10639634   1.611   8.615   6.433  0.3834  0.3323 -0.2434
  325MOL   C10739635   1.387   8.683   6.549  0.5624  0.7308  0.5590
  325MOL   H10839636   1.324   8.655   6.633  1.2501  0.2489  0.9160
  325MOL   H10939637   1.473   8.732   6.594  1.7415 -0.8133  0.0372
  325MOL   C11039638   1.306   8.785   6.458  0.1982 -0.5107  0.4189
  325MOL  Cl11139639   1.157   8.730   6.383 -0.1795 -0.4513 -0.2378
  325MOL  Cl11239640   1.416   8.828   6.321  0.4483  0.3600  0.0688
  325MOL   C11339641   1.279   8.927   6.534 -0.6019 -0.8505  0.5438
  325MOL   H11439642   1.372   8.982   6.549 -2.0793  1.5438  1.1732
  325MOL   H11539643   1.220   8.987   6.465 -0.9831 -0.6498  1.0534
  325MOL   C11639644   1.193   8.932   6.667 -0.0619 -0.5827 -0.9744
  325MOL  Cl11739645   1.305   8.911   6.804 -0.4666  0.2152 -0.1481
  325MOL  Cl11839646   1.057   8.824   6.670  0.1902  0.5594 -0.1667
  325MOL   C11939647   1.126   9.071   6.684  0.0454 -0.0915 -0.2221
  325MOL   H12039648   1.085   9.113   6.593  0.5705  1.2786  0.1667
  325MOL   H12139649   1.043   9.069   6.754  0.6332 -0.8491  0.4719
  325MOL   H12239650   1.196   9.146   6.721 -1.6172  1.7807 -0.7856
  326MOL     C139651   7.527   0.861   7.331 -0.2345  0.0202 -0.3499
  326MOL    Cl239652   7.361   0.797   7.328 -0.3691 -0.0029 -0.0319
  326MOL    Cl339653   7.577   0.914   7.497 -0.2761 -0.0388  0.1335
  326MOL     C439654   7.624   0.763   7.273 -0.7918  0.1979 -0.5183
  326MOL     H539655   7.718   0.774   7.327 -2.3667  0.8497  2.2299
  326MOL     H639656   7.600   0.661   7.302  0.6643 -0.6449 -2.2154
  326MOL     H739657   7.519   0.946   7.263 -1.3250 -0.2803 -0.5942
  326MOL     C839658   7.655   0.778   7.118  0.6815  0.4015 -0.1690
  326MOL    Cl939659   7.499   0.791   7.032  0.0862  0.1552 -0.3248
  326MOL   Cl1039660   7.743   0.631   7.073  0.1681 -0.3826  0.0402
  326MOL    C1139661   7.738   0.907   7.085 -0.7447  0.4002 -0.2151
  326MOL    H1239662   7.670   0.993   7.086 -2.6474 -1.0736  0.6317
  326MOL    H1339663   7.798   0.941   7.169  0.2035  1.0144 -1.1147
  326MOL    C1439664   7.825   0.917   6.954  0.5356 -0.2260  0.2727
  326MOL   Cl1539665   7.857   1.085   6.923  0.1480  0.2728 -0.0506
  326MOL   Cl1639666   7.731   0.846   6.812 -0.0573 -0.1781 -0.0240
  326MOL    C1739667   7.966   0.851   6.945  0.2590  0.2908 -0.8804
  326MOL    H1839668   7.943   0.746   6.929 -0.1907  0.2488  0.0264
  326MOL    H1939669   7.993   0.855   6.839 -1.0448  1.7060 -1.1868
  326MOL    C2039670   8.072   0.857   7.059  0.8190 -0.1461  0.0056
  326MOL   Cl2139671   8.040   0.736   7.176  0.0874 -0.3054 -0.1368
  326MOL   Cl2239672   8.063   1.018   7.149  0.1306  0.1129  0.1598
  326MOL    C2339673   8.215   0.837   7.018 -0.5480  0.2015 -0.3267
  326MOL    H2439674   8.264   0.870   7.110  0.6101 -1.9614 -0.1161
  326MOL    H2539675   8.231   0.729   7.007  1.3388  0.3909  0.3842
  326MOL    C2639676   8.275   0.914   6.893 -0.3392 -0.0469  0.0236
  326MOL   Cl2739677   8.255   0.800   6.759  0.2008  0.0746 -0.2651
  326MOL   Cl2839678   8.449   0.933   6.918  0.1510 -0.2191 -0.0462
  326MOL    C2939679   8.213   1.049   6.856  0.1987  0.0154  0.6426
  326MOL    H3039680   8.108   1.054   6.884  0.4716  1.8432  1.4003
  326MOL    H3139681   8.249   1.115   6.935 -1.8456  1.2076  0.6169
  326MOL    C3239682   8.230   1.124   6.716 -0.0758 -0.8081 -0.4938
  326MOL   Cl3339683   8.171   1.290   6.759  0.2255 -0.3816  0.0468
  326MOL   Cl3439684   8.117   1.044   6.606  0.2367 -0.2510  0.0481
  326MOL    C3539685   8.380   1.138   6.662  0.2657  0.5849  0.4433
  326MOL    H3639686   8.443   1.193   6.732  1.4541  0.5364 -0.5826
  326MOL    H3739687   8.424   1.038   6.657 -0.9172  0.0970 -0.3671
  326MOL    C3839688   8.406   1.190   6.513 -0.3992  0.1432 -0.3186
  326MOL   Cl3939689   8.322   1.342   6.485 -0.1562  0.2836 -0.1955
  326MOL   Cl4039690   8.347   1.083   6.385  0.4562 -0.0287  0.1188
  326MOL    C4139691   8.549   1.218   6.468 -0.5315 -0.3668  0.0909
  326MOL    H4239692   8.561   1.202   6.361 -2.3437 -1.1843 -0.0150
  326MOL    H4339693   8.584   1.320   6.484  0.7586 -0.5807 -1.3246
  326MOL    C4439694   8.671   1.138   6.519 -0.5220 -0.3500  0.4549
  326MOL   Cl4539695   8.632   0.965   6.496  0.0642 -0.2646 -0.4738
  326MOL   Cl4639696   8.709   1.166   6.691  0.0204  0.1734  0.0295
  326MOL    C4739697   8.808   1.150   6.435  0.1836  0.1892  0.0284
  326MOL    H4839698   8.888   1.092   6.482 -0.2881 -2.1804 -2.0039
  326MOL    H4939699   8.784   1.094   6.345  0.6970  1.5374 -0.9751
  326MOL    C5039700   8.875   1.289   6.391  0.3361 -0.0600  0.1592
  326MOL   Cl5139701   8.884   1.399   6.528 -0.3324 -0.0795  0.1788
  326MOL   Cl5239702   8.766   1.354   6.274  0.4019  0.0292 -0.2849
  326MOL    C5339703   9.026   1.273   6.340  0.0711 -0.6758 -0.3616
  326MOL    H5439704   9.041   1.374   6.300 -0.7620  0.3824  1.8823
  326MOL    H5539705   9.093   1.268   6.426 -0.6061  1.6771  0.3443
  326MOL    C5639706   9.072   1.175   6.230  0.3428  0.2000 -0.0650
  326MOL   Cl5739707   8.967   1.199   6.101 -0.1732 -0.0814  0.2548
  326MOL   Cl5839708   9.051   0.999   6.268  0.1257 -0.5175  0.2755
  326MOL    C5939709   0.037   1.184   6.187 -0.1787 -0.2978  0.5553
  326MOL    H6039710   0.049   1.109   6.108 -1.3053  0.5234 -0.4112
  326MOL    H6139711   0.059   1.273   6.129  1.4685 -1.0850 -0.0630
  326MOL    C6239712   0.157   1.193   6.292  0.7177  0.4534 -0.4241
  326MOL   Cl6339713   0.122   1.090   6.430 -0.4456 -0.0102 -0.3742
  326MOL   Cl6439714   0.172   1.361   6.342  0.1800 -0.2021  0.3562
  326MOL    C6539715   0.299   1.146   6.245  0.6343  0.2586 -0.0444
  326MOL    H6639716   0.368   1.166   6.327  0.8424  1.2716 -0.4610
  326MOL    H6739717   0.305   1.037   6.244 -0.5469  0.1881  0.2703
  326MOL    C6839718   0.364   1.192   6.109  0.0846  0.0293 -0.0152
  326MOL   Cl6939719   0.375   1.372   6.101 -0.0687 -0.2366 -0.1403
  326MOL   Cl7039720   0.267   1.144   5.966 -0.2783  0.1945 -0.1113
  326MOL    C7139721   0.513   1.144   6.090  0.3131  0.1342  0.1744
  326MOL    H7239722   0.543   1.192   5.997  0.3348  1.0185  0.6316
  326MOL    H7339723   0.560   1.203   6.168 -2.1718  1.0368  1.0243
  326MOL    C7439724   0.571   1.001   6.091  0.1911  0.1666  0.3822
  326MOL   Cl7539725   0.494   0.912   5.957 -0.2275  0.0170 -0.2242
  326MOL   Cl7639726   0.534   0.923   6.245 -0.1840  0.4118  0.5452
  326MOL    C7739727   0.726   1.012   6.066  0.0812  0.0215  0.4061
  326MOL    H7839728   0.730   1.033   5.960  2.2816 -0.1869  0.4289
  326MOL    H7939729   0.768   1.102   6.111  0.0744 -1.3980  3.3898
  326MOL    C8039730   0.824   0.898   6.106  0.6168 -0.0389  0.0605
  326MOL   Cl8139731   0.753   0.733   6.067  0.0049  0.2545 -0.0249
  326MOL   Cl8239732   0.845   0.905   6.285 -0.1105 -0.5330  0.0046
  326MOL    C8339733   0.960   0.909   6.041 -0.7691 -0.2584 -0.6331
  326MOL    H8439734   1.012   0.830   6.096  1.6407  1.5135 -0.2860
  326MOL    H8539735   0.949   0.868   5.940  1.8619 -1.3682 -0.5159
  326MOL    C8639736   1.040   1.042   6.032  0.1605  0.5212 -0.0299
  326MOL   Cl8739737   1.019   1.145   6.177  0.3807  0.3173  0.1805
  326MOL   Cl8839738   0.979   1.145   5.903 -0.0467 -0.5897  0.0859
  326MOL    C8939739   1.191   1.024   5.995 -0.0070  0.1470 -0.3386
  326MOL    H9039740   1.197   0.987   5.893  2.1957 -0.3302 -0.0560
  326MOL    H9139741   1.233   1.123   5.978 -0.9839  0.4101 -1.3016
  326MOL    C9239742   1.287   0.926   6.063  0.0871  0.4529 -0.3025
  326MOL   Cl9339743   1.250   0.763   6.000 -0.6938  0.3984  0.1101
  326MOL   Cl9439744   1.259   0.926   6.237  0.5109  0.2452  0.1487
  326MOL    C9539745   1.438   0.950   6.050 -0.4367 -0.0208 -0.2106
  326MOL    H9639746   1.469   1.012   6.134  0.6402  1.0359 -1.3658
  326MOL    H9739747   1.468   0.849   6.074 -1.2717  0.0971  1.3844
  326MOL    C9839748   1.513   1.000   5.924 -0.0417 -0.5292 -0.2868
  326MOL   Cl9939749   1.494   1.174   5.918  0.5990 -0.3564  0.0205
  326MOL  Cl10039750   1.455   0.905   5.796  0.3700  0.1331 -0.2751
  326MOL   C10139751   1.669   0.980   5.949 -0.6962 -0.0057  0.1695
  326MOL   H10239752   1.687   1.036   6.040 -2.9084  1.4919 -0.2777
  326MOL   H10339753   1.682   0.877   5.982 -0.7114 -0.2146 -0.4662
  326MOL   C10439754   1.778   1.021   5.840 -0.1900  0.3763 -0.1126
  326MOL  Cl10539755   1.745   0.926   5.691 -0.1107  0.3827  0.1306
  326MOL  Cl10639756   1.938   0.973   5.910  0.3399 -0.2875  0.1161
  326MOL   C10739757   1.781   1.174   5.806 -0.1652  0.3902 -0.5604
  326MOL   H10839758   1.687   1.192   5.753 -0.5663 -2.0694 -0.7594
  326MOL   H10939759   1.783   1.222   5.903 -1.2782 -0.6771 -0.0086
  326MOL   C11039760   1.895   1.236   5.719  0.4472 -0.4230  0.6028
  326MOL  Cl11139761   2.041   1.278   5.819  0.1065  0.5019 -0.7606
  326MOL  Cl11239762   1.830   1.401   5.674 -0.3064  0.2094  0.0643
  326MOL   C11339763   1.945   1.150   5.595 -0.7175 -0.1687 -0.1881
  326MOL   H11439764   1.977   1.051   5.626 -1.2679 -0.4907 -0.6565
  326MOL   H11539765   1.854   1.130   5.540 -0.9595  0.5291 -0.0520
  326MOL   C11639766   2.045   1.204   5.482  0.0481  0.5296  0.5152
  326MOL  Cl11739767   1.962   1.300   5.359 -0.1245  0.2485  0.1290
  326MOL  Cl11839768   2.091   1.057   5.396 -0.1659  0.2643  0.2121
  326MOL   C11939769   2.180   1.274   5.525 -0.3061  0.6544 -0.3712
  326MOL   H12039770   2.165   1.370   5.574 -0.0360  1.8437 -2.5777
  326MOL   H12139771   2.242   1.200   5.576  0.7181  0.9265 -1.2184
  326MOL   H12239772   2.237   1.296   5.435  0.3412 -1.5956 -0.5642
  327MOL     C139773   7.709   2.744   1.747 -0.4324  0.6299 -0.5082
  327MOL    Cl239774   7.636   2.901   1.693 -0.1084  0.1744 -0.0014
  327MOL    Cl339775   7.839   2.711   1.641 -0.0723  0.3390  0.3170
  327MOL     C439776   7.749   2.766   1.896  0.0529 -0.0819  0.8117
  327MOL     H539777   7.821   2.847   1.902 -2.4430  2.2926 -0.4264
  327MOL     H639778   7.660   2.804   1.946 -0.7370  0.9307 -1.3024
  327MOL     H739779   7.632   2.668   1.740  1.3362 -1.2189 -0.5390
  327MOL     C839780   7.795   2.647   1.986 -0.0290  0.4042 -0.0798
  327MOL    Cl939781   7.687   2.502   1.960 -0.3282 -0.1954  0.0622
  327MOL   Cl1039782   7.769   2.706   2.154  0.0433 -0.3285 -0.1933
  327MOL    C1139783   7.944   2.615   1.969  0.7021  0.5863 -0.1199
  327MOL    H1239784   7.957   2.602   1.861 -0.9291 -2.1033 -0.0339
  327MOL    H1339785   7.998   2.699   2.012 -0.2878  1.5859 -0.7952
  327MOL    C1439786   7.996   2.472   2.025  0.0987 -0.4419  0.4389
  327MOL   Cl1539787   8.173   2.498   2.001  0.1683  0.0591 -0.2644
  327MOL   Cl1639788   7.958   2.336   1.914  0.3333 -0.6006 -0.0974
  327MOL    C1739789   7.974   2.448   2.178 -0.4375 -0.1653  0.3381
  327MOL    H1839790   8.038   2.519   2.230 -0.0176  1.3187 -2.1247
  327MOL    H1939791   7.874   2.484   2.203  0.5312  1.4767  1.9663
  327MOL    C2039792   7.973   2.301   2.235 -0.2781 -0.0308 -0.0967
  327MOL   Cl2139793   8.116   2.218   2.178 -0.1555  0.3009  0.2373
  327MOL   Cl2239794   7.816   2.235   2.175 -0.0548  0.1807  0.0524
  327MOL    C2339795   7.978   2.296   2.390 -0.8307 -0.0493  0.1339
  327MOL    H2439796   7.960   2.192   2.415  1.7919 -0.8728 -1.2218
  327MOL    H2539797   8.079   2.308   2.427 -0.0462 -2.7233 -1.0006
  327MOL    C2639798   7.881   2.382   2.481 -0.9916 -0.4034 -0.4373
  327MOL   Cl2739799   7.963   2.541   2.485  0.5229 -0.1384 -0.4733
  327MOL   Cl2839800   7.897   2.316   2.651  0.3923  0.3838 -0.2634
  327MOL    C2939801   7.732   2.395   2.441  0.7945 -0.4393  0.4535
  327MOL    H3039802   7.735   2.455   2.350  0.4748 -2.0647 -0.6456
  327MOL    H3139803   7.701   2.294   2.414 -1.7682  0.6523 -0.8665
  327MOL    C3239804   7.627   2.460   2.528 -0.4161 -0.4857 -0.4505
  327MOL   Cl3339805   7.559   2.326   2.637 -0.2447  0.2699  0.1271
  327MOL   Cl3439806   7.515   2.533   2.416  0.1134  0.0363  0.2187
  327MOL    C3539807   7.670   2.574   2.639 -1.0875  0.6255  0.1989
  327MOL    H3639808   7.698   2.524   2.732  0.2207  2.4502  0.8334
  327MOL    H3739809   7.760   2.623   2.600 -0.0600 -1.2165  0.2041
  327MOL    C3839810   7.568   2.677   2.687  0.7325  0.8357 -0.4103
  327MOL   Cl3939811   7.401   2.610   2.706  0.2013 -0.2436 -0.6133
  327MOL   Cl4039812   7.566   2.811   2.563  0.3431  0.0534  0.2670
  327MOL    C4139813   7.600   2.739   2.829 -0.4430  0.4175  0.3928
  327MOL    H4239814   7.532   2.823   2.839  0.4394  0.9441  2.1357
  327MOL    H4339815   7.570   2.657   2.894  1.4068 -0.0629  0.6829
  327MOL    C4439816   7.736   2.792   2.885 -0.2162  0.3014  0.3442
  327MOL   Cl4539817   7.840   2.654   2.904 -0.3021 -0.4711  0.3264
  327MOL   Cl4639818   7.690   2.858   3.047 -0.1860  0.0322 -0.0185
  327MOL    C4739819   7.793   2.896   2.785 -0.5506  0.1891 -0.3036
  327MOL    H4839820   7.765   2.878   2.681  0.4202 -2.3965 -0.1671
  327MOL    H4939821   7.753   2.993   2.813 -0.2182  0.1790  0.2211
  327MOL    C5039822   7.938   2.940   2.790  0.3084  0.3730 -0.8092
  327MOL   Cl5139823   8.037   2.812   2.721  0.1822 -0.0887 -0.2371
  327MOL   Cl5239824   7.993   2.955   2.961 -0.5559 -0.3596  0.1635
  327MOL    C5339825   7.974   3.068   2.709 -0.4811 -0.4121 -0.3759
  327MOL    H5439826   7.935   3.150   2.769  2.4303  1.0177 -0.3759
  327MOL    H5539827   8.083   3.070   2.711 -0.4931  0.2853 -0.3185
  327MOL    C5639828   7.934   3.101   2.563  1.0428  0.0152 -0.1332
  327MOL   Cl5739829   7.754   3.111   2.537 -0.4093  0.5279 -0.1686
  327MOL   Cl5839830   7.979   2.961   2.459 -0.1728  0.0369  0.4910
  327MOL    C5939831   8.010   3.226   2.500 -0.7257 -0.1163 -0.3378
  327MOL    H6039832   8.116   3.201   2.498 -0.8155 -0.4676 -0.7575
  327MOL    H6139833   7.970   3.241   2.400 -2.2071  0.4051  0.3177
  327MOL    C6239834   8.014   3.360   2.587  0.8463 -0.1044  0.6944
  327MOL   Cl6339835   8.127   3.333   2.723 -0.0850  0.0122  0.2253
  327MOL   Cl6439836   7.855   3.400   2.655  0.0235  0.3458 -0.3352
  327MOL    C6539837   8.052   3.489   2.510 -0.0451  0.5035  0.5480
  327MOL    H6639838   7.966   3.508   2.446  1.2594 -0.4297 -1.5079
  327MOL    H6739839   8.080   3.562   2.586  4.6730  0.4625 -0.9484
  327MOL    C6839840   8.182   3.490   2.413  0.4525  0.6092 -0.2903
  327MOL   Cl6939841   8.160   3.388   2.270  0.2394  0.3664  0.2330
  327MOL   Cl7039842   8.323   3.454   2.510 -0.1253  0.3650  0.1385
  327MOL    C7139843   8.212   3.631   2.356  0.8390 -0.3421 -0.1197
  327MOL    H7239844   8.233   3.695   2.442 -5.9619  1.6806  0.3768
  327MOL    H7339845   8.307   3.621   2.304  0.9047  0.1468 -0.1006
  327MOL    C7439846   8.116   3.709   2.263 -0.0376 -0.4751 -0.0681
  327MOL   Cl7539847   7.970   3.756   2.357 -0.1352  0.3460  0.0711
  327MOL   Cl7639848   8.064   3.634   2.114  0.5655 -0.0370  0.3522
  327MOL    C7739849   8.176   3.848   2.220 -0.4423  0.5909  0.3180
  327MOL    H7839850   8.111   3.907   2.155 -0.1108  0.1889 -0.3757
  327MOL    H7939851   8.176   3.904   2.313  0.8931 -1.1435  1.3776
  327MOL    C8039852   8.322   3.859   2.171 -0.3590 -0.1828  0.4161
  327MOL   Cl8139853   8.368   3.730   2.059  0.2680  0.2908 -0.1156
  327MOL   Cl8239854   8.425   3.854   2.310 -0.0160 -0.2713  0.5502
  327MOL    C8339855   8.342   4.000   2.098  0.2150  0.1547  0.3893
  327MOL    H8439856   8.265   4.009   2.021 -0.7634 -1.3376  1.1680
  327MOL    H8539857   8.310   4.067   2.178 -1.2965 -0.9960  0.7701
  327MOL    C8639858   8.472   4.052   2.036 -0.4189  0.6484 -0.3888
  327MOL   Cl8739859   8.591   4.075   2.164  0.4454 -0.2945  0.2867
  327MOL   Cl8839860   8.426   4.214   1.980 -0.5916 -0.1977  0.6454
  327MOL    C8939861   8.534   3.961   1.925 -0.0078 -0.3423  0.1816
  327MOL    H9039862   8.590   3.882   1.975 -1.3529  0.2223  2.6395
  327MOL    H9139863   8.449   3.918   1.873 -1.0555  2.9759 -0.9893
  327MOL    C9239864   8.616   4.047   1.820 -0.2085  1.5479  0.0743
  327MOL   Cl9339865   8.728   4.162   1.887 -0.0196 -0.1494 -0.1432
  327MOL   Cl9439866   8.497   4.129   1.711 -0.1301  0.2638 -0.0423
  327MOL    C9539867   8.706   3.962   1.725 -0.2488  0.2371  0.5623
  327MOL    H9639868   8.646   3.936   1.637  0.2564  2.5077 -0.5010
  327MOL    H9739869   8.789   4.022   1.688  0.6391 -2.0827 -1.2762
  327MOL    C9839870   8.776   3.834   1.778 -0.1026 -0.3398 -0.0166
  327MOL   Cl9939871   8.871   3.784   1.640  0.3189 -0.4491 -0.0076
  327MOL  Cl10039872   8.655   3.707   1.808  0.2040  0.0345 -0.0523
  327MOL   C10139873   8.867   3.852   1.898 -0.5828  0.7043  0.4160
  327MOL   H10239874   8.931   3.932   1.860  0.9441 -1.0245 -0.6855
  327MOL   H10339875   8.814   3.902   1.979 -1.5763  1.1723 -0.5064
  327MOL   C10439876   8.945   3.733   1.966  0.0272 -0.9408  0.7354
  327MOL  Cl10539877   9.075   3.817   2.051  0.3086 -0.3039  0.1987
  327MOL  Cl10639878   9.008   3.621   1.844  0.4081  0.2016  0.3253
  327MOL   C10739879   8.856   3.648   2.067  0.0857 -0.0661 -0.3554
  327MOL   H10839880   8.790   3.714   2.124  0.0497 -1.1127  0.8238
  327MOL   H10939881   8.796   3.589   1.997 -0.3510 -1.1203  0.8963
  327MOL   C11039882   8.921   3.546   2.162  0.4890 -0.3716 -0.1819
  327MOL  Cl11139883   8.980   3.649   2.296 -0.0562 -0.0862  0.1728
  327MOL  Cl11239884   9.052   3.457   2.089 -0.2128  0.0817 -0.0748
  327MOL   C11339885   8.828   3.435   2.219  0.6761 -0.3588 -0.2348
  327MOL   H11439886   8.821   3.350   2.152 -1.3273 -0.7697  0.4651
  327MOL   H11539887   8.877   3.386   2.303  0.2689 -1.5710 -0.6932
  327MOL   C11639888   8.674   3.457   2.251 -0.5283  0.0976  0.0507
  327MOL  Cl11739889   8.581   3.471   2.102  0.3107  0.1697 -0.3333
  327MOL  Cl11839890   8.666   3.608   2.353  0.1988  0.1156  0.4085
  327MOL   C11939891   8.609   3.327   2.318 -0.4152  0.2424  0.0775
  327MOL   H12039892   8.502   3.328   2.337 -0.1523  0.6029  1.5955
  327MOL   H12139893   8.619   3.235   2.261 -0.1617  0.3548 -0.0603
  327MOL   H12239894   8.663   3.307   2.410  0.9391  1.1292 -0.5075
  328MOL     C139895   7.983   3.005   4.321  0.0830  0.2215  0.2792
  328MOL    Cl239896   8.018   3.171   4.257 -0.4386  0.5319 -0.2749
  328MOL    Cl339897   7.835   2.948   4.246  0.1228 -0.2438  0.1499
  328MOL     C439898   8.098   2.902   4.304  0.2893 -0.5735 -0.4451
  328MOL     H539899   8.088   2.859   4.204 -0.1048 -0.3816 -0.4905
  328MOL     H639900   8.196   2.948   4.313 -0.1538 -0.0534  1.9403
  328MOL     H739901   7.956   3.031   4.424  2.2205  0.4697  0.8009
  328MOL     C839902   8.104   2.789   4.408  0.3627 -0.2744 -0.0002
  328MOL    Cl939903   7.960   2.689   4.403  0.2367 -0.0649 -0.1217
  328MOL   Cl1039904   8.121   2.850   4.572  0.5116  0.1570 -0.4461
  328MOL    C1139905   8.219   2.686   4.377 -0.3151 -0.6641  0.4740
  328MOL    H1239906   8.229   2.634   4.473  1.3093  0.7172  1.0772
  328MOL    H1339907   8.189   2.628   4.290 -0.4486  0.7083 -0.4122
  328MOL    C1439908   8.364   2.721   4.345  0.1225  0.2416  0.5614
  328MOL   Cl1539909   8.426   2.851   4.452 -0.0448  0.2111  0.3316
  328MOL   Cl1639910   8.378   2.769   4.177  0.1543 -0.1230 -0.2850
  328MOL    C1739911   8.458   2.602   4.370 -0.4619 -0.9431  0.2191
  328MOL    H1839912   8.555   2.632   4.328  0.0149 -1.9079  0.6217
  328MOL    H1939913   8.476   2.593   4.477 -1.8908  1.5728  0.7003
  328MOL    C2039914   8.426   2.451   4.315 -0.3386 -0.1077 -0.0679
  328MOL   Cl2139915   8.359   2.449   4.153  0.2307  0.5165 -0.2927
  328MOL   Cl2239916   8.317   2.394   4.449  0.4268 -0.0514  0.3260
  328MOL    C2339917   8.552   2.367   4.307  0.0673 -0.5714  0.3418
  328MOL    H2439918   8.604   2.391   4.214  1.5635 -1.3062  0.9577
  328MOL    H2539919   8.620   2.400   4.386 -1.2683 -0.9788  1.6843
  328MOL    C2639920   8.541   2.214   4.325 -0.9092 -0.0944  0.5034
  328MOL   Cl2739921   8.392   2.154   4.254 -0.4186  0.1245 -0.4640
  328MOL   Cl2839922   8.528   2.184   4.501 -0.3876 -0.2504 -0.5496
  328MOL    C2939923   8.651   2.123   4.256 -0.2139  0.3013  0.2791
  328MOL    H3039924   8.633   2.024   4.297 -0.9915 -0.4346 -1.7598
  328MOL    H3139925   8.622   2.114   4.151 -3.6632 -0.7597  1.2673
  328MOL    C3239926   8.806   2.140   4.270  0.4355  0.1958 -0.7100
  328MOL   Cl3339927   8.848   2.284   4.169  0.0060 -0.2117 -0.1296
  328MOL   Cl3439928   8.892   2.004   4.201  0.3162 -0.0258 -0.1082
  328MOL    C3539929   8.855   2.157   4.425  0.1614  0.0719 -0.0507
  328MOL    H3639930   8.818   2.258   4.440  0.3717  0.2743 -0.8718
  328MOL    H3739931   8.792   2.092   4.486  2.1987 -2.5678 -0.6512
  328MOL    C3839932   9.005   2.128   4.471 -0.2835  0.1988  0.4073
  328MOL   Cl3939933   9.131   2.191   4.357 -0.6055  0.1637 -0.4214
  328MOL   Cl4039934   9.024   1.953   4.479  0.2686 -0.3784 -0.2331
  328MOL    C4139935   9.037   2.211   4.607 -0.4747 -0.5368  0.0027
  328MOL    H4239936   9.137   2.173   4.628 -1.4555 -2.1205  1.8846
  328MOL    H4339937   9.052   2.317   4.585 -0.0161  0.0080  2.7763
  328MOL    C4439938   8.946   2.205   4.734  0.3050 -0.6421  0.1842
  328MOL   Cl4539939   9.045   2.279   4.860  0.2450  0.3601 -0.6288
  328MOL   Cl4639940   8.900   2.035   4.778  0.0565 -0.0450 -0.2608
  328MOL    C4739941   8.812   2.286   4.706  0.6872  0.5047 -0.4011
  328MOL    H4839942   8.846   2.360   4.633 -1.8953  1.0418 -1.0822
  328MOL    H4939943   8.740   2.215   4.664  1.4880 -1.9906  2.3092
  328MOL    C5039944   8.728   2.364   4.815  0.0317  0.4066 -0.1820
  328MOL   Cl5139945   8.585   2.420   4.723  0.3426  0.1978  0.0195
  328MOL   Cl5239946   8.830   2.507   4.847 -0.0959 -0.2790  0.0148
  328MOL    C5339947   8.681   2.296   4.955 -0.0789  0.4825 -0.1651
  328MOL    H5439948   8.776   2.255   4.991  0.6528  1.5888 -0.8061
  328MOL    H5539949   8.658   2.373   5.029  0.5856  1.4357 -0.9365
  328MOL    C5639950   8.567   2.178   4.969 -0.2757  1.0732 -0.0068
  328MOL   Cl5739951   8.572   2.056   4.844 -0.0937 -0.1537 -0.1057
  328MOL   Cl5839952   8.411   2.253   4.943  0.3972 -0.1297  0.0281
  328MOL    C5939953   8.569   2.106   5.108  0.0473 -0.2964 -1.0038
  328MOL    H6039954   8.532   2.174   5.185 -0.4130 -2.8727  1.0977
  328MOL    H6139955   8.492   2.031   5.093  0.0876 -0.2353 -1.5321
  328MOL    C6239956   8.689   2.024   5.164 -0.2311  0.2190 -0.1255
  328MOL   Cl6339957   8.649   1.959   5.327 -0.2721 -0.2912  0.2600
  328MOL   Cl6439958   8.824   2.134   5.207 -0.0480 -0.1965  0.0574
  328MOL    C6539959   8.744   1.914   5.065  0.9512 -0.0421  0.3953
  328MOL    H6639960   8.659   1.872   5.011  0.6601  0.0396  0.7841
  328MOL    H6739961   8.806   1.970   4.995  0.7616 -0.5658 -0.1973
  328MOL    C6839962   8.829   1.794   5.108 -0.2924 -0.6400 -0.2510
  328MOL   Cl6939963   8.889   1.730   4.952  0.1235 -0.0207  0.0700
  328MOL   Cl7039964   8.702   1.681   5.159 -0.0228 -0.1472  0.2467
  328MOL    C7139965   8.949   1.830   5.212 -0.8118 -0.3730 -0.6256
  328MOL    H7239966   9.011   1.897   5.152 -1.9041  2.9584  1.8143
  328MOL    H7339967   8.922   1.892   5.297 -1.7226 -1.6275  0.0180
  328MOL    C7439968   9.035   1.722   5.270 -0.8068 -0.4559 -0.0461
  328MOL   Cl7539969   8.935   1.629   5.387 -0.0534 -0.2014 -0.1283
  328MOL   Cl7639970   9.165   1.797   5.368 -0.1163 -0.2394  0.1134
  328MOL    C7739971   9.099   1.624   5.166 -0.4552  0.6543 -0.8482
  328MOL    H7839972   9.011   1.580   5.117  0.1397 -0.6247 -0.7954
  328MOL    H7939973   9.147   1.685   5.089 -1.5215  2.2719 -0.2432
  328MOL    C8039974   0.020   1.511   5.200  0.1580 -0.5410 -0.6269
  328MOL   Cl8139975   0.181   1.581   5.224  0.0499 -0.0957 -0.3239
  328MOL   Cl8239976   0.021   1.410   5.057 -0.1567  0.1429  0.0868
  328MOL    C8339977   9.167   1.421   5.324  0.2839  0.0429 -0.0356
  328MOL    H8439978   9.157   1.499   5.399  1.7127 -0.5424  0.7872
  328MOL    H8539979   9.075   1.367   5.301  0.2102 -0.2257  0.8633
  328MOL    C8639980   0.084   1.323   5.397  0.3657 -0.7285 -0.2159
  328MOL   Cl8739981   0.239   1.385   5.448 -0.3249 -0.3673  0.1054
  328MOL   Cl8839982   0.117   1.185   5.286  0.1682 -0.0458  0.0699
  328MOL    C8939983   0.022   1.264   5.528 -0.3840 -0.7844 -0.1594
  328MOL    H9039984   9.114   1.212   5.492 -0.5427  0.1755 -1.1617
  328MOL    H9139985   0.089   1.183   5.558  1.7273  0.6888 -0.7618
  328MOL    C9239986   9.143   1.345   5.646  0.6517 -0.2512  0.2243
  328MOL   Cl9339987   9.136   1.252   5.792  0.1101  0.2470  0.5245
  328MOL   Cl9439988   8.969   1.391   5.607 -0.1270  0.0599  0.2007
  328MOL    C9539989   0.043   1.475   5.670  0.3163 -0.2677  0.2590
  328MOL    H9639990   0.149   1.453   5.684  0.2069 -1.3586 -0.5383
  328MOL    H9739991   0.044   1.535   5.579  0.6065 -3.3191 -1.8328
  328MOL    C9839992   0.023   1.575   5.784 -0.4287 -0.1481 -0.1978
  328MOL   Cl9939993   0.071   1.501   5.931 -0.3020  0.0148  0.0854
  328MOL  Cl10039994   9.032   1.621   5.805  0.0715 -0.0430 -0.3249
  328MOL   C10139995   0.094   1.708   5.771 -0.2914 -0.3060 -0.3038
  328MOL   H10239996   0.047   1.778   5.702  0.6710 -0.6056 -1.2774
  328MOL   H10339997   0.090   1.759   5.868 -1.8424 -0.9695 -0.0059
  328MOL   C10439998   0.246   1.729   5.730 -1.3658  1.2171  0.1482
  328MOL  Cl10539999   0.276   1.694   5.553 -0.4179 -0.2805  0.7063
  328MOL  Cl10640000   0.348   1.615   5.818 -0.2628  0.1277  0.2973
  328MOL   C10740001   0.309   1.864   5.781 -0.6291  0.0283 -0.3841
  328MOL   H10840002   0.312   1.859   5.890 -3.5434 -1.1309 -0.3055
  328MOL   H10940003   0.416   1.876   5.762 -0.5342 -0.4668 -0.1895
  328MOL   C11040004   0.246   2.001   5.756 -0.4712  0.5078 -0.7794
  328MOL  Cl11140005   0.361   2.127   5.803  0.2144  0.0365  0.4393
  328MOL  Cl11240006   0.108   2.027   5.864 -0.3320  0.1405  0.3313
  328MOL   C11340007   0.206   2.021   5.605  0.2834 -0.2505  0.3439
  328MOL   H11440008   0.297   2.023   5.546  0.0227  0.1141 -0.0565
  328MOL   H11540009   0.151   1.935   5.565 -0.1715 -0.5427  1.5663
  328MOL   C11640010   0.108   2.135   5.556 -0.2241  0.3191 -0.3852
  328MOL  Cl11740011   9.121   2.109   5.615  0.3336 -0.0101  0.0271
  328MOL  Cl11840012   0.115   2.129   5.376 -0.0804  0.2318  0.1331
  328MOL   C11940013   0.154   2.276   5.604  0.5567  0.2343  0.0979
  328MOL   H12040014   0.258   2.303   5.584  0.7995 -0.6704  0.0879
  328MOL   H12140015   0.089   2.352   5.562 -0.7232 -0.5252  0.6720
  328MOL   H12240016   0.133   2.282   5.711 -1.4410  2.4239 -0.3903
  329MOL     C140017   1.462   3.475   6.552  0.0982 -0.1532  0.3188
  329MOL    Cl240018   1.510   3.641   6.519  0.2642 -0.0134  0.3367
  329MOL    Cl340019   1.328   3.473   6.671 -0.2548 -0.2527 -0.1466
  329MOL     C440020   1.418   3.392   6.430  0.0350  0.7488  0.1069
  329MOL     H540021   1.354   3.310   6.462  1.1824  0.3728  1.5278
  329MOL     H640022   1.345   3.447   6.371 -1.5757 -2.0423 -0.6159
  329MOL     H740023   1.550   3.432   6.599  0.6071  0.7768  0.2231
  329MOL     C840024   1.530   3.326   6.345  0.9399  0.2981  0.2696
  329MOL    Cl940025   1.651   3.445   6.304 -0.1916  0.5073 -0.0258
  329MOL   Cl1040026   1.456   3.273   6.190  0.0006  0.2381  0.2386
  329MOL    C1140027   1.609   3.217   6.413  0.0028 -0.5225  0.0294
  329MOL    H1240028   1.657   3.170   6.328  1.1121 -1.3108  1.0672
  329MOL    H1340029   1.689   3.270   6.465  1.2254  0.7334 -3.0792
  329MOL    C1440030   1.543   3.101   6.492 -0.4881 -0.7649  0.0034
  329MOL   Cl1540031   1.399   3.035   6.401  0.2709  0.4646 -0.1214
  329MOL   Cl1640032   1.492   3.150   6.651 -0.1688  0.2058  0.0034
  329MOL    C1740033   1.637   2.976   6.502 -0.3178 -0.2055 -0.2092
  329MOL    H1840034   1.581   2.908   6.566  0.7798 -1.4271 -0.5323
  329MOL    H1940035   1.633   2.940   6.399  1.9036 -1.1123 -0.0014
  329MOL    C2040036   1.790   2.976   6.556 -0.1047 -0.2778 -0.1256
  329MOL   Cl2140037   1.786   3.027   6.723 -0.1730 -0.1526 -0.1358
  329MOL   Cl2240038   1.902   3.089   6.461  0.2325  0.2451 -0.4990
  329MOL    C2340039   1.857   2.832   6.545  0.5620  0.2901  0.6059
  329MOL    H2440040   1.881   2.826   6.438 -2.2084  2.5796 -0.2114
  329MOL    H2540041   1.951   2.854   6.596  1.1981  1.9968 -1.2072
  329MOL    C2640042   1.780   2.702   6.569  0.7107  0.4514 -0.2258
  329MOL   Cl2740043   1.664   2.688   6.438  0.1095 -0.3199 -0.2095
  329MOL   Cl2840044   1.695   2.708   6.727  0.1858  0.3267 -0.0335
  329MOL    C2940045   1.874   2.577   6.562  0.1939  0.1486 -0.1715
  329MOL    H3040046   1.806   2.492   6.552  1.4612 -0.9699  0.5203
  329MOL    H3140047   1.934   2.580   6.471  1.9052 -0.1803  0.9326
  329MOL    C3240048   1.967   2.545   6.681 -0.3721 -0.3179  0.1777
  329MOL   Cl3340049   1.881   2.452   6.816 -0.0690 -0.1935  0.5201
  329MOL   Cl3440050   2.059   2.694   6.750 -0.2403  0.9969  0.2734
  329MOL    C3540051   2.077   2.458   6.617 -0.5814  0.4557 -0.0006
  329MOL    H3640052   2.021   2.388   6.553 -1.6513  0.1819  1.2144
  329MOL    H3740053   2.140   2.514   6.548 -1.5121  1.2205 -0.2457
  329MOL    C3840054   2.154   2.354   6.701 -0.0655  0.2714 -0.3179
  329MOL   Cl3940055   2.302   2.315   6.610  0.3806 -0.0650 -0.0619
  329MOL   Cl4040056   2.054   2.209   6.713 -0.0495 -0.3766 -0.2302
  329MOL    C4140057   2.214   2.398   6.842 -0.0577 -0.0396 -0.2635
  329MOL    H4240058   2.298   2.463   6.819  0.6340 -0.7872  0.1265
  329MOL    H4340059   2.139   2.466   6.883  1.9286  1.2945  1.2457
  329MOL    C4440060   2.270   2.295   6.951 -0.0201 -0.4451  0.4527
  329MOL   Cl4540061   2.137   2.200   7.012  0.3235 -0.0530  0.0696
  329MOL   Cl4640062   2.321   2.399   7.090  0.0910 -0.3649  0.4144
  329MOL    C4740063   2.390   2.213   6.896  0.0333  0.2017 -0.3462
  329MOL    H4840064   2.354   2.156   6.811  1.1798  0.3160 -0.9168
  329MOL    H4940065   2.456   2.289   6.854 -3.5405  1.5880 -3.7236
  329MOL    C5040066   2.469   2.115   6.996 -0.2306 -0.0362 -0.3212
  329MOL   Cl5140067   2.565   2.219   7.098 -0.1886  0.0769  0.1301
  329MOL   Cl5240068   2.583   2.026   6.891 -0.1145  0.5312  0.4107
  329MOL    C5340069   2.377   2.015   7.076 -0.2299  0.0797  0.2471
  329MOL    H5440070   2.321   2.068   7.153  0.9674 -0.5613  1.5682
  329MOL    H5540071   2.298   1.969   7.016  0.4183 -4.6532  2.7875
  329MOL    C5640072   2.432   1.904   7.163  0.4842 -0.8949 -0.2216
  329MOL   Cl5740073   2.505   1.768   7.071 -0.2368  0.1292 -0.3654
  329MOL   Cl5840074   2.281   1.839   7.239 -0.0517  0.1657 -0.2225
  329MOL    C5940075   2.536   1.956   7.270  0.4184  0.2527 -0.2627
  329MOL    H6040076   2.626   1.976   7.211 -0.5231 -0.4714 -1.9864
  329MOL    H6140077   2.494   2.049   7.308  0.6047 -0.4520  1.7245
  329MOL    C6240078   2.567   1.869   7.396 -0.1641  0.3336 -0.3035
  329MOL   Cl6340079   2.437   1.919   7.513 -0.2977  0.4531  0.1897
  329MOL   Cl6440080   2.724   1.930   7.459 -0.0320  0.0941  0.3747
  329MOL    C6540081   2.576   1.714   7.368 -0.1807  0.1587 -0.2401
  329MOL    H6640082   2.485   1.678   7.321 -0.9877  1.5864  0.2050
  329MOL    H6740083   2.652   1.702   7.290 -1.2345  0.1788 -1.2775
  329MOL    C6840084   2.576   1.604   7.480 -0.3780  0.2799  0.4655
  329MOL   Cl6940085   2.572   1.458   7.386  0.0802  0.1648 -0.3751
  329MOL   Cl7040086   2.423   1.607   7.554 -0.1576 -0.0742  0.3876
  329MOL    C7140087   2.684   1.603   7.588 -0.3371  0.0493 -0.3363
  329MOL    H7240088   2.778   1.630   7.539 -1.0043  1.7229 -0.7340
  329MOL    H7340089   2.677   1.696   7.644  3.9721 -0.2784  0.8684
  329MOL    C7440090   2.716   1.473   7.681 -0.5878  0.5782 -0.3353
  329MOL   Cl7540091   2.838   1.523   7.798  0.0337 -0.0424  0.1469
  329MOL   Cl7640092   2.790   1.347   7.588  0.3244  0.1988 -0.5552
  329MOL    C7740093   2.588   1.418   7.747 -0.1818  0.4402  0.2688
  329MOL    H7840094   2.520   1.499   7.773 -0.7524  0.2300 -0.5607
  329MOL    H7940095   2.544   1.359   7.667  2.2421  1.5586 -1.9633
  329MOL    C8040096   2.599   1.335   7.884 -0.1384  0.3942  0.3229
  329MOL   Cl8140097   2.436   1.275   7.909  0.6483  0.4677  0.0206
  329MOL   Cl8240098   2.625   1.449   8.007 -0.1546  0.3135  0.1107
  329MOL    C8340099   2.692   1.213   7.878  0.0845 -0.2051 -0.5694
  329MOL    H8440100   2.653   1.150   7.798 -0.1742  0.6090 -1.0909
  329MOL    H8540101   2.788   1.249   7.842 -0.2362  0.0567 -1.1677
  329MOL    C8640102   2.724   1.103   7.987 -0.1210  0.1915  0.2321
  329MOL   Cl8740103   2.575   1.008   8.027  0.3438 -0.0141  0.3654
  329MOL   Cl8840104   2.783   1.184   8.134 -0.4414  0.0303  0.3216
  329MOL    C8940105   2.830   0.999   7.957  0.1872  0.3223 -0.0454
  329MOL    H9040106   2.928   1.045   7.943  0.9049 -1.1512 -0.0770
  329MOL    H9140107   2.849   0.928   8.038  1.1489 -0.4227 -0.9181
  329MOL    C9240108   2.834   0.923   7.825  0.1199  0.8027 -0.4780
  329MOL   Cl9340109   2.849   1.025   7.677  0.1262  0.3177  0.1611
  329MOL   Cl9440110   2.688   0.831   7.811  0.7915 -0.1665  0.3523
  329MOL    C9540111   2.947   0.816   7.808  0.0223  0.6046 -0.3801
  329MOL    H9640112   2.910   0.728   7.862 -0.4290  0.1402 -1.4472
  329MOL    H9740113   2.948   0.786   7.704  2.1197 -0.6302 -0.0402
  329MOL    C9840114   3.098   0.841   7.854  0.0178  0.0516 -0.1357
  329MOL   Cl9940115   3.113   0.855   8.029  0.1286  0.0933 -0.0664
  329MOL  Cl10040116   3.152   0.993   7.792 -0.1516  0.0405 -0.0782
  329MOL   C10140117   3.187   0.724   7.787  0.1118 -0.0862  0.3788
  329MOL   H10240118   3.128   0.633   7.793 -1.2562  0.9032  2.3002
  329MOL   H10340119   3.197   0.749   7.682  1.0104  0.6901  0.6396
  329MOL   C10440120   3.327   0.680   7.832  0.5809  0.3514 -0.4340
  329MOL  Cl10540121   3.335   0.628   8.003  0.1153  0.4118  0.3859
  329MOL  Cl10640122   3.440   0.816   7.821 -0.2207 -0.1490 -0.3055
  329MOL   C10740123   3.368   0.555   7.740 -0.3696 -0.0813  0.1063
  329MOL   H10840124   3.289   0.481   7.725 -0.1680 -0.5193  1.1717
  329MOL   H10940125   3.391   0.595   7.642 -2.8814  0.9554 -0.1058
  329MOL   C11040126   3.498   0.459   7.762 -0.1769 -0.3646  0.0273
  329MOL  Cl11140127   3.637   0.568   7.783  0.0288  0.3933 -0.0208
  329MOL  Cl11240128   3.507   0.370   7.610  0.4143  0.2097  0.6120
  329MOL   C11340129   3.487   0.357   7.881 -0.3172  0.1428 -0.2811
  329MOL   H11440130   3.466   0.411   7.973 -1.8695 -0.3116 -0.3535
  329MOL   H11540131   3.396   0.297   7.877 -0.4489  0.2679  0.5911
  329MOL   C11640132   3.596   0.256   7.910  0.2311  0.3299 -0.4844
  329MOL  Cl11740133   3.625   0.135   7.786  0.5747  0.0272  0.2960
  329MOL  Cl11840134   3.534   0.169   8.054  0.0320  0.1811 -0.0206
  329MOL   C11940135   3.733   0.315   7.951  0.7444  0.5845 -0.2360
  329MOL   H12040136   3.778   0.383   7.878 -1.5180  1.4565 -0.8865
  329MOL   H12140137   3.728   0.380   8.038 -2.4978  0.2635 -0.1208
  329MOL   H12240138   3.804   0.236   7.975 -0.9643 -0.8506  0.2171
  330MOL     C140139   3.443   0.359   0.683  0.0200  0.9113  0.1182
  330MOL    Cl240140   3.380   0.184   0.698 -0.1832 -0.4594 -0.0002
  330MOL    Cl340141   3.360   0.430   0.534  0.3440 -0.0387 -0.3268
  330MOL     C440142   3.409   0.447   0.805 -0.0731  0.3323 -0.2075
  330MOL     H540143   3.441   0.548   0.776  2.7124 -0.8911 -1.6140
  330MOL     H640144   3.300   0.445   0.808 -0.0341 -1.1961  0.7316
  330MOL     H740145   3.548   0.348   0.658  0.2630  0.2358  1.3907
  330MOL     C840146   3.475   0.423   0.941  0.4426  0.4987  0.3422
  330MOL    Cl940147   3.650   0.401   0.917 -0.0618 -0.2963 -0.3015
  330MOL   Cl1040148   3.412   0.275   1.017 -0.1845 -0.0376 -0.0425
  330MOL    C1140149   3.467   0.537   1.049  0.2597  0.1003  0.7349
  330MOL    H1240150   3.510   0.498   1.141  0.9201  0.0804  0.4160
  330MOL    H1340151   3.533   0.616   1.013  0.5325 -0.2348  0.4998
  330MOL    C1440152   3.331   0.599   1.081 -0.1377  0.9157  0.2902
  330MOL   Cl1540153   3.288   0.692   0.937 -0.3789  0.1442  0.0998
  330MOL   Cl1640154   3.366   0.713   1.212  0.1025  0.2487  0.2654
  330MOL    C1740155   3.224   0.492   1.124  0.0114  0.6511 -0.5280
  330MOL    H1840156   3.193   0.437   1.035  1.9959  1.5270 -1.8056
  330MOL    H1940157   3.265   0.412   1.185 -1.4352  0.1396 -0.1936
  330MOL    C2040158   3.092   0.550   1.189  0.9442  0.2502  0.6871
  330MOL   Cl2140159   3.121   0.578   1.366  0.3681 -0.0214  0.0500
  330MOL   Cl2240160   2.978   0.416   1.182 -0.0089 -0.0684 -0.1722
  330MOL    C2340161   3.029   0.664   1.103 -0.6558 -0.2696 -0.3821
  330MOL    H2440162   3.114   0.731   1.099 -2.4517  2.1978  1.3679
  330MOL    H2540163   3.015   0.629   1.000  0.2717 -2.3409  0.1838
  330MOL    C2640164   2.911   0.755   1.159  0.1666  0.4595  0.2317
  330MOL   Cl2740165   2.872   0.886   1.035  0.4739  0.3033  0.1358
  330MOL   Cl2840166   2.957   0.835   1.316 -0.2620 -0.0244  0.0987
  330MOL    C2940167   2.776   0.682   1.181 -0.0241  0.3307 -0.0056
  330MOL    H3040168   2.743   0.630   1.091 -1.3549 -0.9845  1.1913
  330MOL    H3140169   2.797   0.602   1.252  0.0403  2.1903  2.1382
  330MOL    C3240170   2.647   0.749   1.248 -0.1904 -0.3347 -0.7152
  330MOL   Cl3340171   2.526   0.621   1.247  0.0065 -0.3136  0.3667
  330MOL   Cl3440172   2.579   0.895   1.159 -1.0039 -0.5658 -0.4835
  330MOL    C3540173   2.668   0.782   1.400 -0.4560 -0.1381  0.3733
  330MOL    H3640174   2.738   0.715   1.449  0.5411 -0.6965 -1.7287
  330MOL    H3740175   2.720   0.877   1.398  1.5703 -1.1576  2.5380
  330MOL    C3840176   2.547   0.804   1.501  0.2273  0.6847  0.2322
  330MOL   Cl3940177   2.632   0.901   1.630 -0.0929  0.4827  0.0452
  330MOL   Cl4040178   2.485   0.646   1.552 -0.0221  0.4646 -0.0435
  330MOL    C4140179   2.429   0.882   1.440 -0.0296 -0.3113  0.1734
  330MOL    H4240180   2.477   0.975   1.410 -0.9255  0.6949  1.7834
  330MOL    H4340181   2.388   0.834   1.352 -2.0354 -0.8031  1.3388
  330MOL    C4440182   2.303   0.913   1.523  0.3977  0.7357 -0.4445
  330MOL   Cl4540183   2.337   0.949   1.696 -0.3322 -0.3003 -0.2952
  330MOL   Cl4640184   2.185   0.780   1.493  0.5102  0.0623 -0.1010
  330MOL    C4740185   2.242   1.044   1.457  0.7535 -0.0982  0.0022
  330MOL    H4840186   2.312   1.125   1.480 -0.4149  0.6750  0.8630
  330MOL    H4940187   2.253   1.032   1.349 -2.2046 -1.1145 -0.2258
  330MOL    C5040188   2.099   1.102   1.498  0.0152  0.1776  0.1828
  330MOL   Cl5140189   2.082   1.260   1.409  0.0488 -0.2742 -0.0489
  330MOL   Cl5240190   2.090   1.163   1.668 -0.2470 -0.2752 -0.2677
  330MOL    C5340191   1.985   1.006   1.460  0.4046 -0.5745  0.6498
  330MOL    H5440192   2.005   0.986   1.355 -0.3049  0.0957  0.3753
  330MOL    H5540193   1.988   0.916   1.521 -0.1282 -0.1784  1.2625
  330MOL    C5640194   1.834   1.058   1.446  0.3291  0.2361  0.7112
  330MOL   Cl5740195   1.735   0.911   1.416  0.0273 -0.1623  0.2012
  330MOL   Cl5840196   1.825   1.157   1.302  0.2656 -0.0224 -0.0062
  330MOL    C5940197   1.784   1.145   1.563  0.5201  0.0371 -0.4029
  330MOL    H6040198   1.814   1.102   1.659 -1.6598  0.7773  0.6425
  330MOL    H6140199   1.837   1.239   1.554  1.0627 -0.1635  0.6148
  330MOL    C6240200   1.629   1.176   1.588  0.5516  0.8760 -0.4676
  330MOL   Cl6340201   1.627   1.289   1.727  0.3762  0.2025  0.0618
  330MOL   Cl6440202   1.559   1.013   1.652  0.2257 -0.2043  0.8118
  330MOL    C6540203   1.546   1.220   1.464 -0.5089 -0.9131  0.1302
  330MOL    H6640204   1.592   1.316   1.443  0.1948 -1.2809 -0.0080
  330MOL    H6740205   1.581   1.161   1.379  1.5327  0.4680 -0.0182
  330MOL    C6840206   1.394   1.238   1.480  0.5079 -0.0630 -0.0058
  330MOL   Cl6940207   1.351   1.345   1.346 -0.0221  0.3426 -0.1132
  330MOL   Cl7040208   1.351   1.325   1.631 -0.0992 -0.2152 -0.1601
  330MOL    C7140209   1.312   1.101   1.455 -0.1246 -0.6270 -0.4883
  330MOL    H7240210   1.342   1.051   1.362 -1.3414 -0.8739 -0.7592
  330MOL    H7340211   1.346   1.039   1.538 -0.1186  0.9349  0.7033
  330MOL    C7440212   1.159   1.082   1.452 -0.3242 -0.8917 -0.1881
  330MOL   Cl7540213   1.110   1.142   1.291 -0.3300 -0.1769  0.3437
  330MOL   Cl7640214   1.078   1.176   1.580  0.2297  0.0727  0.5897
  330MOL    C7740215   1.108   0.938   1.460  0.1580  0.3558  0.3409
  330MOL    H7840216   1.001   0.940   1.479  0.1920 -1.8736  0.9780
  330MOL    H7940217   1.113   0.898   1.359  4.0295 -0.4119  0.7388
  330MOL    C8040218   1.172   0.825   1.542 -0.0527  1.0244  0.5406
  330MOL   Cl8140219   1.194   0.877   1.711  0.0497  0.2946  0.1044
  330MOL   Cl8240220   1.335   0.772   1.479 -0.0664 -0.0449  0.0834
  330MOL    C8340221   1.081   0.696   1.547  0.2913 -0.1252  0.4938
  330MOL    H8440222   1.122   0.620   1.613  0.3351 -0.3914  0.1603
  330MOL    H8540223   0.993   0.722   1.605 -2.1287 -1.1254 -2.6201
  330MOL    C8640224   1.030   0.618   1.421  1.3967  0.1256 -0.3738
  330MOL   Cl8740225   1.167   0.566   1.313 -0.2252 -0.3457 -0.1582
  330MOL   Cl8840226   0.935   0.720   1.305  0.2564 -0.2574  0.0411
  330MOL    C8940227   0.958   0.476   1.449 -0.0314 -0.6132 -0.0521
  330MOL    H9040228   0.935   0.437   1.350  1.7259 -1.1709 -0.2627
  330MOL    H9140229   1.040   0.414   1.485 -0.9898 -0.7016  1.9984
  330MOL    C9240230   0.836   0.465   1.542 -0.4636  0.5512 -0.6123
  330MOL   Cl9340231   0.715   0.576   1.494 -0.0633 -0.0632 -0.3893
  330MOL   Cl9440232   0.882   0.502   1.704 -0.0356 -0.0092  0.1293
  330MOL    C9540233   0.766   0.333   1.533  0.2490  0.0365 -0.3147
  330MOL    H9640234   0.668   0.344   1.579  0.4508  0.0853  0.1073
  330MOL    H9740235   0.739   0.323   1.428 -1.4332  0.6911  0.0418
  330MOL    C9840236   0.824   0.199   1.581  0.4056 -0.3277  0.0370
  330MOL   Cl9940237   0.999   0.172   1.542  0.2277  0.0352 -0.0124
  330MOL  Cl10040238   0.721   0.077   1.487  0.2858 -0.2158  0.1295
  330MOL   C10140239   0.802   0.182   1.735  0.1199  0.5378  0.1232
  330MOL   H10240240   0.876   0.245   1.786  0.6695  0.1721 -0.2232
  330MOL   H10340241   0.705   0.227   1.759 -0.0904 -0.3580  0.9922
  330MOL   C10440242   0.813   0.046   1.813  0.0484 -0.1822  0.1302
  330MOL  Cl10540243   0.981   9.151   1.793 -0.0814 -0.4071 -0.1276
  330MOL  Cl10640244   0.697   9.103   1.752  0.2130 -0.2238 -0.0056
  330MOL   C10740245   0.786   0.054   1.962  0.0349  0.7764  0.1608
  330MOL   H10840246   0.678   0.066   1.971 -0.3989 -2.0459 -0.8218
  330MOL   H10940247   0.802   9.134   2.002 -2.1299 -0.0301 -0.9364
  330MOL   C11040248   0.857   0.160   2.050  0.1571  0.3018 -0.0671
  330MOL  Cl11140249   0.792   0.325   2.029  0.1770  0.1319 -0.1593
  330MOL  Cl11240250   1.031   0.181   2.019  0.2100 -0.0836  0.2134
  330MOL   C11340251   0.847   0.102   2.197  0.1279  0.2211 -0.8997
  330MOL   H11440252   0.900   0.006   2.205 -0.1364  0.1374 -0.0951
  330MOL   H11540253   0.920   0.157   2.257 -0.6659 -0.6260  0.8815
  330MOL   C11640254   0.708   0.082   2.267 -0.1741 -0.2809  0.7555
  330MOL  Cl11740255   0.611   9.133   2.192 -0.2195 -0.1407  0.1866
  330MOL  Cl11840256   0.607   0.231   2.272  0.0194 -0.0011 -0.3140
  330MOL   C11940257   0.713   0.055   2.416 -0.8379  0.2755 -0.1995
  330MOL   H12040258   0.620   0.035   2.469 -1.1389 -2.1434 -1.6015
  330MOL   H12140259   0.785   9.157   2.438 -0.8387  0.3980  0.2496
  330MOL   H12240260   0.753   0.144   2.465  0.9126 -1.4249  1.5553
  331MOL     C140261   5.675   3.266   0.651  0.3767 -0.1209 -0.2927
  331MOL    Cl240262   5.751   3.378   0.773 -0.2059 -0.0576 -0.2540
  331MOL    Cl340263   5.511   3.209   0.713 -0.5263 -0.1346  0.1045
  331MOL     C440264   5.655   3.327   0.510  0.0251  0.7478 -0.2894
  331MOL     H540265   5.617   3.243   0.452  1.2508 -1.7434  2.4358
  331MOL     H640266   5.588   3.414   0.516 -0.8963  0.0246  0.0632
  331MOL     H740267   5.755   3.192   0.656  1.0773  0.7154  1.5911
  331MOL     C840268   5.782   3.371   0.432 -0.7086 -0.1450  0.6750
  331MOL    Cl940269   5.920   3.263   0.437 -0.1697 -0.3377 -0.0034
  331MOL   Cl1040270   5.831   3.526   0.491  0.0932  0.3583  0.1325
  331MOL    C1140271   5.744   3.409   0.281 -0.6628 -0.5066 -0.4593
  331MOL    H1240272   5.686   3.501   0.274  0.8774  0.5152 -0.1976
  331MOL    H1340273   5.838   3.421   0.226 -0.4508  0.2186  0.0517
  331MOL    C1440274   5.664   3.301   0.199 -0.1605  0.0358 -0.9536
  331MOL   Cl1540275   5.490   3.330   0.242  0.0373  0.0945 -0.0023
  331MOL   Cl1640276   5.724   3.133   0.233  0.1237 -0.1029 -0.4641
  331MOL    C1740277   5.680   3.338   0.052  0.5250 -0.1472  0.9354
  331MOL    H1840278   5.631   3.432   0.029  0.0622 -0.8441 -1.0059
  331MOL    H1940279   5.787   3.356   0.044  0.1954  0.4393 -2.9069
  331MOL    C2040280   5.661   3.243   9.116 -0.1139  0.1988 -0.0880
  331MOL   Cl2140281   5.811   3.144   9.102  0.0988 -0.4087 -0.2906
  331MOL   Cl2240282   5.647   3.344   8.967 -0.1457 -0.1287  0.0577
  331MOL    C2340283   5.532   3.150   9.130 -0.3959  0.0052  0.0858
  331MOL    H2440284   5.531   3.121   0.055 -0.2269 -2.1073 -0.4724
  331MOL    H2540285   5.452   3.219   9.102 -0.6376 -0.7800 -1.1632
  331MOL    C2640286   5.507   3.016   9.050  0.1629  0.3902 -0.3055
  331MOL   Cl2740287   5.610   2.882   9.104  0.0066  0.1320  0.3212
  331MOL   Cl2840288   5.529   3.037   8.878 -0.3869 -0.6626 -0.5025
  331MOL    C2940289   5.362   2.962   9.061 -0.1699  0.2621 -0.0923
  331MOL    H3040290   5.311   3.020   8.984  1.4450 -0.3412 -1.6547
  331MOL    H3140291   5.351   2.863   9.015 -0.1470 -0.6538  1.8351
  331MOL    C3240292   5.281   2.966   0.017 -0.1867 -0.0583 -0.3606
  331MOL   Cl3340293   5.128   2.881   9.159 -0.0986  0.1972  0.0837
  331MOL   Cl3440294   5.234   3.138   0.048  0.1195  0.3116  0.0068
  331MOL    C3540295   5.347   2.899   0.135 -0.9364  0.0073 -0.2158
  331MOL    H3640296   5.366   2.793   0.117 -1.2388 -0.3610  1.5265
  331MOL    H3740297   5.449   2.937   0.128 -0.9181 -0.0168 -0.0719
  331MOL    C3840298   5.304   2.904   0.284 -0.4882 -0.4247  0.6848
  331MOL   Cl3940299   5.310   3.069   0.349 -0.6905 -0.3775 -0.2059
  331MOL   Cl4040300   5.399   2.804   0.388 -0.1761  0.0804 -0.2796
  331MOL    C4140301   5.154   2.859   0.301 -0.2234  0.2628  0.1944
  331MOL    H4240302   5.094   2.936   0.252 -0.5451  0.3591  0.7486
  331MOL    H4340303   5.146   2.776   0.231 -0.0338  2.4165 -2.4575
  331MOL    C4440304   5.077   2.826   0.434  0.1821  0.3626 -0.5539
  331MOL   Cl4540305   4.905   2.784   0.383  0.1463 -0.3222 -0.1799
  331MOL   Cl4640306   5.060   2.970   0.536 -0.1589 -0.2670  0.3450
  331MOL    C4740307   5.122   2.714   0.538  0.1602 -0.1679 -0.9577
  331MOL    H4840308   5.220   2.755   0.563  0.6001 -0.3344 -2.4045
  331MOL    H4940309   5.050   2.722   0.620 -1.8877  0.0815 -2.7497
  331MOL    C5040310   5.125   2.560   0.513  0.0559  0.3799 -1.0217
  331MOL   Cl5140311   5.218   2.527   0.372 -0.5184 -0.0498  0.3030
  331MOL   Cl5240312   4.973   2.485   0.463  0.2461  0.2972 -0.3701
  331MOL    C5340313   5.189   2.483   0.633 -0.6777  0.1213  0.8422
  331MOL    H5440314   5.183   2.379   0.603  0.6353  0.4746 -0.7241
  331MOL    H5540315   5.294   2.512   0.643 -0.1034 -1.4206 -0.5630
  331MOL    C5640316   5.120   2.485   0.775  0.3485  0.5047 -0.0108
  331MOL   Cl5740317   5.184   2.637   0.854  0.4189  0.3034 -0.0361
  331MOL   Cl5840318   5.208   2.354   0.870 -0.2292 -0.5179  0.1559
  331MOL    C5940319   4.960   2.460   0.782 -0.3479 -0.7920  0.2376
  331MOL    H6040320   4.928   2.541   0.717 -1.3911 -0.9417  0.5554
  331MOL    H6140321   4.939   2.367   0.729 -1.3351 -1.2287  1.3716
  331MOL    C6240322   4.879   2.472   0.916  0.1739 -0.2085  0.0686
  331MOL   Cl6340323   4.712   2.464   0.862 -0.3835  0.3125 -0.0275
  331MOL   Cl6440324   4.890   2.634   0.988 -0.3245  0.1789 -0.0180
  331MOL    C6540325   4.917   2.367   1.025  0.6321 -0.2789 -0.0802
  331MOL    H6640326   4.936   2.276   0.968  0.4263 -0.2157 -0.2515
  331MOL    H6740327   5.017   2.381   1.066 -0.0305 -0.2356  1.5167
  331MOL    C6840328   4.822   2.332   1.140  0.8939 -0.4865 -1.0823
  331MOL   Cl6940329   4.905   2.219   1.248  0.1475 -0.2906 -0.1270
  331MOL   Cl7040330   4.680   2.239   1.085 -0.1989  0.0512 -0.3687
  331MOL    C7140331   4.761   2.448   1.224  0.9408  0.0957 -0.7355
  331MOL    H7240332   4.739   2.527   1.151 -0.1320 -1.8187 -2.5520
  331MOL    H7340333   4.662   2.417   1.257  1.0448  1.3399  0.8103
  331MOL    C7440334   4.840   2.521   1.336  0.3987  0.6671 -1.5734
  331MOL   Cl7540335   4.818   2.428   1.485 -0.0929 -0.2424  0.1847
  331MOL   Cl7640336   4.754   2.672   1.351  0.3239  0.2467  0.0012
  331MOL    C7740337   4.992   2.533   1.312  0.0180  0.2742 -0.1372
  331MOL    H7840338   5.044   2.438   1.325 -1.2391 -0.1265  2.1627
  331MOL    H7940339   5.018   2.554   1.208 -0.5970 -0.0230 -0.3526
  331MOL    C8040340   5.084   2.640   1.375 -0.1313 -0.2101  0.1626
  331MOL   Cl8140341   5.030   2.804   1.328 -0.0547  0.3369 -0.0655
  331MOL   Cl8240342   5.248   2.621   1.319  0.3047  0.1381  0.0483
  331MOL    C8340343   5.062   2.626   1.527  0.2842  0.0384  0.2914
  331MOL    H8440344   4.955   2.645   1.543 -0.4882 -2.8429 -1.1133
  331MOL    H8540345   5.090   2.522   1.546  1.4286  0.1286 -0.8745
  331MOL    C8640346   5.143   2.701   1.639  0.0686 -0.2171  0.9366
  331MOL   Cl8740347   5.304   2.637   1.645  0.5866  0.0176  0.1445
  331MOL   Cl8840348   5.073   2.652   1.797  0.3314  0.0913  0.1108
  331MOL    C8940349   5.144   2.855   1.619  0.7370 -0.2645 -0.3196
  331MOL    H9040350   5.217   2.878   1.541  0.6506  0.4544 -0.1872
  331MOL    H9140351   5.052   2.891   1.572 -0.0804 -1.1351  0.5911
  331MOL    C9240352   5.188   2.948   1.737  0.7597 -0.1655  0.6851
  331MOL   Cl9340353   5.047   2.968   1.840  0.2589 -0.0413  0.4709
  331MOL   Cl9440354   5.222   3.096   1.655  0.3521  0.0600 -0.1890
  331MOL    C9540355   5.320   2.902   1.804 -0.2993  0.7448 -0.2475
  331MOL    H9640356   5.312   2.801   1.845  1.5990  0.1652 -1.2360
  331MOL    H9740357   5.396   2.899   1.725 -1.1845  1.3399 -1.1361
  331MOL    C9840358   5.385   2.972   1.924  1.3544  0.2313 -0.6465
  331MOL   Cl9940359   5.520   2.878   1.983  0.0681 -0.5760  0.4464
  331MOL  Cl10040360   5.273   2.975   2.061 -0.0576  0.0570 -0.1764
  331MOL   C10140361   5.431   3.118   1.879 -0.5550  0.4161 -0.2134
  331MOL   H10240362   5.457   3.107   1.774  1.0113  0.5080  0.1475
  331MOL   H10340363   5.335   3.168   1.872 -0.5828  0.2918 -0.7142
  331MOL   C10440364   5.527   3.211   1.959 -0.1982 -0.5146  0.1791
  331MOL  Cl10540365   5.471   3.216   2.124  0.0627 -0.1151 -0.3181
  331MOL  Cl10640366   5.516   3.382   1.901  0.3655  0.4092 -0.0367
  331MOL   C10740367   5.675   3.170   1.963  1.2042 -0.5765  0.5384
  331MOL   H10840368   5.717   3.235   2.040  0.2761  1.1585 -0.3798
  331MOL   H10940369   5.678   3.069   2.005 -0.8229 -0.7934  0.2087
  331MOL   C11040370   5.770   3.173   1.840 -0.6621  0.2542  0.6283
  331MOL  Cl11140371   5.778   3.332   1.757  0.2189  0.2466  0.3095
  331MOL  Cl11240372   5.705   3.062   1.718 -0.0092  0.1627 -0.2069
  331MOL   C11340373   5.903   3.120   1.895  0.3405 -0.1111 -0.3514
  331MOL   H11440374   5.934   3.179   1.981  0.5959 -1.4668  0.4933
  331MOL   H11540375   5.900   3.016   1.928 -0.8868 -0.4159 -1.3834
  331MOL   C11640376   6.036   3.107   1.811 -0.2217  0.6412 -0.3358
  331MOL  Cl11740377   6.016   2.985   1.677  0.2755  0.3318 -0.0949
  331MOL  Cl11840378   6.161   3.046   1.918  0.3009 -0.0423 -0.2152
  331MOL   C11940379   6.091   3.236   1.755 -0.0628  0.3243 -0.4089
  331MOL   H12040380   6.191   3.223   1.713 -1.3124 -0.9873 -3.1089
  331MOL   H12140381   6.036   3.290   1.678  2.0241 -0.1727 -2.3026
  331MOL   H12240382   6.095   3.304   1.840 -0.9393 -0.3236  0.1670
  332MOL     C140383   1.156   2.991   7.506  1.1232  0.1006 -0.0862
  332MOL    Cl240384   1.119   2.822   7.475 -0.1252  0.4941  0.1322
  332MOL    Cl340385   1.065   3.109   7.398  0.1920 -0.0556  0.0956
  332MOL     C440386   1.151   3.025   7.659  0.0684  0.6526  0.0318
  332MOL     H540387   1.060   2.978   7.698 -0.6248  0.6508 -1.5668
  332MOL     H640388   1.229   2.960   7.700 -1.1484 -0.5520  0.5016
  332MOL     H740389   1.259   2.997   7.473  0.9991  0.2751 -0.4411
  332MOL     C840390   1.177   3.162   7.706 -0.2208 -0.1314  0.7060
  332MOL    Cl940391   1.326   3.224   7.631 -0.2249  0.3075 -0.3109
  332MOL   Cl1040392   1.220   3.152   7.877 -0.4347  0.1156 -0.0182
  332MOL    C1140393   1.056   3.268   7.697 -0.4387 -0.9611 -0.4332
  332MOL    H1240394   1.097   3.357   7.744 -0.1557 -0.7821 -1.0080
  332MOL    H1340395   1.038   3.308   7.597 -1.4285 -0.2678  0.0158
  332MOL    C1440396   0.917   3.249   7.758 -0.7387 -0.1163  0.4519
  332MOL   Cl1540397   0.827   3.137   7.648 -0.2109  0.1824 -0.2099
  332MOL   Cl1640398   0.825   3.402   7.737  0.2793  0.1090 -0.4180
  332MOL    C1740399   0.910   3.193   7.905  0.3997 -0.0777 -0.1327
  332MOL    H1840400   0.946   3.090   7.898  1.9478  0.4021  0.5883
  332MOL    H1940401   0.967   3.259   7.970  1.9297  1.1266 -2.6527
  332MOL    C2040402   0.775   3.191   7.986  0.4773 -0.2324  0.3232
  332MOL   Cl2140403   0.713   3.359   8.026  0.2882 -0.0400  0.2764
  332MOL   Cl2240404   0.831   3.116   8.140  0.4993  0.1502 -0.0082
  332MOL    C2340405   0.662   3.110   7.915 -0.0543 -0.4440  0.9700
  332MOL    H2440406   0.638   3.171   7.828  1.9443  0.9562  1.3684
  332MOL    H2540407   0.712   3.020   7.879 -0.0603 -1.2184  2.8598
  332MOL    C2640408   0.520   3.085   7.973  0.7344 -0.1701  0.2037
  332MOL   Cl2740409   0.529   2.995   8.129 -0.3787 -0.0322 -0.0115
  332MOL   Cl2840410   0.451   2.976   7.851  0.4542 -0.3269  0.4068
  332MOL    C2940411   0.432   3.213   7.986  0.0325 -0.5212  0.5764
  332MOL    H3040412   0.462   3.270   8.073 -1.7700 -1.2146  1.6723
  332MOL    H3140413   0.472   3.284   7.914  0.3801 -1.8614 -0.5816
  332MOL    C3240414   0.279   3.204   7.984 -0.5166 -0.2696 -1.1706
  332MOL   Cl3340415   0.221   3.172   7.818 -0.0659 -0.1627 -0.4320
  332MOL   Cl3440416   0.236   3.366   8.041  0.2774 -0.3727  0.1583
  332MOL    C3540417   0.219   3.103   8.087  0.2021 -0.4585  0.5320
  332MOL    H3640418   0.270   3.007   8.077 -0.4682 -0.6875 -0.8940
  332MOL    H3740419   0.264   3.137   8.180  0.9302 -1.0724  0.4121
  332MOL    C3840420   0.065   3.067   8.098  0.7193 -0.4274 -0.4196
  332MOL   Cl3940421   9.163   3.213   8.154  0.1619 -0.6206  0.0642
  332MOL   Cl4040422   0.060   2.934   8.223  0.0054  0.1775 -0.1182
  332MOL    C4140423   9.178   3.012   7.960  0.2211  0.5144  0.0305
  332MOL    H4240424   9.165   3.102   7.900  0.7588 -0.2682 -1.2689
  332MOL    H4340425   0.067   2.942   7.913 -2.7440 -3.2622  1.0598
  332MOL    C4440426   9.045   2.927   7.955  0.0790 -0.1509 -0.5940
  332MOL   Cl4540427   8.940   3.003   8.073  0.1471  0.1702 -0.0150
  332MOL   Cl4640428   9.074   2.759   8.016  0.1955  0.3718  0.3240
  332MOL    C4740429   8.976   2.932   7.817 -0.3890 -0.3176  0.2656
  332MOL    H4840430   8.882   2.881   7.841 -0.2515 -0.7286 -0.0597
  332MOL    H4940431   8.944   3.035   7.807 -0.9225 -0.6780 -2.0866
  332MOL    C5040432   9.036   2.882   7.683 -1.0349 -0.2734 -0.1369
  332MOL   Cl5140433   9.067   2.712   7.690  0.0558  0.2165 -0.5591
  332MOL   Cl5240434   0.013   2.965   7.645 -0.1255 -0.0086  0.0110
  332MOL    C5340435   8.933   2.894   7.570 -0.2042 -0.2206 -0.1191
  332MOL    H5440436   8.967   2.819   7.499 -1.1715 -1.1672  0.4055
  332MOL    H5540437   8.840   2.845   7.597  0.9487 -2.6249 -0.3615
  332MOL    C5640438   8.906   3.032   7.495  0.0607  0.1032 -0.5118
  332MOL   Cl5740439   9.032   3.043   7.366 -0.2935  0.1718  0.0283
  332MOL   Cl5840440   8.924   3.170   7.599  0.0351 -0.1362 -0.1971
  332MOL    C5940441   8.761   3.051   7.431 -0.5069  0.2211  0.3327
  332MOL    H6040442   8.688   3.081   7.506 -1.1917  1.1138 -0.6910
  332MOL    H6140443   8.772   3.145   7.378 -0.9155  0.5641  0.8545
  332MOL    C6240444   8.699   2.941   7.337 -0.1805 -0.2756  0.2434
  332MOL   Cl6340445   8.638   2.808   7.448  0.1761  0.1052 -0.3214
  332MOL   Cl6440446   8.824   2.876   7.225 -0.0992  0.4813 -0.0119
  332MOL    C6540447   8.587   2.985   7.247 -0.5513  0.2675  0.0492
  332MOL    H6640448   8.634   3.050   7.174 -2.4643  0.4880 -1.0292
  332MOL    H6740449   8.548   2.899   7.192  0.3331 -1.3818  1.9388
  332MOL    C6840450   8.461   3.058   7.302 -0.2462 -0.6402 -0.3514
  332MOL   Cl6940451   8.500   3.223   7.366 -0.2507 -0.2197 -0.1898
  332MOL   Cl7040452   8.377   2.964   7.425  0.1034  0.1953  0.3954
  332MOL    C7140453   8.365   3.072   7.184  0.4367 -0.0799  0.2188
  332MOL    H7240454   8.333   2.973   7.151  0.4130  0.0513 -0.1537
  332MOL    H7340455   8.281   3.126   7.228  0.3246 -0.4128  0.4140
  332MOL    C7440456   8.410   3.136   7.052 -0.0378  0.0449  0.0078
  332MOL   Cl7540457   8.499   3.014   6.960 -0.3150 -0.5068  0.3332
  332MOL   Cl7640458   8.516   3.280   7.069  0.0008  0.3800  0.3643
  332MOL    C7740459   8.291   3.196   6.970  0.0107 -0.6884 -0.1232
  332MOL    H7840460   8.267   3.293   7.016 -0.5659 -1.8181  2.0446
  332MOL    H7940461   8.345   3.213   6.878 -0.0335  0.1106 -0.0105
  332MOL    C8040462   8.159   3.112   6.937  0.3465  0.4021 -0.5586
  332MOL   Cl8140463   8.061   3.088   7.080 -0.2305  0.2993 -0.2675
  332MOL   Cl8240464   8.203   2.946   6.889 -0.2823  0.0080  0.5726
  332MOL    C8340465   8.056   3.183   6.844 -0.6119  0.1684 -0.9781
  332MOL    H8440466   7.986   3.105   6.814  1.0086 -1.5226 -0.4394
  332MOL    H8540467   7.994   3.247   6.907 -1.9142 -1.1661 -0.8901
  332MOL    C8640468   8.110   3.253   6.723  0.8382 -0.4498 -0.2010
  332MOL   Cl8740469   8.235   3.161   6.631 -0.1646 -0.2858 -0.0221
  332MOL   Cl8840470   8.181   3.412   6.764  0.3959 -0.4583 -0.0883
  332MOL    C8940471   7.994   3.275   6.612  0.6051 -0.2923 -0.2478
  332MOL    H9040472   8.038   3.330   6.529 -1.2660  1.3957 -0.1437
  332MOL    H9140473   7.957   3.177   6.580 -0.5761 -0.1900  0.7872
  332MOL    C9240474   7.859   3.350   6.638  0.7938  0.7177 -0.0473
  332MOL   Cl9340475   7.887   3.508   6.714  0.2353 -0.1719 -0.2056
  332MOL   Cl9440476   7.752   3.257   6.751 -0.0145  0.4064 -0.1723
  332MOL    C9540477   7.759   3.369   6.510 -0.6376  0.9126 -1.1382
  332MOL    H9640478   7.694   3.282   6.510  0.1894  0.2939 -0.6635
  332MOL    H9740479   7.696   3.452   6.543  0.7788  1.4921  0.1728
  332MOL    C9840480   7.814   3.391   6.373  0.6582 -0.3767  0.0298
  332MOL   Cl9940481   7.947   3.508   6.385  0.0366  0.3587 -0.2900
  332MOL  Cl10040482   7.685   3.476   6.274  0.1051 -0.1578 -0.5787
  332MOL   C10140483   7.864   3.273   6.287 -0.2960  0.7470 -0.9008
  332MOL   H10240484   7.880   3.315   6.187  3.3098 -0.6293 -0.9704
  332MOL   H10340485   7.962   3.239   6.319  0.3960  3.1074 -0.4071
  332MOL   C10440486   7.778   3.139   6.259 -0.4702  0.7552 -0.1838
  332MOL  Cl10540487   7.622   3.170   6.176 -0.0416 -0.1014 -0.2613
  332MOL  Cl10640488   7.743   3.057   6.415 -0.2649 -0.0443 -0.1226
  332MOL   C10740489   7.862   3.036   6.168  0.5489 -0.8239 -0.3076
  332MOL   H10840490   7.860   3.093   6.075  3.1133  0.4822  0.3791
  332MOL   H10940491   7.965   3.050   6.200  0.2052 -0.5118  0.6569
  332MOL   C11040492   7.821   2.887   6.133  0.5766 -0.1842  0.7583
  332MOL  Cl11140493   7.653   2.878   6.104 -0.0372 -0.3388  0.0631
  332MOL  Cl11240494   7.854   2.784   6.280 -0.0188 -0.0952  0.0853
  332MOL   C11340495   7.884   2.826   6.002  0.2480 -0.1921 -0.3839
  332MOL   H11440496   7.860   2.722   5.985 -1.4044  0.0243  0.5501
  332MOL   H11540497   7.838   2.867   5.912 -0.1336  0.3037  0.0311
  332MOL   C11640498   8.036   2.841   5.969  0.3544 -0.7647  0.7655
  332MOL  Cl11740499   8.132   2.788   6.109  0.0283  0.4249  0.1722
  332MOL  Cl11840500   8.069   3.012   5.915  0.4999  0.0887 -0.1384
  332MOL   C11940501   8.075   2.740   5.856 -0.1310 -0.0851  1.1381
  332MOL   H12040502   8.183   2.741   5.843 -0.0669 -1.1289  1.5365
  332MOL   H12140503   8.051   2.635   5.877  3.4651 -0.8498  1.6744
  332MOL   H12240504   8.027   2.754   5.759 -2.3597 -1.6039  1.9679
  333MOL     C140505   3.194   1.378   7.045  0.8033 -0.2494 -0.2363
  333MOL    Cl240506   3.222   1.530   6.951 -0.1389 -0.0116 -0.3975
  333MOL    Cl340507   3.289   1.250   6.970  0.1630 -0.5026 -0.4897
  333MOL     C440508   3.234   1.398   7.197 -0.0447  0.4773  0.0695
  333MOL     H540509   3.262   1.302   7.239  0.6567  1.1085  1.0808
  333MOL     H640510   3.321   1.462   7.214 -0.1149  0.6129 -0.0787
  333MOL     H740511   3.085   1.371   7.036  0.6366 -0.8182  2.0850
  333MOL     C840512   3.110   1.437   7.284  0.2871  0.5070 -0.5231
  333MOL    Cl940513   2.981   1.309   7.269  0.0856 -0.1849  0.3700
  333MOL   Cl1040514   3.055   1.592   7.227  0.4555  0.1356 -0.1560
  333MOL    C1140515   3.140   1.458   7.434 -0.1417 -0.2381  0.4468
  333MOL    H1240516   3.178   1.559   7.450 -0.5454  0.0310 -0.2612
  333MOL    H1340517   3.049   1.471   7.493 -1.0653 -0.7350 -0.8347
  333MOL    C1440518   3.234   1.364   7.513 -0.4784  0.5020 -0.8862
  333MOL   Cl1540519   3.402   1.389   7.469  0.0679  0.1792  0.0995
  333MOL   Cl1640520   3.185   1.197   7.486 -0.2387  0.5679  0.0775
  333MOL    C1740521   3.220   1.390   7.670  0.2169  0.4572  0.0579
  333MOL    H1840522   3.120   1.357   7.699  0.0392  0.1264 -0.9063
  333MOL    H1940523   3.292   1.316   7.706 -0.1391  0.0396 -0.0845
  333MOL    C2040524   3.245   1.532   7.735  0.6546 -0.2541  0.2895
  333MOL   Cl2140525   3.135   1.646   7.675 -0.2969  0.1026  0.0058
  333MOL   Cl2240526   3.410   1.583   7.700 -0.2129  0.1997 -0.1918
  333MOL    C2340527   3.215   1.544   7.893  0.1208 -0.4338  0.3177
  333MOL    H2440528   3.257   1.639   7.928  0.1803 -0.8234  1.2901
  333MOL    H2540529   3.108   1.558   7.911  0.3978  0.4062  1.3419
  333MOL    C2640530   3.269   1.433   7.985 -0.4760  0.0765 -0.1218
  333MOL   Cl2740531   3.187   1.279   7.966 -0.2340  0.0390 -0.2413
  333MOL   Cl2840532   3.240   1.477   8.155 -0.1016  0.4029 -0.0607
  333MOL    C2940533   3.428   1.413   7.962  0.1583 -0.4610 -0.0020
  333MOL    H3040534   3.425   1.360   7.867 -0.1756 -1.8835  0.7851
  333MOL    H3140535   3.471   1.512   7.944  1.7488 -0.5006  3.2714
  333MOL    C3240536   3.520   1.347   8.064 -0.1117  1.1758 -0.2295
  333MOL   Cl3340537   3.680   1.333   7.976 -0.0760 -0.2461  0.3413
  333MOL   Cl3440538   3.471   1.181   8.113 -0.4223  0.2495 -0.7211
  333MOL    C3540539   3.541   1.429   8.194  0.0009  0.0396 -0.2207
  333MOL    H3640540   3.505   1.531   8.182 -1.9824 -0.5589  0.3391
  333MOL    H3740541   3.460   1.396   8.260  0.1376  0.2414  0.0488
  333MOL    C3840542   3.665   1.430   8.283  0.7281  0.4933 -0.1627
  333MOL   Cl3940543   3.605   1.544   8.414  0.0620 -0.0294 -0.0135
  333MOL   Cl4040544   3.811   1.503   8.195 -0.1966 -0.1839  0.3250
  333MOL    C4140545   3.705   1.287   8.334  0.5767 -0.4756  0.0624
  333MOL    H4240546   3.607   1.244   8.351  0.0193  0.3648 -0.9654
  333MOL    H4340547   3.753   1.238   8.249 -1.5544  0.1138 -1.5255
  333MOL    C4440548   3.802   1.269   8.456  0.2569  0.2846  0.0798
  333MOL   Cl4540549   3.823   1.094   8.477  0.3344  0.2661  0.1254
  333MOL   Cl4640550   3.718   1.325   8.605  0.7115 -0.1489 -0.0797
  333MOL    C4740551   3.934   1.349   8.443 -0.0032 -0.0777  0.0343
  333MOL    H4840552   3.921   1.455   8.420  0.0728 -0.3292 -1.2076
  333MOL    H4940553   3.974   1.338   8.544 -0.8750  1.5513  0.5673
  333MOL    C5040554   4.061   1.302   8.358 -0.2338  0.0900 -0.1395
  333MOL   Cl5140555   3.997   1.236   8.199 -0.3427  0.3063 -0.5772
  333MOL   Cl5240556   4.141   1.167   8.442 -0.2527  0.0075  0.3768
  333MOL    C5340557   4.162   1.419   8.327 -0.5672 -0.2368  0.5076
  333MOL    H5440558   4.103   1.490   8.269 -0.3241 -1.0308 -0.7174
  333MOL    H5540559   4.185   1.480   8.415 -0.5795 -1.2863  1.2479
  333MOL    C5640560   4.296   1.410   8.253 -0.4900  0.1204  0.0960
  333MOL   Cl5740561   4.416   1.346   8.363 -0.2013  0.0424  0.1593
  333MOL   Cl5840562   4.347   1.584   8.225 -0.2175  0.0208  0.3114
  333MOL    C5940563   4.289   1.344   8.114  0.4611 -0.3020  0.5103
  333MOL    H6040564   4.251   1.245   8.139 -0.0810 -0.3242 -0.3488
  333MOL    H6140565   4.217   1.404   8.058  0.6021 -0.5228  0.0911
  333MOL    C6240566   4.424   1.320   8.034 -0.4294  0.4479 -0.8716
  333MOL   Cl6340567   4.383   1.300   7.870  0.2337  0.5109  0.0062
  333MOL   Cl6440568   4.507   1.172   8.096 -0.2418 -0.3109 -0.0649
  333MOL    C6540569   4.528   1.430   8.040  0.4915 -0.3788 -0.2507
  333MOL    H6640570   4.483   1.525   8.012 -2.1718 -1.5339  0.0009
  333MOL    H6740571   4.547   1.449   8.146 -0.2974  1.3288 -0.4007
  333MOL    C6840572   4.665   1.429   7.966  0.3748  0.0636  0.9100
  333MOL   Cl6940573   4.767   1.281   7.999 -0.0701 -0.4137  0.0884
  333MOL   Cl7040574   4.762   1.540   8.051 -0.4062  0.2231  0.3440
  333MOL    C7140575   4.669   1.460   7.813  0.4807 -0.6644  0.3245
  333MOL    H7240576   4.767   1.436   7.773 -0.7986 -0.9590 -2.7908
  333MOL    H7340577   4.622   1.376   7.761  0.9392 -0.2004 -0.8524
  333MOL    C7440578   4.628   1.588   7.753 -0.6201  0.2391  0.1372
  333MOL   Cl7540579   4.450   1.611   7.770 -0.3120 -0.3996  0.0547
  333MOL   Cl7640580   4.649   1.583   7.577 -0.1067  0.2420  0.1247
  333MOL    C7740581   4.692   1.716   7.819 -0.1048 -0.0907 -0.4156
  333MOL    H7840582   4.653   1.732   7.919 -0.5340  3.2426 -1.0931
  333MOL    H7940583   4.796   1.690   7.840 -0.3890 -0.5115  0.5168
  333MOL    C8040584   4.701   1.859   7.758 -0.2945 -0.1819 -0.3661
  333MOL   Cl8140585   4.555   1.907   7.673 -0.3684 -0.0560  0.0379
  333MOL   Cl8240586   4.819   1.844   7.627  0.0982 -0.0969  0.1229
  333MOL    C8340587   4.745   1.973   7.863 -0.1141 -0.0812  0.2997
  333MOL    H8440588   4.754   2.058   7.795  0.4780 -0.6715 -0.3782
  333MOL    H8540589   4.661   1.999   7.926 -1.0436 -0.5362 -0.7317
  333MOL    C8640590   4.867   1.977   7.956 -1.0419 -0.1908 -0.5671
  333MOL   Cl8740591   5.005   1.920   7.856 -0.3398 -0.2996 -0.2023
  333MOL   Cl8840592   4.842   1.858   8.084  0.4147  0.5770  0.3226
  333MOL    C8940593   4.916   2.114   8.015 -0.1227  0.6260  0.8437
  333MOL    H9040594   5.015   2.093   8.055 -0.5036 -0.9851  0.9560
  333MOL    H9140595   4.932   2.179   7.929  0.4840 -2.3089 -1.3240
  333MOL    C9240596   4.849   2.185   8.134 -0.6148 -0.3470  0.2802
  333MOL   Cl9340597   4.673   2.190   8.098 -0.2194 -0.3489  0.1156
  333MOL   Cl9440598   4.911   2.356   8.144  0.2358 -0.0526 -0.4865
  333MOL    C9540599   4.857   2.118   8.280  0.2410 -0.4505 -0.4713
  333MOL    H9640600   4.790   2.174   8.345  2.0171  1.4371 -0.2034
  333MOL    H9740601   4.803   2.024   8.287 -0.5193 -0.1977 -2.5239
  333MOL    C9840602   4.990   2.093   8.356  0.4658 -0.2793  0.1278
  333MOL   Cl9940603   5.081   1.964   8.265 -0.1878  0.3321 -0.1399
  333MOL  Cl10040604   4.946   2.030   8.521  0.1638  0.2932 -0.1318
  333MOL   C10140605   5.100   2.213   8.382  0.6614  0.3602 -0.2729
  333MOL   H10240606   5.197   2.178   8.417  0.1870  0.3760  1.0853
  333MOL   H10340607   5.121   2.254   8.283  0.0198 -0.3392 -0.7109
  333MOL   C10440608   5.053   2.335   8.470 -0.4514 -0.7553 -0.2380
  333MOL  Cl10540609   5.079   2.280   8.638  0.3677 -0.2264  0.1515
  333MOL  Cl10640610   4.886   2.388   8.452 -0.1616 -0.0822  0.3014
  333MOL   C10740611   5.151   2.451   8.437  0.0488  0.1180 -0.3765
  333MOL   H10840612   5.252   2.420   8.464 -0.3288  0.0744  1.0202
  333MOL   H10940613   5.153   2.466   8.329 -0.7026  0.2688 -0.3671
  333MOL   C11040614   5.130   2.590   8.499  0.9373 -0.1516 -0.7506
  333MOL  Cl11140615   5.005   2.677   8.401 -0.0616 -0.0866 -0.1055
  333MOL  Cl11240616   5.273   2.669   8.449  0.1970  0.2332 -0.0287
  333MOL   C11340617   5.107   2.591   8.655 -0.0645  0.4083  0.3957
  333MOL   H11440618   5.019   2.534   8.682 -0.8638  1.5739  0.2977
  333MOL   H11540619   5.195   2.534   8.685 -0.5627 -0.7016 -0.2107
  333MOL   C11640620   5.096   2.720   8.737  0.5248 -0.1001  0.0281
  333MOL  Cl11740621   5.241   2.816   8.752  0.0390  0.0635  0.4186
  333MOL  Cl11840622   5.068   2.647   8.901  0.0835 -0.2523 -0.3458
  333MOL   C11940623   4.973   2.813   8.695 -0.3708 -0.8434  0.6089
  333MOL   H12040624   4.938   2.889   8.765 -0.1325  0.2507 -0.4241
  333MOL   H12140625   5.000   2.878   8.611 -2.4688  0.0876  0.6196
  333MOL   H12240626   4.883   2.755   8.675 -2.0459  1.7517  0.3156
  334MOL     C140627   8.686   2.629   8.107  0.7587  0.2948 -0.4761
  334MOL    Cl240628   8.664   2.806   8.133  0.5129 -0.2942 -0.1009
  334MOL    Cl340629   8.646   2.571   8.267  0.3976  0.0482  0.1684
  334MOL     C440630   8.603   2.567   7.987 -0.1890  0.9701  0.2446
  334MOL     H540631   8.622   2.460   7.990 -1.1654  0.7595 -0.7513
  334MOL     H640632   8.499   2.580   8.015 -0.3190  0.1598  0.1558
  334MOL     H740633   8.794   2.619   8.092  0.5839  1.3057 -2.4633
  334MOL     C840634   8.622   2.614   7.841  0.3167 -1.0855 -0.1041
  334MOL    Cl940635   8.794   2.596   7.805  0.3099 -0.1322 -0.2921
  334MOL   Cl1040636   8.583   2.787   7.827  0.7290 -0.4392  0.1218
  334MOL    C1140637   8.537   2.551   7.733 -0.0492  0.1429 -0.4865
  334MOL    H1240638   8.443   2.605   7.746 -0.8104 -1.6746  2.0296
  334MOL    H1340639   8.579   2.580   7.637  3.1464 -0.6310  0.6273
  334MOL    C1440640   8.509   2.399   7.731  0.1189  0.0076  0.3218
  334MOL   Cl1540641   8.423   2.344   7.879  0.2026  0.2817  0.2149
  334MOL   Cl1640642   8.661   2.305   7.753 -0.0252 -0.1066 -0.0878
  334MOL    C1740643   8.439   2.349   7.600  0.3904 -0.1823 -0.0323
  334MOL    H1840644   8.510   2.341   7.517 -1.0115  0.3845 -1.3014
  334MOL    H1940645   8.431   2.241   7.608 -2.4491  0.0317  0.5622
  334MOL    C2040646   8.305   2.393   7.542  0.3481  0.9812  0.1453
  334MOL   Cl2140647   8.306   2.565   7.494  0.0765  0.3277  0.3494
  334MOL   Cl2240648   8.191   2.377   7.672  0.1343 -0.2866 -0.0081
  334MOL    C2340649   8.259   2.307   7.419 -0.1475 -0.8822  0.7171
  334MOL    H2440650   8.347   2.285   7.359 -0.3478 -0.4686  0.2753
  334MOL    H2540651   8.222   2.210   7.453 -0.1404 -0.7777  1.0254
  334MOL    C2640652   8.143   2.361   7.333  0.2677  0.3012  0.8707
  334MOL   Cl2740653   8.094   2.225   7.224 -0.0540  0.1504 -0.0228
  334MOL   Cl2840654   8.204   2.491   7.232  0.0645  0.0917 -0.0581
  334MOL    C2940655   8.008   2.415   7.414  0.9358  0.3799  0.0663
  334MOL    H3040656   7.989   2.332   7.482 -1.1383  0.4800 -0.3676
  334MOL    H3140657   8.041   2.500   7.474  0.5723  0.2067  0.5163
  334MOL    C3240658   7.868   2.455   7.346  0.0613 -0.0871 -0.2038
  334MOL   Cl3340659   7.757   2.483   7.478 -0.3285 -0.3469 -0.2217
  334MOL   Cl3440660   7.796   2.312   7.263 -0.2712 -0.3113 -0.0051
  334MOL    C3540661   7.888   2.577   7.249  0.5892 -0.9216  0.0760
  334MOL    H3640662   7.968   2.646   7.279 -0.6843  0.7645 -0.3402
  334MOL    H3740663   7.922   2.530   7.157 -0.2333  0.1318 -0.7761
  334MOL    C3840664   7.777   2.683   7.235 -0.1118 -0.4665  0.1109
  334MOL   Cl3940665   7.858   2.793   7.117  0.5051 -0.1492 -0.2201
  334MOL   Cl4040666   7.731   2.788   7.378  0.1891  0.1508  0.3353
  334MOL    C4140667   7.648   2.618   7.175 -0.2556  0.2187 -0.2123
  334MOL    H4240668   7.680   2.571   7.082  0.3661  0.6279 -0.2064
  334MOL    H4340669   7.618   2.528   7.230  1.2380  0.2132  0.6108
  334MOL    C4440670   7.514   2.695   7.156 -0.1855  0.2374 -0.2122
  334MOL   Cl4540671   7.559   2.849   7.080  0.1201  0.1738  0.2902
  334MOL   Cl4640672   7.438   2.738   7.313 -0.0333 -0.1162  0.4271
  334MOL    C4740673   7.408   2.634   7.063  0.1465 -0.0742 -0.5747
  334MOL    H4840674   7.318   2.697   7.067 -0.4377 -0.9762  0.7881
  334MOL    H4940675   7.444   2.650   6.962  1.9946 -0.0737  0.0708
  334MOL    C5040676   7.374   2.484   7.085  0.5877  0.4052  0.3277
  334MOL   Cl5140677   7.330   2.457   7.253  0.2320  0.3210 -0.0707
  334MOL   Cl5240678   7.511   2.377   7.038 -0.4210  0.2494  0.1476
  334MOL    C5340679   7.253   2.439   7.002 -0.2719 -0.1227  0.5595
  334MOL    H5440680   7.259   2.331   7.005 -3.5245 -0.4052 -1.4404
  334MOL    H5540681   7.159   2.465   7.049 -1.2059 -0.9738 -0.8211
  334MOL    C5640682   7.240   2.467   6.852 -1.0299 -0.3443  0.3604
  334MOL   Cl5740683   7.384   2.453   6.747 -0.0663  0.6277 -0.1508
  334MOL   Cl5840684   7.192   2.635   6.830 -0.0207 -0.4374 -0.0110
  334MOL    C5940685   7.148   2.362   6.788  0.1136  0.2647  0.4978
  334MOL    H6040686   7.160   2.384   6.682 -0.3577  1.6757  0.7282
  334MOL    H6140687   7.182   2.259   6.797 -0.2753  0.2458  1.9498
  334MOL    C6240688   6.998   2.363   6.812  0.4511  0.7122 -1.0314
  334MOL   Cl6340689   6.915   2.515   6.787 -0.3066 -0.0810 -0.2980
  334MOL   Cl6440690   6.969   2.301   6.977  0.5575 -0.0555 -0.3049
  334MOL    C6540691   6.935   2.264   6.706  0.0696 -0.1412  0.7230
  334MOL    H6640692   6.932   2.324   6.615  1.7245 -1.3708 -0.1832
  334MOL    H6740693   7.004   2.182   6.685  0.0294 -0.2269  0.9264
  334MOL    C6840694   6.790   2.199   6.719  0.2783  0.1140  0.7079
  334MOL   Cl6940695   6.744   2.151   6.552 -0.1666 -0.2810 -0.2187
  334MOL   Cl7040696   6.676   2.326   6.751 -0.2500 -0.1325  0.0482
  334MOL    C7140697   6.763   2.083   6.822  0.3988  0.2861  0.2573
  334MOL    H7240698   6.748   2.115   6.926 -2.5616 -1.9466  0.5840
  334MOL    H7340699   6.666   2.049   6.787  0.9899 -0.1598 -0.9612
  334MOL    C7440700   6.860   1.956   6.828  0.4177 -0.0126 -0.5453
  334MOL   Cl7540701   7.021   2.004   6.879 -0.0714 -0.4542 -0.6262
  334MOL   Cl7640702   6.868   1.871   6.670 -0.6136 -0.0940 -0.2694
  334MOL    C7740703   6.797   1.836   6.915 -0.3174  0.3012 -0.3226
  334MOL    H7840704   6.712   1.802   6.856 -0.6758  0.4984  0.0766
  334MOL    H7940705   6.866   1.751   6.922  1.9592  1.9573 -2.0118
  334MOL    C8040706   6.745   1.858   7.057 -0.3067 -0.0561  0.2051
  334MOL   Cl8140707   6.595   1.947   7.044 -0.5258  0.1278  0.1531
  334MOL   Cl8240708   6.856   1.970   7.154 -0.0644  0.3933 -0.4068
  334MOL    C8340709   6.723   1.726   7.144  0.1015 -0.4456  0.4599
  334MOL    H8440710   6.646   1.664   7.098  3.4515 -2.5371 -2.5230
  334MOL    H8540711   6.810   1.662   7.144 -0.5618 -1.3800  2.3305
  334MOL    C8640712   6.686   1.732   7.297 -0.0326 -0.1797 -0.2105
  334MOL   Cl8740713   6.828   1.765   7.404 -0.4667 -0.1071 -0.1569
  334MOL   Cl8840714   6.644   1.562   7.338 -0.1713  0.2152  0.1384
  334MOL    C8940715   6.563   1.819   7.332  0.2460  0.5741  0.0180
  334MOL    H9040716   6.594   1.923   7.323 -1.7183  1.2558  0.8818
  334MOL    H9140717   6.497   1.812   7.245  0.5864 -1.2083 -0.1152
  334MOL    C9240718   6.487   1.812   7.473  0.2260 -0.2493  0.1327
  334MOL   Cl9340719   6.599   1.777   7.608 -0.0505 -0.3513 -0.4173
  334MOL   Cl9440720   6.364   1.674   7.484  0.0095 -0.0065 -0.3751
  334MOL    C9540721   6.392   1.934   7.499 -0.5247 -0.8824  0.1814
  334MOL    H9640722   6.296   1.927   7.449 -0.9338 -1.5184  1.0402
  334MOL    H9740723   6.362   1.930   7.603 -0.1444 -1.2402  0.2816
  334MOL    C9840724   6.449   2.082   7.481  0.0716  1.1826 -0.5077
  334MOL   Cl9940725   6.462   2.129   7.309  0.5353  0.2009 -0.0523
  334MOL  Cl10040726   6.609   2.102   7.548  0.1890  0.0633 -0.1258
  334MOL   C10140727   6.354   2.187   7.543  0.2381 -0.8989 -0.6569
  334MOL   H10240728   6.403   2.282   7.524 -0.4056 -0.7218 -1.4518
  334MOL   H10340729   6.263   2.188   7.484 -1.3360  1.0281  1.7242
  334MOL   C10440730   6.305   2.191   7.688  0.2510 -0.6744 -0.1687
  334MOL  Cl10540731   6.421   2.141   7.808 -0.5321  0.1769 -0.2905
  334MOL  Cl10640732   6.173   2.069   7.711 -0.4047  0.1235  0.0679
  334MOL   C10740733   6.263   2.337   7.740 -0.2317  0.2155  0.2545
  334MOL   H10840734   6.225   2.311   7.839  2.4068  0.9956  1.5216
  334MOL   H10940735   6.349   2.397   7.771 -0.1929  0.0808  0.4085
  334MOL   C11040736   6.163   2.423   7.656 -0.1796 -0.5985 -0.1653
  334MOL  Cl11140737   6.027   2.326   7.598 -0.1265  0.2099 -0.0308
  334MOL  Cl11240738   6.253   2.503   7.521 -0.4399  0.3191 -0.0066
  334MOL   C11340739   6.104   2.526   7.752 -0.2961 -0.4727 -0.4181
  334MOL   H11440740   6.035   2.468   7.814  0.6961 -0.8939  0.2917
  334MOL   H11540741   6.176   2.564   7.824 -0.8719  0.3463 -0.2580
  334MOL   C11640742   6.032   2.648   7.696  0.6864  0.0850 -0.8254
  334MOL  Cl11740743   6.141   2.775   7.625 -0.1230 -0.1604  0.1966
  334MOL  Cl11840744   5.946   2.727   7.835 -0.2516 -0.0084 -0.1756
  334MOL   C11940745   5.925   2.624   7.589  0.0286 -0.5267  0.0900
  334MOL   H12040746   5.970   2.587   7.497  0.2454 -2.9666  1.1539
  334MOL   H12140747   5.859   2.547   7.628 -0.9673  0.0042 -0.5447
  334MOL   H12240748   5.874   2.714   7.554 -1.1547 -1.7585 -1.3560
  335MOL     C140749   1.237   5.145   2.815  1.5438  0.4955  0.1711
  335MOL    Cl240750   1.090   5.163   2.716 -0.0171  0.1519  0.1175
  335MOL    Cl340751   1.367   5.092   2.710 -0.4961 -0.1700 -0.0165
  335MOL     C440752   1.271   5.268   2.894  0.3457  0.3603  0.1438
  335MOL     H540753   1.371   5.261   2.937 -0.2212 -1.0072  1.2826
  335MOL     H640754   1.272   5.350   2.822 -0.9917  2.2853  2.2222
  335MOL     H740755   1.223   5.064   2.887 -0.7574  1.2484  0.5977
  335MOL     C840756   1.174   5.314   3.001  0.2436 -0.1165  0.4727
  335MOL    Cl940757   1.266   5.404   3.115 -0.3342  0.1380 -0.3154
  335MOL   Cl1040758   1.105   5.181   3.092  0.2935  0.1628 -0.1800
  335MOL    C1140759   1.051   5.401   2.954  0.5207  0.4821 -0.1460
  335MOL    H1240760   1.016   5.371   2.855 -1.9280 -0.3572  0.9427
  335MOL    H1340761   0.959   5.374   3.005  1.2967  0.8657  1.4760
  335MOL    C1440762   1.047   5.556   2.933  0.6476  0.4193  0.7853
  335MOL   Cl1540763   0.912   5.581   2.828 -0.4431 -0.2214  0.7178
  335MOL   Cl1640764   1.179   5.595   2.822 -0.1347  0.0618  0.0548
  335MOL    C1740765   1.021   5.662   3.044  0.4653 -0.5751  0.6910
  335MOL    H1840766   1.114   5.677   3.098  1.8430 -1.5831 -1.3399
  335MOL    H1940767   1.001   5.756   2.991 -1.9034 -0.5131  1.6033
  335MOL    C2040768   0.902   5.648   3.153  0.6218  0.2858  0.0794
  335MOL   Cl2140769   0.922   5.782   3.274  0.0795  0.2597  0.0397
  335MOL   Cl2240770   0.934   5.498   3.237  0.1660 -0.0867 -0.5814
  335MOL    C2340771   0.756   5.651   3.095  0.0767  0.4794  0.1132
  335MOL    H2440772   0.756   5.721   3.012 -1.3743 -0.5395 -0.7590
  335MOL    H2540773   0.737   5.552   3.054 -0.4893 -0.5814  2.8515
  335MOL    C2640774   0.630   5.675   3.192  0.0859  0.0391 -0.1419
  335MOL   Cl2740775   0.649   5.576   3.336  0.1561 -0.1962 -0.0242
  335MOL   Cl2840776   0.478   5.610   3.108  0.3765  0.0269  0.1339
  335MOL    C2940777   0.594   5.822   3.237  0.2338 -0.3650  0.0874
  335MOL    H3040778   0.496   5.820   3.284 -0.3220  0.9664 -0.9935
  335MOL    H3140779   0.670   5.834   3.315  0.9011  3.2161 -1.0152
  335MOL    C3240780   0.596   5.951   3.150 -0.0552  0.0821 -0.3595
  335MOL   Cl3340781   0.514   5.912   2.990  0.4354 -0.2602  0.3174
  335MOL   Cl3440782   0.762   5.997   3.092  0.2373  0.1975  0.8843
  335MOL    C3540783   0.525   6.070   3.220  1.1416 -0.0212 -0.1936
  335MOL    H3640784   0.442   6.037   3.282  1.3675 -2.2475 -1.0260
  335MOL    H3740785   0.596   6.099   3.297  0.0662  0.6979  0.5337
  335MOL    C3840786   0.459   6.192   3.144  0.2553 -0.6137 -0.3342
  335MOL   Cl3940787   0.410   6.297   3.273 -0.4287  0.1793  0.1525
  335MOL   Cl4040788   0.305   6.127   3.081  0.1165  0.5735  0.1768
  335MOL    C4140789   0.549   6.255   3.035 -0.0395 -0.1899 -0.4483
  335MOL    H4240790   0.622   6.311   3.093 -0.8993 -1.3416  1.8080
  335MOL    H4340791   0.596   6.174   2.979  0.5575  0.0985 -0.3643
  335MOL    C4440792   0.494   6.347   2.926 -0.3115  0.0452  0.6331
  335MOL   Cl4540793   0.414   6.481   3.000  0.2765  0.3222 -0.0566
  335MOL   Cl4640794   0.382   6.268   2.818  0.0433  0.2715  0.1426
  335MOL    C4740795   0.603   6.410   2.827  0.0089 -0.7673  0.0746
  335MOL    H4840796   0.557   6.451   2.737 -1.3056 -0.2670  0.9678
  335MOL    H4940797   0.647   6.494   2.880 -0.0836  0.0028 -1.0644
  335MOL    C5040798   0.720   6.322   2.780 -1.0039 -0.4559  0.7474
  335MOL   Cl5140799   0.657   6.178   2.712  0.1402  0.0521 -0.1536
  335MOL   Cl5240800   0.838   6.283   2.910 -0.3373  0.0025 -0.1988
  335MOL    C5340801   0.800   6.408   2.671  1.0317 -0.3856  0.4024
  335MOL    H5440802   0.732   6.421   2.588  1.0934 -0.8144  0.2866
  335MOL    H5540803   0.810   6.513   2.702  0.8681 -0.2566  0.0199
  335MOL    C5640804   0.937   6.374   2.599  0.5039 -0.6581  0.2779
  335MOL   Cl5740805   1.063   6.415   2.714  0.1419  0.2463  0.1389
  335MOL   Cl5840806   0.940   6.496   2.459 -0.1104 -0.0436 -0.4446
  335MOL    C5940807   0.954   6.226   2.561 -0.6769  0.5506 -0.1275
  335MOL    H6040808   0.946   6.163   2.650 -0.8405  2.2105  1.0650
  335MOL    H6140809   0.875   6.195   2.492 -0.1407 -0.0043 -0.4912
  335MOL    C6240810   1.089   6.171   2.510  0.7181  0.4052  0.5780
  335MOL   Cl6340811   1.178   6.281   2.402  0.0816  0.0524  0.0982
  335MOL   Cl6440812   1.039   6.033   2.402  0.3804 -0.3253 -0.4211
  335MOL    C6540813   1.195   6.127   2.623 -0.4365  0.2425  0.6446
  335MOL    H6640814   1.295   6.114   2.582 -0.2228  1.6527  0.7204
  335MOL    H6740815   1.209   6.207   2.695 -0.1289  0.1781  0.6563
  335MOL    C6840816   1.171   5.999   2.718 -0.3372 -0.3838  0.6026
  335MOL   Cl6940817   1.158   5.854   2.623  0.0205 -0.3405  0.0627
  335MOL   Cl7040818   1.019   6.000   2.806 -0.2535 -0.2068  0.0898
  335MOL    C7140819   1.289   5.958   2.817  0.3844 -0.2736 -0.3779
  335MOL    H7240820   1.250   5.879   2.881  1.0435  0.3891  0.8643
  335MOL    H7340821   1.370   5.921   2.753  1.5824  1.4722  0.0701
  335MOL    C7440822   1.351   6.065   2.915 -0.2614  0.0955  0.5419
  335MOL   Cl7540823   1.229   6.173   2.992  0.4359 -0.1662 -0.1095
  335MOL   Cl7640824   1.462   6.166   2.812  0.1786  0.4195  0.1231
  335MOL    C7740825   1.451   6.010   3.016 -0.7737  0.0826  0.2849
  335MOL    H7840826   1.541   5.966   2.972 -1.2381 -2.3233  1.6494
  335MOL    H7940827   1.489   6.098   3.069 -0.9156 -0.3060  1.0355
  335MOL    C8040828   1.412   5.909   3.121  0.4964  0.1999 -0.1469
  335MOL   Cl8140829   1.395   5.746   3.054  0.1648  0.1567 -0.1894
  335MOL   Cl8240830   1.257   5.959   3.189 -0.2218  0.2178  0.2987
  335MOL    C8340831   1.511   5.882   3.239  1.2090 -0.3701 -0.0133
  335MOL    H8440832   1.458   5.811   3.303 -0.2285  2.4588  2.0437
  335MOL    H8540833   1.599   5.833   3.196  0.8519 -0.8846 -0.1643
  335MOL    C8640834   1.556   5.999   3.331  0.3371  0.0707  0.6708
  335MOL   Cl8740835   1.689   6.094   3.236 -0.0288  0.0124  0.2226
  335MOL   Cl8840836   1.635   5.907   3.456  0.0142  0.0021  0.2470
  335MOL    C8940837   1.455   6.096   3.403 -1.1723  0.2037  0.1695
  335MOL    H9040838   1.414   6.158   3.324 -1.1513  0.4475  0.3519
  335MOL    H9140839   1.378   6.028   3.439 -0.1839  0.2563  2.5516
  335MOL    C9240840   1.479   6.182   3.534 -0.6872  0.3300  0.5904
  335MOL   Cl9340841   1.613   6.300   3.494  0.0801  0.3484 -0.3702
  335MOL   Cl9440842   1.537   6.090   3.676  0.0534  0.0679  0.0436
  335MOL    C9540843   1.347   6.258   3.580  0.5732 -0.4543  0.1562
  335MOL    H9640844   1.373   6.324   3.663 -3.3531  1.0705  0.2992
  335MOL    H9740845   1.328   6.337   3.507 -1.0521  0.4952  1.5541
  335MOL    C9840846   1.213   6.188   3.615  0.1523 -0.2275  0.4823
  335MOL   Cl9940847   1.238   6.040   3.713  0.0374  0.1539 -0.3367
  335MOL  Cl10040848   1.128   6.136   3.466  0.2950 -0.1482  0.4237
  335MOL   C10140849   1.117   6.289   3.697  0.6011  0.2097  0.5541
  335MOL   H10240850   1.146   6.279   3.802 -1.0803  0.7411  1.0892
  335MOL   H10340851   1.140   6.387   3.656 -0.0917 -0.4968 -1.6124
  335MOL   C10440852   0.963   6.285   3.679  0.6454 -1.8941 -0.4234
  335MOL  Cl10540853   0.917   6.334   3.513  0.6286  0.1608  0.2298
  335MOL  Cl10640854   0.913   6.406   3.801  0.1956  0.1797  0.2089
  335MOL   C10740855   0.908   6.147   3.725 -0.2743  0.5130 -0.6537
  335MOL   H10840856   0.963   6.073   3.667 -1.5306 -1.8130  1.0456
  335MOL   H10940857   0.936   6.126   3.828 -1.1756  1.7716 -0.1420
  335MOL   C11040858   0.762   6.106   3.698  0.3509 -0.3421  0.4484
  335MOL  Cl11140859   0.758   5.947   3.785  0.0383  0.1968  0.0152
  335MOL  Cl11240860   0.750   6.068   3.529  0.1432 -0.0839 -0.0319
  335MOL   C11340861   0.645   6.207   3.753  0.3417  0.5455 -0.1755
  335MOL   H11440862   0.671   6.242   3.853 -0.0682  0.1020  0.0892
  335MOL   H11540863   0.652   6.301   3.699  0.6403  0.4726 -0.2642
  335MOL   C11640864   0.488   6.168   3.761  0.0669 -0.3162 -0.2296
  335MOL  Cl11740865   0.389   6.308   3.761  0.0663 -0.4186 -0.3650
  335MOL  Cl11840866   0.466   6.073   3.912  0.1013  0.0383  0.3702
  335MOL   C11940867   0.440   6.081   3.643  0.3369  0.7193  1.3870
  335MOL   H12040868   0.332   6.091   3.631  0.3076  1.0178  1.8954
  335MOL   H12140869   0.485   6.113   3.548 -2.9875 -1.8094 -1.1689
  335MOL   H12240870   0.467   5.977   3.661 -0.6552  0.1981 -0.0540
  336MOL     C140871   1.982   3.834   1.065  0.2019  0.4731 -0.1062
  336MOL    Cl240872   1.895   3.762   0.932  0.0533 -0.4217  0.2291
  336MOL    Cl340873   2.014   4.006   1.024  0.1808 -0.4674  0.4255
  336MOL     C440874   1.898   3.828   1.196 -0.2073 -0.5418 -0.2208
  336MOL     H540875   1.951   3.900   1.258 -0.1257 -0.2635 -0.6122
  336MOL     H640876   1.794   3.859   1.181 -0.2599 -0.8116 -0.4187
  336MOL     H740877   2.072   3.773   1.066  1.2762  2.0061  0.7183
  336MOL     C840878   1.901   3.696   1.270  0.5417  0.0129 -0.4400
  336MOL    Cl940879   2.063   3.669   1.320  0.3436  0.1563  0.1686
  336MOL   Cl1040880   1.848   3.560   1.168  0.3685  0.1605 -0.0448
  336MOL    C1140881   1.821   3.704   1.410  0.4972 -0.2047  0.2611
  336MOL    H1240882   1.835   3.617   1.475  1.0543 -0.5236 -0.2808
  336MOL    H1340883   1.887   3.772   1.465  0.4882 -0.2421  0.3178
  336MOL    C1440884   1.669   3.751   1.420  0.1464  0.1296 -0.1827
  336MOL   Cl1540885   1.570   3.679   1.285  0.0390  0.3378  0.2420
  336MOL   Cl1640886   1.672   3.929   1.395  0.0944  0.1244  0.0493
  336MOL    C1740887   1.599   3.726   1.557 -0.1711  0.3592 -0.4859
  336MOL    H1840888   1.637   3.803   1.624  0.5994 -0.9097  0.5650
  336MOL    H1940889   1.491   3.741   1.552 -0.3957 -0.8353  0.5886
  336MOL    C2040890   1.618   3.593   1.642  0.5538 -0.2278 -0.5244
  336MOL   Cl2140891   1.487   3.589   1.761  0.1221 -0.0227  0.1455
  336MOL   Cl2240892   1.776   3.594   1.724 -0.1664 -0.1553  0.0616
  336MOL    C2340893   1.595   3.468   1.555 -0.4603  0.8509  0.0782
  336MOL    H2440894   1.497   3.482   1.509 -0.6442  2.3987  0.8667
  336MOL    H2540895   1.661   3.476   1.469  1.4035  0.9051  1.4760
  336MOL    C2640896   1.628   3.328   1.611 -0.9272  0.0865  0.1310
  336MOL   Cl2740897   1.535   3.292   1.757  0.1068  0.0550  0.1412
  336MOL   Cl2840898   1.798   3.296   1.641  0.1047  0.3610 -0.2995
  336MOL    C2940899   1.584   3.218   1.514 -0.0328  0.6856  0.0693
  336MOL    H3040900   1.606   3.120   1.558 -3.2362  0.6790  1.8298
  336MOL    H3140901   1.476   3.229   1.501  0.0059  1.1791  0.1730
  336MOL    C3240902   1.623   3.215   1.357 -0.3194 -0.1575  0.6582
  336MOL   Cl3340903   1.541   3.351   1.268 -0.3272  0.2015  0.2009
  336MOL   Cl3440904   1.538   3.065   1.298  0.1027 -0.3622  0.3231
  336MOL    C3540905   1.776   3.215   1.335  0.0819  0.2289 -0.2781
  336MOL    H3640906   1.814   3.313   1.365  3.4705 -0.5008 -1.9203
  336MOL    H3740907   1.816   3.141   1.405 -0.2073 -0.8340 -1.2303
  336MOL    C3840908   1.845   3.179   1.199 -0.1352 -0.3897  0.2772
  336MOL   Cl3940909   2.011   3.239   1.206 -0.2776  0.2085  0.4263
  336MOL   Cl4040910   1.768   3.248   1.049 -0.3705  0.0715 -0.0493
  336MOL    C4140911   1.849   3.024   1.177  0.7850 -0.5115 -0.0259
  336MOL    H4240912   1.885   2.981   1.271  0.9850  0.1627  0.2128
  336MOL    H4340913   1.748   2.983   1.172  0.4483  0.5751 -2.6430
  336MOL    C4440914   1.917   2.953   1.055  0.6412 -0.1035 -0.1022
  336MOL   Cl4540915   1.910   2.776   1.101  0.3548 -0.0003 -0.4110
  336MOL   Cl4640916   2.091   2.993   1.048 -0.5705 -0.3204  0.4037
  336MOL    C4740917   1.850   2.969   0.916  0.5382  0.2714 -0.4757
  336MOL    H4840918   1.745   2.995   0.922 -0.3144 -2.8646 -0.6178
  336MOL    H4940919   1.893   3.065   0.889  4.6065 -1.1263  0.5969
  336MOL    C5040920   1.872   2.881   0.790  0.6617  0.0101  0.4173
  336MOL   Cl5140921   1.799   2.732   0.817  0.1501 -0.4095  0.0347
  336MOL   Cl5240922   2.047   2.855   0.760 -0.6003  0.0995  0.1577
  336MOL    C5340923   1.816   2.935   0.654  0.2218 -0.0310  0.1711
  336MOL    H5440924   1.885   3.014   0.624  2.0247 -1.0604  1.5103
  336MOL    H5540925   1.818   2.850   0.586 -4.1633 -0.1139  0.0394
  336MOL    C5640926   1.681   3.002   0.634 -0.2656  0.3289  0.2833
  336MOL   Cl5740927   1.671   3.159   0.717 -0.0149 -0.2685 -0.4926
  336MOL   Cl5840928   1.542   2.912   0.701  0.1731  0.0391  0.1036
  336MOL    C5940929   1.653   3.025   0.480  0.1593  0.3943 -0.4749
  336MOL    H6040930   1.560   3.082   0.484 -1.0584 -1.4889 -1.0168
  336MOL    H6140931   1.736   3.091   0.454 -0.3584  1.0041 -0.5817
  336MOL    C6240932   1.644   2.911   0.377  0.8470  0.2661 -0.4034
  336MOL   Cl6340933   1.540   2.778   0.426  0.1494 -0.2055  0.0410
  336MOL   Cl6440934   1.803   2.833   0.350 -0.0200 -0.3770 -0.0224
  336MOL    C6540935   1.598   2.959   0.241  0.0519  0.3165 -1.0116
  336MOL    H6640936   1.621   2.881   0.168 -1.1063  1.2251 -2.3722
  336MOL    H6740937   1.492   2.983   0.246  0.5802  2.4351  1.1288
  336MOL    C6840938   1.635   3.096   0.180 -0.5371  0.3564 -0.6186
  336MOL   Cl6940939   1.810   3.096   0.161 -0.1379  0.5521 -0.5364
  336MOL   Cl7040940   1.592   3.241   0.275 -0.0554  0.3243  0.0655
  336MOL    C7140941   1.587   3.125   0.036 -1.0338 -0.3162 -0.1568
  336MOL    H7240942   1.625   3.222   0.004 -2.1721  0.8223  1.8604
  336MOL    H7340943   1.648   3.060   9.153 -1.5427 -1.6804  0.7251
  336MOL    C7440944   1.440   3.117   9.171  0.2738  0.3296  0.0404
  336MOL   Cl7540945   1.333   3.200   0.106 -0.1343 -0.3454  0.3132
  336MOL   Cl7640946   1.407   2.942   9.171 -0.0167 -0.2686  0.3305
  336MOL    C7740947   1.419   3.170   9.028 -0.0033 -0.2729  0.2746
  336MOL    H7840948   1.419   3.278   9.039  5.1724 -0.0736 -0.7330
  336MOL    H7940949   1.505   3.145   8.965 -2.0447 -1.3486 -2.1932
  336MOL    C8040950   1.301   3.138   8.940  0.1394 -0.6924  0.3410
  336MOL   Cl8140951   1.326   2.972   8.866  0.0208  0.0659  0.0350
  336MOL   Cl8240952   1.329   3.251   8.809 -0.1710  0.1558  0.1563
  336MOL    C8340953   1.157   3.148   9.002  0.3950 -0.1482 -0.4576
  336MOL    H8440954   1.157   3.089   9.093  0.8055 -1.3645 -1.2265
  336MOL    H8540955   1.167   3.248   9.044  0.8547 -0.5690  0.4547
  336MOL    C8640956   1.025   3.122   8.931  0.5740 -0.7949 -0.4058
  336MOL   Cl8740957   0.911   3.218   9.015 -0.2329 -0.3345 -0.5074
  336MOL   Cl8840958   0.998   2.946   8.942  0.1894  0.1658 -0.3451
  336MOL    C8940959   1.032   3.165   8.773  0.0540 -0.2378 -0.1646
  336MOL    H9040960   1.075   3.264   8.757 -1.9861  0.7913  0.5631
  336MOL    H9140961   1.101   3.095   8.727  1.7166  1.3021 -0.0521
  336MOL    C9240962   0.902   3.162   8.692  0.8200 -0.3504  0.8734
  336MOL   Cl9340963   0.954   3.172   8.523 -0.2176 -0.0851  0.4717
  336MOL   Cl9440964   0.810   3.317   8.724 -0.0578  0.2088 -0.1505
  336MOL    C9540965   0.821   3.030   8.704  0.5970  0.1220 -1.1200
  336MOL    H9640966   0.876   2.936   8.701 -0.8443 -0.7922  0.2072
  336MOL    H9740967   0.790   3.034   8.809  1.1240 -1.9763 -0.8479
  336MOL    C9840968   0.692   3.000   8.619 -0.3277  0.9970  0.5850
  336MOL   Cl9940969   0.625   2.848   8.699  0.4594 -0.0855  0.0918
  336MOL  Cl10040970   0.754   2.941   8.464 -0.0524  0.1993 -0.0459
  336MOL   C10140971   0.584   3.106   8.606  0.2585 -0.2880 -0.2287
  336MOL   H10240972   0.577   3.155   8.703  0.1840  0.3986 -0.5842
  336MOL   H10340973   0.624   3.176   8.533 -4.1603  2.4028 -0.2904
  336MOL   C10440974   0.434   3.067   8.575  0.6451 -0.0802 -0.4371
  336MOL  Cl10540975   0.359   2.990   8.717  0.0098  0.0882 -0.1812
  336MOL  Cl10640976   0.413   2.953   8.438  0.0536  0.0610 -0.2586
  336MOL   C10740977   0.351   3.191   8.544  0.7559 -0.6722  0.3467
  336MOL   H10840978   0.257   3.155   8.501 -0.0736  0.9860  0.7501
  336MOL   H10940979   0.335   3.233   8.643 -0.6094 -3.0753  1.1988
  336MOL   C11040980   0.414   3.314   8.469 -0.5215  0.2133  0.0480
  336MOL  Cl11140981   0.516   3.266   8.338  0.2456  0.2169  0.3083
  336MOL  Cl11240982   0.518   3.423   8.575 -0.0779 -0.1757 -0.2236
  336MOL   C11340983   0.311   3.409   8.405  0.4375  0.0472 -0.2759
  336MOL   H11440984   0.380   3.485   8.369  0.8106  0.1519  0.6414
  336MOL   H11540985   0.271   3.364   8.314 -0.9109  1.6257 -0.4914
  336MOL   C11640986   0.189   3.471   8.481  0.5635 -0.3209  0.4468
  336MOL  Cl11740987   0.058   3.351   8.524  0.2552  0.1779 -0.0559
  336MOL  Cl11840988   0.111   3.591   8.372  0.2542 -0.0740 -0.4509
  336MOL   C11940989   0.217   3.541   8.613 -0.1997  0.3272  0.1077
  336MOL   H12040990   0.283   3.628   8.617 -2.2229  2.0531 -2.4232
  336MOL   H12140991   0.124   3.578   8.655 -0.6310  0.3803 -0.8959
  336MOL   H12240992   0.244   3.478   8.698 -0.8828  0.6123  0.5315
  337MOL     C140993   7.587   8.761   3.047  0.4080  1.0178 -0.6675
  337MOL    Cl240994   7.752   8.833   3.056  0.1050 -0.0258  0.3869
  337MOL    Cl340995   7.499   8.795   3.203  0.0587 -0.3490  0.1887
  337MOL     C440996   7.527   8.829   2.923  0.7265  0.3043 -0.0760
  337MOL     H540997   7.471   8.918   2.953 -0.0207 -0.0593 -0.3772
  337MOL     H640998   7.603   8.870   2.856 -0.1306  0.3869 -1.0162
  337MOL     H740999   7.599   8.653   3.034 -0.2245  0.7094  1.1514
  337MOL     C841000   7.424   8.750   2.842 -0.2162  0.1797  0.3589
  337MOL    Cl941001   7.292   8.703   2.961  0.3714  0.3275  0.3214
  337MOL   Cl1041002   7.514   8.596   2.788  0.2017 -0.1148  0.4150
  337MOL    C1141003   7.350   8.829   2.736  0.3282 -0.6402 -0.0393
  337MOL    H1241004   7.273   8.761   2.699 -1.5153  0.6241  1.4492
  337MOL    H1341005   7.299   8.913   2.783 -2.4311 -2.0580 -0.4122
  337MOL    C1441006   7.418   8.895   2.613 -0.1899  0.3107 -0.4118
  337MOL   Cl1541007   7.497   8.771   2.516 -0.0772  0.3881  0.0867
  337MOL   Cl1641008   7.546   9.005   2.665  0.0417 -0.0787  0.3267
  337MOL    C1741009   7.325   8.978   2.522 -0.1972  0.3458  0.3531
  337MOL    H1841010   7.309   9.077   2.564  0.0010  0.2390  0.6814
  337MOL    H1941011   7.382   8.990   2.431 -1.2904  0.2146 -0.3611
  337MOL    C2041012   7.186   8.924   2.478 -0.1948  0.2020 -0.2729
  337MOL   Cl2141013   7.074   8.930   2.622  0.3260 -0.4970  0.0519
  337MOL   Cl2241014   7.198   8.762   2.426  0.2115  0.5258  0.0316
  337MOL    C2341015   7.135   9.012   2.356  0.3550  0.5453  0.7125
  337MOL    H2441016   7.169   9.115   2.362 -0.1229  0.9737 -2.9722
  337MOL    H2541017   7.200   8.985   2.273 -0.7023  0.0278  0.0380
  337MOL    C2641018   6.991   9.007   2.303 -0.2906 -0.3256 -0.1557
  337MOL   Cl2741019   6.904   9.104   2.416  0.4127  0.1202 -0.0477
  337MOL   Cl2841020   6.917   8.844   2.297 -0.0228 -0.2113 -0.2696
  337MOL    C2941021   6.990   9.075   2.167  0.3291 -0.2346  0.0859
  337MOL    H3041022   7.054   9.163   2.170  1.8539 -1.2951 -0.8609
  337MOL    H3141023   7.039   9.013   2.092 -1.0173 -1.3828  0.1245
  337MOL    C3241024   6.858   9.133   2.104  0.4333  0.1130 -0.1234
  337MOL   Cl3341025   6.823   0.119   2.160 -0.4064 -0.3428 -0.2712
  337MOL   Cl3441026   6.728   9.028   2.160 -0.1272  0.0211 -0.2130
  337MOL    C3541027   6.864   9.124   1.950  0.4600 -0.9198  0.3452
  337MOL    H3641028   6.947   0.006   1.917  0.6899 -0.3764  1.9300
  337MOL    H3741029   6.905   9.028   1.919 -1.7098 -1.6343 -0.4465
  337MOL    C3841030   6.750   9.135   1.845  0.0295 -0.5419 -0.2253
  337MOL   Cl3941031   6.811   0.015   1.684  0.1335  0.0480 -0.1110
  337MOL   Cl4041032   6.644   0.088   1.893  0.2555  0.1534  0.3954
  337MOL    C4141033   6.653   9.014   1.819 -0.1610  0.2453  0.7406
  337MOL    H4241034   6.579   9.004   1.899  1.8223  0.6180  2.6882
  337MOL    H4341035   6.598   9.051   1.733  0.8704 -0.6445 -0.3214
  337MOL    C4441036   6.703   8.872   1.789 -0.0926 -0.0847 -0.6853
  337MOL   Cl4541037   6.778   8.798   1.937  0.1024 -0.3712  0.2287
  337MOL   Cl4641038   6.822   8.875   1.654 -0.0560 -0.0233  0.0104
  337MOL    C4741039   6.583   8.786   1.737 -0.5977  0.5779 -0.5774
  337MOL    H4841040   6.491   8.823   1.783 -0.3196  1.0198 -0.3719
  337MOL    H4941041   6.565   8.826   1.637  1.7936  0.8906 -0.9235
  337MOL    C5041042   6.567   8.628   1.740  0.1886 -0.2485 -0.1341
  337MOL   Cl5141043   6.418   8.576   1.647 -0.3295  0.3343 -0.0711
  337MOL   Cl5241044   6.550   8.573   1.916 -0.2482 -0.2629  0.1210
  337MOL    C5341045   6.687   8.565   1.666  0.8134 -0.3791 -0.5742
  337MOL    H5441046   6.680   8.606   1.566  1.6715 -2.6574 -1.6016
  337MOL    H5541047   6.780   8.604   1.708  0.1673  1.3271 -0.7214
  337MOL    C5641048   6.703   8.413   1.629 -0.7376 -0.4774  0.2681
  337MOL   Cl5741049   6.687   8.314   1.773  0.1202  0.0210 -0.1684
  337MOL   Cl5841050   6.874   8.401   1.559 -0.2498 -0.0343  0.1121
  337MOL    C5941051   6.603   8.357   1.519 -0.9887  0.0672  0.0048
  337MOL    H6041052   6.514   8.324   1.574 -0.1481  0.9538  1.9471
  337MOL    H6141053   6.566   8.443   1.464  0.2414 -0.2366 -1.3185
  337MOL    C6241054   6.635   8.248   1.408 -0.6013 -0.0267 -0.2456
  337MOL   Cl6341055   6.474   8.179   1.387 -0.4009  0.0382  0.2257
  337MOL   Cl6441056   6.733   8.124   1.488  0.4565  0.4303  0.1345
  337MOL    C6541057   6.693   8.311   1.276  0.4546  0.3870 -0.1122
  337MOL    H6641058   6.615   8.375   1.235  0.0491 -1.6749 -2.6885
  337MOL    H6741059   6.778   8.374   1.304  0.8053  0.5165 -1.4120
  337MOL    C6841060   6.752   8.219   1.160 -0.1895 -0.3626  0.2653
  337MOL   Cl6941061   6.625   8.092   1.122  0.5581 -0.2755  0.2154
  337MOL   Cl7041062   6.895   8.130   1.213 -0.1752 -0.1602  0.3668
  337MOL    C7141063   6.787   8.290   1.024 -0.4191  0.2212  0.0258
  337MOL    H7241064   6.811   8.208   0.957  0.8854  1.1423 -0.6679
  337MOL    H7341065   6.695   8.327   0.979 -0.7518 -1.3859 -0.6437
  337MOL    C7441066   6.886   8.411   1.017  0.0868 -0.1466  0.6505
  337MOL   Cl7541067   7.036   8.370   1.099 -0.4402 -0.4131  0.4650
  337MOL   Cl7641068   6.815   8.555   1.115 -0.2649 -0.0449  0.1676
  337MOL    C7741069   6.918   8.452   0.866 -0.0952 -0.1920 -0.1761
  337MOL    H7841070   6.889   8.382   0.787  0.4464 -1.0700  0.3955
  337MOL    H7941071   6.854   8.539   0.852 -2.1224 -1.5126  0.5657
  337MOL    C8041072   7.055   8.498   0.828 -0.9369  0.2933  0.2890
  337MOL   Cl8141073   7.113   8.622   0.946 -0.2233 -0.1784 -0.2561
  337MOL   Cl8241074   7.047   8.586   0.674 -0.3002  0.3274  0.0066
  337MOL    C8341075   7.170   8.391   0.826  0.5182 -0.6326  0.6627
  337MOL    H8441076   7.243   8.439   0.760  0.6090  1.0919  1.9830
  337MOL    H8541077   7.216   8.392   0.924 -0.0316  0.1648  0.9217
  337MOL    C8641078   7.149   8.252   0.765  0.8104 -0.1482  0.3038
  337MOL   Cl8741079   7.068   8.272   0.608 -0.2948  0.2384  0.0263
  337MOL   Cl8841080   7.055   8.141   0.870  0.3321  0.1111  0.2369
  337MOL    C8941081   7.277   8.173   0.726 -0.6852 -0.0487  0.3134
  337MOL    H9041082   7.243   8.076   0.691 -0.1796  0.1368 -0.7006
  337MOL    H9141083   7.314   8.230   0.641 -1.0288 -2.4198 -1.4732
  337MOL    C9241084   7.399   8.162   0.822  0.2205  0.5413 -0.3501
  337MOL   Cl9341085   7.354   8.078   0.974  0.4162 -0.0971  0.1577
  337MOL   Cl9441086   7.471   8.318   0.869 -0.2058  0.0618  0.0041
  337MOL    C9541087   7.508   8.063   0.765 -0.1638  0.3019 -0.1350
  337MOL    H9641088   7.591   8.085   0.832  0.5654  2.0069 -1.5638
  337MOL    H9741089   7.484   7.958   0.784  0.3991 -0.2436 -2.3261
  337MOL    C9841090   7.552   8.063   0.615 -0.5966 -0.4230  0.6723
  337MOL   Cl9941091   7.627   8.218   0.575  0.3682  0.2919 -0.4590
  337MOL  Cl10041092   7.419   8.049   0.500 -0.1595  0.0427 -0.1897
  337MOL   C10141093   7.651   7.950   0.579  0.4660 -0.2678 -0.3009
  337MOL   H10241094   7.592   7.860   0.559 -2.0039  1.5674 -1.6536
  337MOL   H10341095   7.684   7.971   0.477 -0.5560 -1.9500 -0.9965
  337MOL   C10441096   7.775   7.913   0.665 -0.0452  0.1419  0.2145
  337MOL  Cl10541097   7.719   7.813   0.804 -0.4937 -0.2909 -0.3034
  337MOL  Cl10641098   7.841   8.067   0.734 -0.6978  0.0812 -0.0495
  337MOL   C10741099   7.881   7.826   0.590  0.5207  0.4420 -0.4606
  337MOL   H10841100   7.940   7.897   0.533  1.2196  0.5740  0.4247
  337MOL   H10941101   7.943   7.777   0.664  0.8968 -2.2166 -2.4681
  337MOL   C11041102   7.847   7.713   0.476 -0.1070 -0.5518  0.0264
  337MOL  Cl11141103   7.788   7.780   0.328 -0.0018 -0.0508  0.4024
  337MOL  Cl11241104   7.727   7.608   0.545 -0.5279 -0.1170 -0.2228
  337MOL   C11341105   7.966   7.615   0.445 -0.3987 -0.5805  0.2696
  337MOL   H11441106   7.976   7.554   0.534  0.1946  0.2046  0.7508
  337MOL   H11541107   7.929   7.549   0.367 -0.3783 -1.9612  1.4131
  337MOL   C11641108   8.103   7.673   0.391 -0.2631  0.1167 -0.1263
  337MOL  Cl11741109   8.213   7.707   0.520  0.1928  0.1872 -0.2752
  337MOL  Cl11841110   8.091   7.829   0.306 -0.0329  0.0375  0.1544
  337MOL   C11941111   8.166   7.570   0.298 -0.3271 -0.1658 -0.0366
  337MOL   H12041112   8.170   7.477   0.355 -0.1530 -0.3294 -0.3132
  337MOL   H12141113   8.098   7.564   0.213 -0.9969  0.8063  0.4285
  337MOL   H12241114   8.268   7.593   0.267 -0.0222 -2.0032 -0.4551
  338MOL     C141115   4.556   2.337   8.958 -0.4897 -0.0456 -0.9025
  338MOL    Cl241116   4.393   2.330   8.892  0.2143  0.1974 -0.2311
  338MOL    Cl341117   4.684   2.385   8.849  0.2774 -0.1554  0.2000
  338MOL     C441118   4.553   2.422   9.091  0.3367  0.4539 -0.0218
  338MOL     H541119   4.531   2.524   9.058  1.2216  0.0351 -1.9595
  338MOL     H641120   4.470   2.375   9.144  0.7077 -1.0115 -0.7143
  338MOL     H741121   4.572   2.232   8.984 -0.5899  0.2762  0.5208
  338MOL     C841122   4.677   2.415   0.007  0.1028  1.1805  0.4357
  338MOL    Cl941123   4.807   2.519   9.125 -0.0013  0.3862  0.4995
  338MOL   Cl1041124   4.728   2.239   0.011  0.0474  0.1395  0.1513
  338MOL    C1141125   4.641   2.447   0.155 -0.6800  0.5820  0.0911
  338MOL    H1241126   4.577   2.363   0.181  1.0315 -0.9119 -0.4242
  338MOL    H1341127   4.735   2.435   0.209 -0.6000 -1.3872 -0.4617
  338MOL    C1441128   4.570   2.575   0.201  0.2161  0.2820  0.2867
  338MOL   Cl1541129   4.399   2.584   0.142  0.7124 -0.3434 -0.3062
  338MOL   Cl1641130   4.663   2.712   0.134 -0.2612  0.3005 -0.1923
  338MOL    C1741131   4.566   2.589   0.359 -0.7044  0.6423 -0.6232
  338MOL    H1841132   4.668   2.604   0.394 -0.4567 -1.4014 -0.4066
  338MOL    H1941133   4.524   2.689   0.363  0.5839  1.3846 -3.8241
  338MOL    C2041134   4.510   2.481   0.450 -0.3599 -1.0144 -0.4017
  338MOL   Cl2141135   4.655   2.385   0.494  0.1270 -0.0171 -0.1459
  338MOL   Cl2241136   4.393   2.370   0.376 -0.1264  0.0167  0.1137
  338MOL    C2341137   4.451   2.551   0.577 -0.1780  0.1867 -0.1712
  338MOL    H2441138   4.539   2.570   0.638 -0.6868  1.5146  0.1650
  338MOL    H2541139   4.398   2.641   0.547 -1.6620 -0.7210 -0.3734
  338MOL    C2641140   4.361   2.477   0.671 -0.1882  0.1540 -0.5770
  338MOL   Cl2741141   4.427   2.318   0.716 -0.2460 -0.1999 -0.0713
  338MOL   Cl2841142   4.203   2.466   0.604 -0.0501  0.1681  0.2293
  338MOL    C2941143   4.341   2.561   0.800  0.2482  0.0637 -0.2635
  338MOL    H3041144   4.430   2.614   0.832  0.1870 -0.5086  0.8872
  338MOL    H3141145   4.277   2.636   0.754 -0.9179 -1.0060 -0.4446
  338MOL    C3241146   4.274   2.510   0.934 -0.1963  0.2056 -0.1642
  338MOL   Cl3341147   4.414   2.443   1.027 -0.5643 -0.0390  0.2149
  338MOL   Cl3441148   4.154   2.380   0.911 -0.1245  0.1085 -0.0072
  338MOL    C3541149   4.212   2.620   1.027  0.3315 -0.1204 -0.1282
  338MOL    H3641150   4.207   2.572   1.125  1.3903 -3.1571 -1.5216
  338MOL    H3741151   4.293   2.692   1.046  2.8791 -2.9522  0.1293
  338MOL    C3841152   4.078   2.680   0.988  0.1425 -0.1237 -0.5958
  338MOL   Cl3941153   3.946   2.589   1.068 -0.0942  0.2022  0.0081
  338MOL   Cl4041154   4.044   2.673   0.813 -0.3158 -0.1957 -0.3757
  338MOL    C4141155   4.050   2.836   1.016  0.0723 -0.4491 -0.1528
  338MOL    H4241156   4.068   2.891   0.923  1.7279 -0.0563  0.3851
  338MOL    H4341157   3.942   2.843   1.026  0.2164 -1.0127  2.0872
  338MOL    C4441158   4.121   2.902   1.136 -0.7085  0.1017 -0.5694
  338MOL   Cl4541159   4.294   2.935   1.097  0.1554 -0.3104  0.3187
  338MOL   Cl4641160   4.139   2.797   1.267 -0.3926  0.1184 -0.1436
  338MOL    C4741161   4.059   3.041   1.187 -0.1720 -0.1415  0.5569
  338MOL    H4841162   4.126   3.075   1.266  0.8301 -3.1317  1.0686
  338MOL    H4941163   4.091   3.119   1.118  2.0387 -0.9435  0.6345
  338MOL    C5041164   3.908   3.061   1.232  0.6273  0.1383 -0.3688
  338MOL   Cl5141165   3.809   3.031   1.091 -0.1933 -0.1972 -0.0420
  338MOL   Cl5241166   3.891   3.232   1.258 -0.4544 -0.4213  0.3989
  338MOL    C5341167   3.858   2.977   1.350 -0.2270  0.2247 -0.3179
  338MOL    H5441168   3.891   2.873   1.343 -1.3511 -0.2543  1.2557
  338MOL    H5541169   3.909   3.016   1.438 -0.9349 -0.1247  0.2498
  338MOL    C5641170   3.698   2.967   1.379 -0.1510 -0.2188 -0.2148
  338MOL   Cl5741171   3.667   2.913   1.551 -0.0679 -0.2427 -0.1799
  338MOL   Cl5841172   3.630   2.840   1.274  0.4912 -0.1403 -0.1757
  338MOL    C5941173   3.617   3.102   1.363  0.4242  0.3333 -0.3548
  338MOL    H6041174   3.675   3.185   1.405  0.9651 -0.0292 -0.3810
  338MOL    H6141175   3.613   3.117   1.255  0.5592 -1.3326 -0.6045
  338MOL    C6241176   3.466   3.116   1.408  0.1173  0.6651 -0.2233
  338MOL   Cl6341177   3.399   3.252   1.306 -0.1155 -0.4697  0.3222
  338MOL   Cl6441178   3.465   3.189   1.565 -0.3255  0.1166 -0.0286
  338MOL    C6541179   3.372   2.991   1.394 -0.2224  0.5928 -0.3989
  338MOL    H6641180   3.364   2.955   1.291 -0.6871  0.6050 -0.3669
  338MOL    H6741181   3.425   2.912   1.447 -1.2879 -1.2200 -1.9771
  338MOL    C6841182   3.231   2.982   1.456  0.1750 -0.2580 -0.2392
  338MOL   Cl6941183   3.251   2.946   1.636 -0.3842 -0.3991  0.2054
  338MOL   Cl7041184   3.157   2.844   1.371  0.0795  0.2052 -0.4957
  338MOL    C7141185   3.139   3.110   1.438  0.7966  0.3944  0.1002
  338MOL    H7241186   3.206   3.185   1.481  0.6371  0.7969 -0.3584
  338MOL    H7341187   3.139   3.140   1.333  1.2556  1.4312  0.3910
  338MOL    C7441188   2.992   3.123   1.484  0.0381 -0.6408 -0.0028
  338MOL   Cl7541189   2.985   3.098   1.664  0.0408 -0.0233 -0.5081
  338MOL   Cl7641190   2.883   3.015   1.389 -0.0040  0.3620 -0.4028
  338MOL    C7741191   2.940   3.268   1.454  0.2277 -0.1730  0.1495
  338MOL    H7841192   2.933   3.279   1.346  1.4528  0.6081  0.1531
  338MOL    H7941193   2.836   3.264   1.487  0.6205 -0.6483  1.3687
  338MOL    C8041194   2.985   3.404   1.502  0.1490 -0.2264 -0.2546
  338MOL   Cl8141195   2.880   3.524   1.427  0.3259  0.1159 -0.4819
  338MOL   Cl8241196   3.156   3.432   1.458  0.6625  0.0862  0.1451
  338MOL    C8341197   2.979   3.411   1.661  0.3328 -0.5413  0.7386
  338MOL    H8441198   2.884   3.365   1.687  0.4088 -1.4351 -0.4897
  338MOL    H8541199   3.058   3.347   1.701  1.8001  1.0334  0.4554
  338MOL    C8641200   2.987   3.543   1.741  0.5714 -0.3659 -0.0253
  338MOL   Cl8741201   2.966   3.489   1.907 -0.5603  0.4926 -0.0114
  338MOL   Cl8841202   2.841   3.637   1.695  0.0820  0.1777  0.0892
  338MOL    C8941203   3.122   3.613   1.716 -0.8271 -0.7773  0.1471
  338MOL    H9041204   3.204   3.541   1.721 -0.5526 -0.4628  0.1816
  338MOL    H9141205   3.120   3.643   1.612 -2.5980  0.4755  0.5242
  338MOL    C9241206   3.170   3.723   1.807  0.6167  0.4022 -0.4587
  338MOL   Cl9341207   3.302   3.808   1.721 -0.3580 -0.2744  0.0275
  338MOL   Cl9441208   3.234   3.647   1.959  0.1955 -0.5885  0.1099
  338MOL    C9541209   3.058   3.819   1.853  0.0543  0.8967 -0.0000
  338MOL    H9641210   2.990   3.842   1.771  0.6814 -2.5600 -1.6048
  338MOL    H9741211   2.986   3.757   1.906  0.1766  0.8822  0.1504
  338MOL    C9841212   3.081   3.944   1.935 -0.4443  0.3813 -0.2688
  338MOL   Cl9941213   2.921   4.002   1.983 -0.2786 -0.6895  0.0304
  338MOL  Cl10041214   3.166   4.065   1.830  0.1336 -0.1399  0.4551
  338MOL   C10141215   3.160   3.927   2.071 -0.3195 -0.6589 -0.0396
  338MOL   H10241216   3.117   3.843   2.124 -0.0071 -0.8139 -0.0340
  338MOL   H10341217   3.263   3.894   2.055 -0.1766 -0.0113 -0.4617
  338MOL   C10441218   3.189   4.040   2.177 -0.2147  0.1061  0.0546
  338MOL  Cl10541219   3.298   4.167   2.108 -0.3296 -0.1501  0.0006
  338MOL  Cl10641220   3.277   3.950   2.298  0.0559 -0.2967 -0.1770
  338MOL   C10741221   3.064   4.110   2.240  0.9479  0.1977  0.6871
  338MOL   H10841222   3.022   4.171   2.161  0.0206  0.2847  1.2422
  338MOL   H10941223   2.996   4.027   2.256  0.1097  0.7526  0.0045
  338MOL   C11041224   3.066   4.197   2.377 -0.5673 -0.4563  0.0747
  338MOL  Cl11141225   3.099   4.095   2.516 -0.0026 -0.1424  0.2626
  338MOL  Cl11241226   2.913   4.281   2.397  0.2785  0.9421 -0.2197
  338MOL   C11341227   3.174   4.308   2.370 -0.6860 -0.3638  0.4068
  338MOL   H11441228   3.201   4.333   2.473  1.2164 -2.5839  0.4789
  338MOL   H11541229   3.271   4.262   2.353  0.3354  1.8893 -0.1279
  338MOL   C11641230   3.156   4.432   2.272 -0.6858 -0.4423  0.5370
  338MOL  Cl11741231   3.044   4.413   2.127 -0.2521  0.0564  0.4319
  338MOL  Cl11841232   3.322   4.472   2.221 -0.2013 -0.1678  0.0187
  338MOL   C11941233   3.101   4.553   2.344  0.0028 -0.3036 -0.0892
  338MOL   H12041234   3.109   4.641   2.280  1.2374  0.3494  0.9237
  338MOL   H12141235   2.997   4.538   2.374  0.0199  0.1352  0.1890
  338MOL   H12241236   3.146   4.578   2.440 -3.8511  3.4048  0.9303
  339MOL     C141237   7.940   5.333   0.384  0.1581 -0.3634  0.0348
  339MOL    Cl241238   7.761   5.371   0.378 -0.2113 -0.0001  0.3445
  339MOL    Cl341239   8.007   5.418   0.521 -0.4326 -0.1803 -0.0415
  339MOL     C441240   7.964   5.184   0.409  0.1991 -0.5526  0.1796
  339MOL     H541241   8.063   5.168   0.453 -0.8485 -1.6659  2.1962
  339MOL     H641242   7.901   5.131   0.480  0.6843  0.9197  1.7543
  339MOL     H741243   8.002   5.368   0.302 -0.8748  0.8177 -0.2538
  339MOL     C841244   7.961   5.094   0.290  0.5170 -0.4219  0.6471
  339MOL    Cl941245   8.081   5.153   0.179 -0.0567  0.2790 -0.1088
  339MOL   Cl1041246   7.804   5.099   0.195  0.0148  0.2797 -0.3006
  339MOL    C1141247   7.977   4.937   0.311  0.0406  0.4104 -0.6457
  339MOL    H1241248   7.887   4.893   0.353 -0.6020  2.7048  0.4435
  339MOL    H1341249   7.999   4.892   0.214 -0.0932 -1.4551  0.1616
  339MOL    C1441250   8.086   4.873   0.405  0.5962 -0.2190 -0.1820
  339MOL   Cl1541251   8.050   4.909   0.579  0.4452  0.0186  0.1976
  339MOL   Cl1641252   8.250   4.929   0.359  0.0888  0.7058 -0.3893
  339MOL    C1741253   8.099   4.717   0.392  0.0852 -0.1872 -1.0053
  339MOL    H1841254   8.139   4.693   0.294  2.0364 -2.5384  0.3254
  339MOL    H1941255   8.183   4.690   0.455  1.2871  1.0681 -2.0360
  339MOL    C2041256   7.989   4.617   0.412  0.3115 -0.8099 -0.0463
  339MOL   Cl2141257   7.844   4.648   0.308 -0.3111 -0.0485  0.0927
  339MOL   Cl2241258   7.942   4.611   0.586  0.3794  0.0384  0.1321
  339MOL    C2341259   8.029   4.477   0.367 -0.0219  0.7559  0.2313
  339MOL    H2441260   7.948   4.407   0.387  0.6286 -0.5033 -1.4435
  339MOL    H2541261   8.052   4.473   0.261 -0.8219 -0.7873  0.0907
  339MOL    C2641262   8.164   4.411   0.408  0.2920  0.4062  0.3934
  339MOL   Cl2741263   8.199   4.425   0.582 -0.4137  0.2283 -0.3181
  339MOL   Cl2841264   8.303   4.481   0.321  0.5142  0.2652 -0.1669
  339MOL    C2941265   8.168   4.260   0.379 -0.4103 -0.5108  0.1589
  339MOL    H3041266   8.268   4.230   0.408 -0.2484  0.1433  0.2942
  339MOL    H3141267   8.103   4.212   0.452 -0.3696 -2.1354 -0.8485
  339MOL    C3241268   8.143   4.189   0.245 -0.0661 -0.3550 -0.2315
  339MOL   Cl3341269   8.258   4.237   0.126  0.0553  0.1862 -0.0337
  339MOL   Cl3441270   7.979   4.215   0.196 -0.0498 -0.2214 -0.0364
  339MOL    C3541271   8.153   4.035   0.257  0.3553 -0.6218 -0.1846
  339MOL    H3641272   8.066   4.002   0.314 -0.6864  0.7917 -0.9283
  339MOL    H3741273   8.142   4.009   0.152  1.6489 -0.0817 -0.4687
  339MOL    C3841274   8.275   3.957   0.314  0.2500  0.0878 -0.5211
  339MOL   Cl3941275   8.213   3.789   0.310  0.4007 -0.0590 -0.0815
  339MOL   Cl4041276   8.295   3.990   0.483 -0.0601  0.2674 -0.0145
  339MOL    C4141277   8.406   3.985   0.222  0.3814 -0.0419  0.4853
  339MOL    H4241278   8.382   4.012   0.119 -2.0654 -0.1753  1.0005
  339MOL    H4341279   8.435   4.078   0.271  0.6118 -0.9611  2.1325
  339MOL    C4441280   8.519   3.879   0.213 -0.4221  1.1205  0.5103
  339MOL   Cl4541281   8.563   3.823   0.373  0.1842 -0.0336  0.0029
  339MOL   Cl4641282   8.668   3.960   0.166 -0.1409  0.4721 -0.3670
  339MOL    C4741283   8.487   3.747   0.135  0.2726  0.5960 -0.3141
  339MOL    H4841284   8.579   3.689   0.130  0.4553  0.9609 -1.2931
  339MOL    H4941285   8.424   3.673   0.185 -0.3425  1.1837 -0.2176
  339MOL    C5041286   8.453   3.762   9.164 -0.5432 -0.4233 -0.2465
  339MOL   Cl5141287   8.578   3.865   9.076 -0.0644  0.3259  0.4076
  339MOL   Cl5241288   8.293   3.839   9.129  0.3124 -0.2963  0.0331
  339MOL    C5341289   8.459   3.630   9.073  0.8798 -0.0960 -0.0865
  339MOL    H5441290   8.419   3.655   8.975  0.2821  0.4954  0.3102
  339MOL    H5541291   8.562   3.601   9.051  0.8896 -0.8004  0.8488
  339MOL    C5641292   8.389   3.503   9.118 -0.8878  0.0639 -0.4402
  339MOL   Cl5741293   8.231   3.532   9.177  0.5786  0.0885 -0.2451
  339MOL   Cl5841294   8.475   3.433   0.076 -0.2049 -0.0451 -0.4575
  339MOL    C5941295   8.383   3.393   9.002 -0.2018 -0.3992 -0.0994
  339MOL    H6041296   8.487   3.360   8.995 -0.8134 -2.0465 -1.7307
  339MOL    H6141297   8.332   3.310   9.049 -1.3249  1.7014  2.4857
  339MOL    C6241298   8.334   3.411   8.861 -0.1302 -0.0578  0.6354
  339MOL   Cl6341299   8.469   3.484   8.767  0.2333 -0.1973 -0.1375
  339MOL   Cl6441300   8.200   3.524   8.855 -0.1558 -0.2615 -0.0882
  339MOL    C6541301   8.298   3.265   8.806 -0.1389  0.4609  0.6895
  339MOL    H6641302   8.395   3.215   8.801  0.5585  1.7658  1.2152
  339MOL    H6741303   8.242   3.208   8.881  0.2968  0.1411  0.7777
  339MOL    C6841304   8.218   3.253   8.674 -0.4504 -0.3272  0.1597
  339MOL   Cl6941305   8.255   3.384   8.546 -0.4250 -0.2138  0.5320
  339MOL   Cl7041306   8.051   3.271   8.716  0.3296 -0.2791  0.2847
  339MOL    C7141307   8.236   3.114   8.601 -0.5033  0.6228 -0.6380
  339MOL    H7241308   8.165   3.123   8.518 -0.0647  2.4929 -0.8348
  339MOL    H7341309   8.331   3.118   8.547 -0.6213  0.2985 -0.8776
  339MOL    C7441310   8.232   2.972   8.674  1.1145 -0.2581  0.7941
  339MOL   Cl7541311   8.068   2.963   8.749  0.2111 -0.2024  0.2386
  339MOL   Cl7641312   8.365   2.947   8.788 -0.1928  0.1631  0.0741
  339MOL    C7741313   8.248   2.866   8.565 -0.1079 -0.2089 -0.3862
  339MOL    H7841314   8.198   2.900   8.475 -0.7123  0.0454  0.0483
  339MOL    H7941315   8.355   2.873   8.544 -0.3581 -1.2397 -2.0684
  339MOL    C8041316   8.211   2.712   8.577  0.3976 -0.1632  0.8719
  339MOL   Cl8141317   8.033   2.717   8.559  0.1560 -0.1218 -0.4972
  339MOL   Cl8241318   8.269   2.637   8.728 -0.0323  0.4970  0.1059
  339MOL    C8341319   8.283   2.634   8.460 -0.1872 -0.2658  0.6139
  339MOL    H8441320   8.312   2.694   8.374  1.4860  2.6369  3.0866
  339MOL    H8541321   8.382   2.607   8.498 -0.0602  0.4177  0.7599
  339MOL    C8641322   8.219   2.502   8.404  0.6828 -0.7653 -0.5130
  339MOL   Cl8741323   8.359   2.418   8.325 -0.1577  0.2427 -0.0835
  339MOL   Cl8841324   8.095   2.551   8.286 -0.5779 -0.0733 -0.0095
  339MOL    C8941325   8.166   2.410   8.516 -0.1691  0.2843 -0.1085
  339MOL    H9041326   8.241   2.404   8.595  0.9816 -3.4160 -1.4099
  339MOL    H9141327   8.083   2.467   8.558 -0.2466 -0.8299  1.2725
  339MOL    C9241328   8.101   2.266   8.498 -0.0099 -0.6150 -0.3016
  339MOL   Cl9341329   8.009   2.218   8.642 -0.3841 -0.0415 -0.2763
  339MOL   Cl9441330   8.247   2.160   8.497  0.0918  0.3167  0.3010
  339MOL    C9541331   8.008   2.251   8.366  0.2072  0.1084  0.1163
  339MOL    H9641332   7.950   2.342   8.360  1.0118  0.5587 -1.1093
  339MOL    H9741333   8.084   2.256   8.288  0.3737 -0.5497  0.2270
  339MOL    C9841334   7.927   2.122   8.337  0.0260  0.7860  0.7278
  339MOL   Cl9941335   7.782   2.116   8.442  0.3105  0.2125  0.0399
  339MOL  Cl10041336   8.029   1.974   8.364 -0.2811  0.4723  0.2364
  339MOL   C10141337   7.873   2.107   8.184  0.2474 -0.5634  0.0514
  339MOL   H10241338   7.954   2.076   8.117  0.3151 -2.2454  0.8725
  339MOL   H10341339   7.801   2.025   8.179  1.9750 -2.1222 -0.0897
  339MOL   C10441340   7.810   2.225   8.099 -0.4371  0.1252  0.1748
  339MOL  Cl10541341   7.945   2.336   8.072 -0.1811  0.0508  0.1428
  339MOL  Cl10641342   7.682   2.306   8.190  0.0418 -0.2191 -0.1706
  339MOL   C10741343   7.754   2.186   7.954  0.0260 -0.4478  0.1059
  339MOL   H10841344   7.685   2.265   7.923 -1.0117 -1.8565 -1.2381
  339MOL   H10941345   7.835   2.175   7.882 -3.2161 -0.0336 -3.8140
  339MOL   C11041346   7.668   2.059   7.940 -0.6574  0.1161 -0.2418
  339MOL  Cl11141347   7.539   2.038   8.063  0.3058 -0.3857  0.0132
  339MOL  Cl11241348   7.761   1.906   7.952 -0.5137 -0.1756  0.2538
  339MOL   C11341349   7.593   2.057   7.797 -1.0520  0.2648 -0.6771
  339MOL   H11441350   7.526   1.972   7.806  0.7317 -1.0933  0.1745
  339MOL   H11541351   7.525   2.141   7.785  0.8218  1.9224 -0.0367
  339MOL   C11641352   7.671   2.030   7.659  0.5551  1.0206 -0.3529
  339MOL  Cl11741353   7.666   1.857   7.622  0.1260 -0.2558  0.3815
  339MOL  Cl11841354   7.841   2.086   7.656  0.0332 -0.2012  0.1172
  339MOL   C11941355   7.596   2.105   7.542 -0.1316  0.4562 -0.3623
  339MOL   H12041356   7.588   2.213   7.555  1.3008  0.6641 -1.1479
  339MOL   H12141357   7.647   2.091   7.447 -1.3752  0.3828 -1.0261
  339MOL   H12241358   7.500   2.056   7.527  0.0416  0.0269 -0.0954
  340MOL     C141359   0.089   9.163   5.258 -0.2957  0.0184 -1.0354
  340MOL    Cl241360   0.046   9.001   5.319 -0.2143  0.1824  0.0299
  340MOL    Cl341361   0.138   0.082   5.398  0.2797 -0.0685 -0.1903
  340MOL     C441362   0.202   9.165   5.155 -0.8365 -0.4158 -0.3786
  340MOL     H541363   0.246   0.084   5.164 -1.1899 -0.4747  2.6699
  340MOL     H641364   0.285   9.102   5.185 -0.6297 -0.4194 -0.9613
  340MOL     H741365   9.177   0.026   5.221 -1.2374 -1.1197 -0.0606
  340MOL     C841366   0.164   9.136   5.007  0.2012 -0.2074  0.0380
  340MOL    Cl941367   0.113   0.115   4.935 -0.1360 -0.3977 -0.1150
  340MOL   Cl1041368   0.019   9.034   4.996 -0.4968 -0.3576  0.0114
  340MOL    C1141369   0.290   9.091   4.926 -0.2374  0.2885 -0.1067
  340MOL    H1241370   0.281   9.128   4.824 -2.7186 -0.2037 -0.1146
  340MOL    H1341371   0.375   9.144   4.968  0.6763 -0.9182 -0.4133
  340MOL    C1441372   0.320   8.933   4.915 -0.4832 -0.4662  0.0680
  340MOL   Cl1541373   0.208   8.854   4.807  0.1696  0.0355 -0.2682
  340MOL   Cl1641374   0.311   8.854   5.065  0.2071 -0.0413 -0.1532
  340MOL    C1741375   0.468   8.920   4.864  0.5218 -0.1487  0.2838
  340MOL    H1841376   0.469   8.941   4.757 -3.5110 -2.9466 -0.4435
  340MOL    H1941377   0.516   9.005   4.913  1.3419 -0.1109 -0.5670
  340MOL    C2041378   0.555   8.797   4.888  0.0897 -0.4731 -0.7340
  340MOL   Cl2141379   0.616   8.791   5.056 -0.2927 -0.5347  0.0902
  340MOL   Cl2241380   0.695   8.827   4.782  0.3146  0.2209  0.1508
  340MOL    C2341381   0.490   8.669   4.832  0.3684  0.0075  0.7365
  340MOL    H2441382   0.391   8.660   4.876  0.4335 -4.0097  0.2761
  340MOL    H2541383   0.473   8.676   4.725 -1.1911 -0.8168  0.9080
  340MOL    C2641384   0.547   8.530   4.860 -0.0110  0.9679 -0.5650
  340MOL   Cl2741385   0.711   8.501   4.800 -0.2886  0.1108  0.0376
  340MOL   Cl2841386   0.438   8.434   4.757 -0.5112 -0.0031  0.2733
  340MOL    C2941387   0.541   8.477   5.004  0.2692 -0.3503 -0.6152
  340MOL    H3041388   0.633   8.507   5.053  0.5125 -1.5579 -0.3162
  340MOL    H3141389   0.469   8.539   5.057 -0.4653 -1.4779 -0.2764
  340MOL    C3241390   0.513   8.331   5.050  0.1198  0.2370  0.5842
  340MOL   Cl3341391   0.343   8.288   5.024 -0.1331 -0.2075  0.0512
  340MOL   Cl3441392   0.540   8.328   5.228  0.2405  0.2810  0.2967
  340MOL    C3541393   0.593   8.227   4.966 -0.2995  0.8070 -0.5950
  340MOL    H3641394   0.552   8.218   4.866  0.2391  0.0176 -0.7473
  340MOL    H3741395   0.686   8.274   4.933  0.0145  0.2836 -0.4526
  340MOL    C3841396   0.630   8.085   5.021 -0.5144 -0.2662  0.1923
  340MOL   Cl3941397   0.767   8.111   5.139 -0.0767  0.0095  0.2609
  340MOL   Cl4041398   0.696   7.995   4.892 -0.5746 -0.1695 -0.0927
  340MOL    C4141399   0.502   8.014   5.079 -0.4851 -1.2726  1.1291
  340MOL    H4241400   0.468   8.073   5.164 -2.2679 -2.6375  1.3659
  340MOL    H4341401   0.428   8.014   4.999 -1.0179  0.6119  1.5983
  340MOL    C4441402   0.495   7.866   5.121  0.5612  0.1032  0.0525
  340MOL   Cl4541403   0.624   7.813   5.232  0.2532  0.0331 -0.5913
  340MOL   Cl4641404   0.523   7.756   4.973 -0.2303  0.0761 -0.3209
  340MOL    C4741405   0.352   7.828   5.167 -0.1775  0.7854  0.4754
  340MOL    H4841406   0.291   7.833   5.077  0.5864  0.7628 -0.0542
  340MOL    H4941407   0.362   7.722   5.189 -1.8375  0.1191 -1.7501
  340MOL    C5041408   0.271   7.887   5.290  0.3566  0.9592  0.2030
  340MOL   Cl5141409   0.224   8.055   5.262  0.3420 -0.2913 -0.1228
  340MOL   Cl5241410   0.371   7.877   5.437  0.4383  0.3783 -0.2074
  340MOL    C5341411   0.145   7.809   5.322 -0.2045 -0.4555  0.5662
  340MOL    H5441412   0.171   7.714   5.368  0.2810 -0.6061 -0.0109
  340MOL    H5541413   0.091   7.872   5.393  0.2220  1.0498 -0.4049
  340MOL    C5641414   0.044   7.777   5.211  0.3939  0.3142  0.4831
  340MOL   Cl5741415   0.107   7.648   5.096  0.0240 -0.5132  0.0045
  340MOL   Cl5841416   0.003   7.911   5.097 -0.4864  0.0960 -0.1297
  340MOL    C5941417   9.092   7.729   5.270  0.0483 -0.5046 -0.7224
  340MOL    H6041418   9.052   7.822   5.309 -1.5079 -1.2616 -0.4911
  340MOL    H6141419   9.022   7.706   5.189 -0.7652 -3.6735  0.8213
  340MOL    C6241420   9.068   7.622   5.381 -0.5155  0.0992  0.1845
  340MOL   Cl6341421   9.129   7.682   5.539  0.4424  0.3332 -0.2500
  340MOL   Cl6441422   9.164   7.475   5.339 -0.1360 -0.2866 -0.1991
  340MOL    C6541423   8.924   7.575   5.380 -0.6789  0.1723  0.4001
  340MOL    H6641424   8.908   7.542   5.277  0.0718 -0.3643  0.4523
  340MOL    H6741425   8.929   7.484   5.440  0.2594  0.5169  0.8504
  340MOL    C6841426   8.799   7.654   5.424 -0.3657  0.4142  0.5254
  340MOL   Cl6941427   8.778   7.805   5.338  0.2023 -0.2029 -0.3138
  340MOL   Cl7041428   8.816   7.704   5.597  0.1630 -0.0097 -0.2868
  340MOL    C7141429   8.668   7.569   5.430 -0.3141  0.5508 -0.1583
  340MOL    H7241430   8.680   7.495   5.510  1.6392  0.0059 -0.9133
  340MOL    H7341431   8.594   7.644   5.459 -0.1062  1.0084 -0.7985
  340MOL    C7441432   8.607   7.505   5.302 -0.3042  0.6258 -0.1495
  340MOL   Cl7541433   8.464   7.419   5.366  0.1848  0.1558  0.0611
  340MOL   Cl7641434   8.717   7.360   5.254 -0.4190 -0.1897 -0.2392
  340MOL    C7741435   8.578   7.600   5.187 -0.0859 -0.6498  0.7228
  340MOL    H7841436   8.513   7.677   5.228  1.1422  1.0780 -0.4823
  340MOL    H7941437   8.665   7.664   5.169  0.1868 -1.0920  0.4809
  340MOL    C8041438   8.537   7.553   5.046 -0.8845  0.2574  0.5121
  340MOL   Cl8141439   8.442   7.688   4.978 -0.0214  0.0079 -0.1778
  340MOL   Cl8241440   8.410   7.431   5.056 -0.2468 -0.0636 -0.2816
  340MOL    C8341441   8.648   7.506   4.941  0.7446  0.7084 -0.8045
  340MOL    H8441442   8.701   7.429   4.997 -0.0393  1.1205  0.5249
  340MOL    H8541443   8.594   7.452   4.863 -1.3137  0.9130  0.4483
  340MOL    C8641444   8.753   7.592   4.865 -0.8633  0.0451 -0.0327
  340MOL   Cl8741445   8.843   7.701   4.976  0.3209  0.0980  0.1590
  340MOL   Cl8841446   8.676   7.704   4.751  0.1043  0.1957 -0.0143
  340MOL    C8941447   8.857   7.497   4.787  0.9437  0.1532  0.8403
  340MOL    H9041448   8.797   7.450   4.709  0.8366 -1.4333  1.8580
  340MOL    H9141449   8.927   7.560   4.732 -2.3668  3.3790  0.1059
  340MOL    C9241450   8.932   7.385   4.846 -0.3325  0.4930  0.7114
  340MOL   Cl9341451   8.835   7.237   4.846  0.2453 -0.3084  0.2644
  340MOL   Cl9441452   8.979   7.427   5.018 -0.1225  0.1654  0.0936
  340MOL    C9541453   9.077   7.361   4.778  0.3252  0.1837 -0.0843
  340MOL    H9641454   9.129   7.457   4.775 -1.5442  1.3160  2.0002
  340MOL    H9741455   9.132   7.305   4.853  3.1848  1.5320 -1.0853
  340MOL    C9841456   9.080   7.281   4.639 -0.1874  0.6540  0.0365
  340MOL   Cl9941457   8.965   7.341   4.528  0.2364  0.4137  0.2881
  340MOL  Cl10041458   9.040   7.108   4.663  0.3055 -0.3852  0.3902
  340MOL   C10141459   0.037   7.283   4.560 -0.0735  0.8365 -0.0960
  340MOL   H10241460   0.090   7.189   4.572 -1.0837  0.1199 -1.1252
  340MOL   H10341461   9.179   7.278   4.458  0.7459 -3.2757 -0.2904
  340MOL   C10441462   0.135   7.397   4.579  0.7286 -0.1215  0.6834
  340MOL  Cl10541463   0.230   7.376   4.728 -0.0379 -0.0564 -0.1037
  340MOL  Cl10641464   0.048   7.558   4.575 -0.0605  0.1742  0.1461
  340MOL   C10741465   0.246   7.421   4.461  0.1953 -0.2972 -0.4182
  340MOL   H10841466   0.186   7.463   4.381 -0.1410  3.3919  1.6670
  340MOL   H10941467   0.305   7.508   4.491 -1.0590  1.7584 -3.7291
  340MOL   C11041468   0.337   7.306   4.409  0.4045  0.0463  0.7953
  340MOL  Cl11141469   0.428   7.381   4.283  0.0145 -0.4380  0.1255
  340MOL  Cl11241470   0.234   7.183   4.326  0.0407  0.4566 -0.2719
  340MOL   C11341471   0.424   7.232   4.513 -0.2474  0.9130  0.1455
  340MOL   H11441472   0.498   7.308   4.538  0.0133  0.1795  1.6438
  340MOL   H11541473   0.365   7.208   4.601 -1.8477 -1.8291 -1.6053
  340MOL   C11641474   0.503   7.106   4.479  0.3676  0.7007 -0.5793
  340MOL  Cl11741475   0.394   6.969   4.480  0.0280  0.2382 -0.5347
  340MOL  Cl11841476   0.623   7.085   4.610  0.4621  0.0769 -0.0772
  340MOL   C11941477   0.577   7.117   4.349 -0.4924  0.3296 -0.7498
  340MOL   H12041478   0.656   7.042   4.339  1.9279  2.6563  0.1264
  340MOL   H12141479   0.505   7.107   4.268 -1.0517  0.8250 -0.3128
  340MOL   H12241480   0.640   7.206   4.339  0.0016  0.2112  1.0395
  341MOL     C141481   1.004   1.567   1.254  0.3620  0.2516  0.3806
  341MOL    Cl241482   1.024   1.495   1.415 -0.1972 -0.3281  0.1514
  341MOL    Cl341483   1.074   1.730   1.258 -0.1703 -0.0161  0.0035
  341MOL     C441484   1.060   1.475   1.145  0.4431 -0.4153  0.3309
  341MOL     H541485   1.162   1.442   1.164  0.8759  0.4016 -0.5555
  341MOL     H641486   1.008   1.380   1.160  1.0349 -1.1273 -2.0217
  341MOL     H741487   0.896   1.569   1.245  0.4359  2.0665 -0.1578
  341MOL     C841488   1.042   1.505   0.997  0.2093 -0.5544 -0.3398
  341MOL    Cl941489   1.084   1.356   0.897  0.0408 -0.3302 -0.3118
  341MOL   Cl1041490   1.150   1.637   0.951  0.2704 -0.0282  0.3735
  341MOL    C1141491   0.891   1.556   0.979 -0.6301 -1.2240 -0.4637
  341MOL    H1241492   0.831   1.486   1.037 -1.5619 -0.3318 -0.3514
  341MOL    H1341493   0.880   1.648   1.036 -0.5557  0.4789 -3.1322
  341MOL    C1441494   0.818   1.564   0.841  0.1349 -0.3280 -0.4962
  341MOL   Cl1541495   0.648   1.617   0.874 -0.0238 -0.2500  0.2067
  341MOL   Cl1641496   0.800   1.400   0.772  0.3149  0.1757 -0.3422
  341MOL    C1741497   0.892   1.648   0.735 -0.0831 -0.1079 -0.2116
  341MOL    H1841498   0.897   1.743   0.787  0.4860 -0.2334 -0.0332
  341MOL    H1941499   0.994   1.609   0.735  0.8480  2.2402  1.7474
  341MOL    C2041500   0.847   1.667   0.588  0.5492 -0.0776 -0.2749
  341MOL   Cl2141501   0.678   1.720   0.592  0.1184 -0.3796 -0.2803
  341MOL   Cl2241502   0.859   1.524   0.501  0.1412 -0.1668  0.2582
  341MOL    C2341503   0.932   1.777   0.508 -0.3736 -0.6318  0.4398
  341MOL    H2441504   1.023   1.729   0.473 -0.9500 -0.9373 -0.6311
  341MOL    H2541505   0.866   1.792   0.423  2.9680  2.5404 -1.7508
  341MOL    C2641506   0.967   1.919   0.576  0.3738  0.5551 -0.2705
  341MOL   Cl2741507   1.123   1.906   0.665 -0.1049 -0.0229 -0.1092
  341MOL   Cl2841508   0.834   1.978   0.678 -0.2866 -0.3535  0.1451
  341MOL    C2941509   0.987   2.029   0.464  0.0666 -0.4617 -0.0541
  341MOL    H3041510   0.894   2.065   0.421 -1.2310 -1.4157  1.8973
  341MOL    H3141511   1.029   2.110   0.524  1.1374 -1.2609  0.3066
  341MOL    C3241512   1.078   2.011   0.334  0.4605  0.3841  0.6107
  341MOL   Cl3341513   1.117   2.178   0.285  0.1037  0.1444 -0.1420
  341MOL   Cl3441514   0.978   1.934   0.202  0.0063 -0.0313 -0.0912
  341MOL    C3541515   1.205   1.933   0.363  0.2797  0.4422  0.4653
  341MOL    H3641516   1.253   1.990   0.443 -2.8323  0.1492  2.6398
  341MOL    H3741517   1.183   1.844   0.423  2.3145 -1.2004 -1.1568
  341MOL    C3841518   1.294   1.892   0.242  0.0790  0.0023 -0.7517
  341MOL   Cl3941519   1.296   2.005   0.097  0.2887  0.5883 -0.2603
  341MOL   Cl4041520   1.240   1.728   0.194  0.3619  0.1746  0.0306
  341MOL    C4141521   1.443   1.873   0.270 -0.2145 -0.0432  0.6028
  341MOL    H4241522   1.446   1.779   0.326  1.2708 -0.5762 -0.3562
  341MOL    H4341523   1.492   1.842   0.178 -0.8867  0.2499  0.1352
  341MOL    C4441524   1.537   1.983   0.332 -0.3105 -0.3614  0.6672
  341MOL   Cl4541525   1.509   1.972   0.513  0.5888  0.4204  0.4037
  341MOL   Cl4641526   1.489   2.141   0.274  0.0105  0.3813  0.0395
  341MOL    C4741527   1.687   1.948   0.307 -0.5301 -0.0234  0.5645
  341MOL    H4841528   1.707   1.849   0.349  1.7323 -0.4050 -1.2833
  341MOL    H4941529   1.702   1.928   0.201 -0.0150 -0.5390  0.7301
  341MOL    C5041530   1.815   2.026   0.356  0.1835  0.0883 -0.3276
  341MOL   Cl5141531   1.958   1.946   0.283  0.1249  0.0111  0.2223
  341MOL   Cl5241532   1.823   2.000   0.526 -0.4216 -0.2065 -0.5124
  341MOL    C5341533   1.811   2.182   0.318  0.5226  0.1581  0.1153
  341MOL    H5441534   1.785   2.192   0.212  0.2771 -2.1882 -0.0632
  341MOL    H5541535   1.718   2.215   0.365  0.2273  0.3537 -0.5902
  341MOL    C5641536   1.922   2.281   0.350  0.7711  0.5639 -0.0635
  341MOL   Cl5741537   1.855   2.441   0.323  0.2943 -0.2782  0.5277
  341MOL   Cl5841538   2.060   2.261   0.238 -0.0655  0.5264  0.0967
  341MOL    C5941539   1.982   2.274   0.500 -0.0629 -0.0763 -0.4625
  341MOL    H6041540   1.898   2.273   0.570  0.8289 -1.9717  0.6386
  341MOL    H6141541   2.035   2.178   0.501  0.7109  0.3371  1.2562
  341MOL    C6241542   2.083   2.386   0.545 -0.5466  0.1186 -0.8767
  341MOL   Cl6341543   1.999   2.544   0.562  0.0007  0.0112  0.0910
  341MOL   Cl6441544   2.231   2.409   0.451 -0.7216  0.2478 -0.0781
  341MOL    C6541545   2.141   2.352   0.695  0.2453  0.6431  0.1675
  341MOL    H6641546   2.197   2.442   0.721 -1.9284  2.1575 -0.1687
  341MOL    H6741547   2.052   2.367   0.757 -0.3275  1.6031 -0.8429
  341MOL    C6841548   2.204   2.216   0.731  0.3969  0.5585 -0.6626
  341MOL   Cl6941549   2.297   2.139   0.596  0.2875  0.1821 -0.3602
  341MOL   Cl7041550   2.067   2.108   0.767 -0.2574 -0.0221  0.0100
  341MOL    C7141551   2.303   2.227   0.850  0.8035  0.3147 -0.1411
  341MOL    H7241552   2.321   2.125   0.882  1.0012  0.8431  1.4808
  341MOL    H7341553   2.395   2.264   0.805  1.2152 -2.2326 -1.5000
  341MOL    C7441554   2.261   2.302   0.983 -0.8884 -0.6478  0.0714
  341MOL   Cl7541555   2.091   2.278   1.028  0.0994  0.4853  0.2503
  341MOL   Cl7641556   2.281   2.480   0.965  0.1042  0.3201  0.0533
  341MOL    C7741557   2.349   2.267   1.108 -0.1456 -0.3478  0.1274
  341MOL    H7841558   2.438   2.329   1.118  0.1575 -0.8645  0.6398
  341MOL    H7941559   2.277   2.301   1.184  0.9409  1.3957  0.3973
  341MOL    C8041560   2.390   2.122   1.146  0.3504  0.4325  1.1666
  341MOL   Cl8141561   2.535   2.086   1.044  0.0929 -0.9012  0.4974
  341MOL   Cl8241562   2.260   2.006   1.114  0.5188  0.3007 -0.1123
  341MOL    C8341563   2.440   2.122   1.293 -0.7161  0.0799 -0.1811
  341MOL    H8441564   2.543   2.156   1.296 -1.2163  1.6763 -0.9318
  341MOL    H8541565   2.379   2.196   1.344 -2.2628 -1.5293  0.3479
  341MOL    C8641566   2.431   1.993   1.379  0.1970 -0.1663 -0.5071
  341MOL   Cl8741567   2.487   1.857   1.280 -0.2865 -0.1095  0.1997
  341MOL   Cl8841568   2.265   1.953   1.441 -0.3419 -0.1365  0.3255
  341MOL    C8941569   2.514   1.992   1.510  0.5765 -0.0019 -0.1796
  341MOL    H9041570   2.457   2.057   1.577 -3.2174 -2.0336 -1.2987
  341MOL    H9141571   2.509   1.894   1.557  0.2486  0.3163  0.4659
  341MOL    C9241572   2.661   2.035   1.517 -0.1108  0.8856 -0.3889
  341MOL   Cl9341573   2.713   1.986   1.684 -0.2477 -0.0156 -0.3087
  341MOL   Cl9441574   2.670   2.216   1.505 -0.2417  0.6769 -0.3405
  341MOL    C9541575   2.761   1.969   1.409  0.0796  0.2019  0.3320
  341MOL    H9641576   2.758   1.860   1.411 -3.5385  0.2462 -0.1410
  341MOL    H9741577   2.722   1.987   1.309 -0.1310  1.6432  0.6629
  341MOL    C9841578   2.910   2.023   1.407 -1.4900 -0.0854  0.3342
  341MOL   Cl9941579   2.989   1.995   1.570 -0.0420  0.2408  0.1613
  341MOL  Cl10041580   2.926   2.188   1.352  0.1686 -0.1024 -0.0737
  341MOL   C10141581   2.998   1.928   1.317  0.3904  0.1811 -0.2118
  341MOL   H10241582   3.097   1.975   1.326  0.5535 -0.4786  1.7860
  341MOL   H10341583   3.018   1.829   1.358 -2.3857 -2.6779 -5.3809
  341MOL   C10441584   2.960   1.903   1.168 -0.2433  0.1666 -0.0894
  341MOL  Cl10541585   2.868   2.034   1.094  0.0171 -0.3612  0.1260
  341MOL  Cl10641586   2.862   1.755   1.173  0.1699 -0.3283 -0.2100
  341MOL   C10741587   3.087   1.885   1.085  0.3783  0.5247 -0.8312
  341MOL   H10841588   3.117   1.986   1.056 -0.3187  0.9179 -0.2057
  341MOL   H10941589   3.166   1.846   1.148 -0.7082  0.7635  0.7043
  341MOL   C11041590   3.100   1.807   0.950 -0.2625 -0.2427  0.9937
  341MOL  Cl11141591   3.274   1.813   0.903 -0.1353 -0.2389 -0.1933
  341MOL  Cl11241592   2.988   1.886   0.835 -0.0315 -0.2663 -0.0554
  341MOL   C11341593   3.063   1.655   0.968  0.3964 -1.0141  0.8087
  341MOL   H11441594   3.098   1.622   1.066 -1.9445  1.4212  2.5537
  341MOL   H11541595   2.955   1.645   0.962  0.1082  1.7326  0.7374
  341MOL   C11641596   3.107   1.545   0.865 -0.6065 -0.2101 -0.4372
  341MOL  Cl11741597   3.272   1.495   0.889  0.2102 -0.0940  0.1871
  341MOL  Cl11841598   3.100   1.608   0.697 -0.1296  0.0035  0.3257
  341MOL   C11941599   3.023   1.415   0.878  0.5072 -0.9119  0.0708
  341MOL   H12041600   3.031   1.361   0.972  1.0269 -1.6367 -0.3777
  341MOL   H12141601   2.917   1.424   0.853  0.6166  0.9798  0.2558
  341MOL   H12241602   3.050   1.341   0.802 -1.1995 -1.1540 -0.3434
  342MOL     C141603   6.873   7.009   5.272 -0.2314  0.5319  0.2478
  342MOL    Cl241604   6.812   7.175   5.286 -0.4750  0.5639  0.2685
  342MOL    Cl341605   6.873   6.972   5.096  0.0074 -0.6514  0.0661
  342MOL     C441606   7.012   7.001   5.329 -0.2568 -0.3344 -0.2420
  342MOL     H541607   7.087   7.035   5.257 -1.3939  1.0254 -0.7946
  342MOL     H641608   7.015   7.065   5.416 -3.8238  0.5584 -0.7147
  342MOL     H741609   6.796   6.947   5.318  0.9333 -1.3268 -0.2783
  342MOL     C841610   7.050   6.855   5.383  0.0152 -0.0181 -0.5520
  342MOL    Cl941611   7.047   6.739   5.250  0.2751  0.0869 -0.1154
  342MOL   Cl1041612   6.933   6.804   5.505 -0.0349  0.0988 -0.0284
  342MOL    C1141613   7.202   6.838   5.426  0.0797 -0.1341  0.4625
  342MOL    H1241614   7.222   6.732   5.435 -1.6290 -0.7778 -2.5450
  342MOL    H1341615   7.260   6.872   5.341  0.4176  1.1140  1.1692
  342MOL    C1441616   7.254   6.909   5.550  0.5757  0.2444 -0.3174
  342MOL   Cl1541617   7.183   6.857   5.705  0.1322  0.0940 -0.0972
  342MOL   Cl1641618   7.231   7.084   5.538  0.3079  0.0569  0.1714
  342MOL    C1741619   7.408   6.903   5.569  0.0290 -0.0787 -0.1309
  342MOL    H1841620   7.452   6.953   5.483  2.0758 -1.6472 -0.0083
  342MOL    H1941621   7.421   6.963   5.659 -4.8282  1.8036 -0.4815
  342MOL    C2041622   7.497   6.780   5.571 -0.1164  0.9675  0.6764
  342MOL   Cl2141623   7.492   6.698   5.415 -0.2149 -0.3106  0.0892
  342MOL   Cl2241624   7.424   6.663   5.683  0.0282 -0.4034 -0.1603
  342MOL    C2341625   7.642   6.799   5.614 -0.4872  0.2019  0.1654
  342MOL    H2441626   7.637   6.816   5.721 -2.0516 -0.8575  0.2666
  342MOL    H2541627   7.699   6.706   5.603  1.4412  1.4137 -0.3849
  342MOL    C2641628   7.728   6.915   5.551 -0.8215  0.1877  0.3741
  342MOL   Cl2741629   7.867   6.930   5.663 -0.1585  0.0378 -0.2972
  342MOL   Cl2841630   7.657   7.075   5.580  0.1418 -0.2837  0.6612
  342MOL    C2941631   7.778   6.902   5.400 -0.1582  0.0502  0.0313
  342MOL    H3041632   7.694   6.863   5.342  0.7738  1.6618 -2.5037
  342MOL    H3141633   7.793   7.006   5.368 -2.4156 -0.0505 -1.5250
  342MOL    C3241634   7.910   6.820   5.358 -0.0747 -0.0383  0.6617
  342MOL   Cl3341635   7.901   6.663   5.434  0.5340 -0.1734 -0.1471
  342MOL   Cl3441636   8.055   6.902   5.417 -0.1899 -0.1219  0.1902
  342MOL    C3541637   7.929   6.780   5.210  0.2299  0.2531  0.7842
  342MOL    H3641638   8.016   6.717   5.192 -1.4082 -1.7059 -0.4706
  342MOL    H3741639   7.847   6.714   5.183  2.8836 -3.0647  0.5692
  342MOL    C3841640   7.938   6.884   5.091 -0.2481  0.3744 -0.3550
  342MOL   Cl3941641   8.074   6.993   5.118  0.2777  0.1070  0.3284
  342MOL   Cl4041642   7.796   6.992   5.101 -0.4781  0.0834  0.3467
  342MOL    C4141643   7.960   6.828   4.955 -0.4039 -0.9790  0.3287
  342MOL    H4241644   7.954   6.914   4.888  2.7714  0.2629  1.5668
  342MOL    H4341645   8.066   6.813   4.934 -0.7906 -2.0147 -0.9607
  342MOL    C4441646   7.865   6.717   4.897 -0.2019 -0.2521  0.1759
  342MOL   Cl4541647   7.696   6.737   4.953 -0.2836 -0.3057  0.2065
  342MOL   Cl4641648   7.941   6.571   4.972 -0.1211  0.1483  0.2875
  342MOL    C4741649   7.875   6.710   4.737  0.1604 -0.0367 -0.8623
  342MOL    H4841650   7.870   6.810   4.693  0.3024 -0.2364 -1.3459
  342MOL    H4941651   7.979   6.681   4.718  1.3694  2.8225  1.1186
  342MOL    C5041652   7.783   6.615   4.651  0.1856 -0.1705  0.5411
  342MOL   Cl5141653   7.847   6.614   4.481 -0.1576  0.2112 -0.4944
  342MOL   Cl5241654   7.622   6.679   4.643 -0.2926  0.0805  0.1003
  342MOL    C5341655   7.784   6.464   4.704  0.0450  0.3240  0.1919
  342MOL    H5441656   7.882   6.420   4.683  0.3930  1.6882 -1.1693
  342MOL    H5541657   7.774   6.472   4.812 -0.5214 -1.4251  0.2907
  342MOL    C5641658   7.668   6.365   4.654  0.4623  0.4058 -0.0548
  342MOL   Cl5741659   7.525   6.399   4.753  0.1815 -0.2610 -0.0278
  342MOL   Cl5841660   7.727   6.207   4.705  0.1541  0.0760 -0.0912
  342MOL    C5941661   7.643   6.369   4.500 -0.0070  0.8916  0.8034
  342MOL    H6041662   7.610   6.466   4.461 -2.1534  0.3067  1.0936
  342MOL    H6141663   7.737   6.351   4.447 -1.3119  0.9617 -1.6227
  342MOL    C6241664   7.540   6.267   4.429  0.7741 -0.0073  0.2683
  342MOL   Cl6341665   7.611   6.102   4.434  0.1000  0.3974  0.4684
  342MOL   Cl6441666   7.533   6.328   4.261  0.0033 -0.1973 -0.1409
  342MOL    C6541667   7.395   6.267   4.479 -0.7757 -0.0295 -0.0364
  342MOL    H6641668   7.398   6.237   4.584 -1.2096 -0.2765 -0.0933
  342MOL    H6741669   7.369   6.372   4.466  1.9822  0.7931  0.7398
  342MOL    C6841670   7.286   6.175   4.426 -0.1777 -0.2154 -0.0639
  342MOL   Cl6941671   7.134   6.272   4.433 -0.2299 -0.1264 -0.1914
  342MOL   Cl7041672   7.260   6.031   4.529 -0.1222  0.2705 -0.2236
  342MOL    C7141673   7.293   6.129   4.274 -0.4124  0.2520  0.1563
  342MOL    H7241674   7.277   6.224   4.223 -0.1800  0.9672  1.3727
  342MOL    H7341675   7.395   6.103   4.245  0.7573  1.5001  2.9111
  342MOL    C7441676   7.191   6.030   4.212  0.6111 -0.0967 -0.0405
  342MOL   Cl7541677   7.262   5.871   4.255 -0.3689  0.2144  0.3068
  342MOL   Cl7641678   7.215   6.052   4.033 -0.4233 -0.1591  0.3519
  342MOL    C7741679   7.040   6.040   4.243 -0.2568 -0.0754  0.5543
  342MOL    H7841680   7.032   6.030   4.352 -1.2126  3.3156  0.8644
  342MOL    H7941681   6.997   6.134   4.209  0.8889  0.4826  0.6429
  342MOL    C8041682   6.940   5.930   4.205 -0.3971  0.2403 -0.0605
  342MOL   Cl8141683   6.983   5.777   4.280  0.0747  0.0036  0.2827
  342MOL   Cl8241684   6.926   5.909   4.028 -0.2277  0.5105 -0.2663
  342MOL    C8341685   6.804   5.976   4.260 -0.3283 -0.6094 -0.2531
  342MOL    H8441686   6.825   6.029   4.353  0.4031 -1.2315 -0.0617
  342MOL    H8541687   6.766   6.058   4.200  1.0796  0.8855  0.8612
  342MOL    C8641688   6.688   5.878   4.285 -1.3810  0.0773  0.7291
  342MOL   Cl8741689   6.554   5.980   4.319  0.1427  0.0238  0.3942
  342MOL   Cl8841690   6.720   5.789   4.432 -0.0361 -0.0152  0.0904
  342MOL    C8941691   6.663   5.777   4.164  0.1372  0.0056  1.2488
  342MOL    H9041692   6.662   5.844   4.079  0.4058 -2.3648 -0.6767
  342MOL    H9141693   6.754   5.719   4.147  0.1462  0.4988 -0.4490
  342MOL    C9241694   6.538   5.685   4.154 -0.5547 -0.0265 -0.5858
  342MOL   Cl9341695   6.398   5.771   4.093  0.5810  0.1636 -0.1102
  342MOL   Cl9441696   6.474   5.619   4.314  0.1568  0.1959  0.2448
  342MOL    C9541697   6.566   5.564   4.062  0.4114 -0.0870 -0.6205
  342MOL    H9641698   6.596   5.490   4.136  1.2219  1.4609  0.6514
  342MOL    H9741699   6.466   5.534   4.033  0.6203 -1.0771 -0.3377
  342MOL    C9841700   6.657   5.562   3.925  0.1054 -0.0696 -0.0781
  342MOL   Cl9941701   6.833   5.526   3.970  0.0090  0.1901  0.2703
  342MOL  Cl10041702   6.658   5.719   3.842  0.4917  0.1070 -0.2344
  342MOL   C10141703   6.610   5.451   3.823  0.4978 -0.1334 -0.5412
  342MOL   H10241704   6.520   5.491   3.775  0.2826 -0.7428 -0.6500
  342MOL   H10341705   6.682   5.448   3.741  1.6083 -0.1409  0.4286
  342MOL   C10441706   6.585   5.301   3.847 -0.6273 -0.7205  0.4258
  342MOL  Cl10541707   6.541   5.228   3.693  0.0077  0.0907  0.1557
  342MOL  Cl10641708   6.457   5.271   3.964  0.0291 -0.0858  0.2811
  342MOL   C10741709   6.724   5.235   3.897  0.2768  0.0472  0.6605
  342MOL   H10841710   6.800   5.288   3.839  1.9758 -0.2299  2.5711
  342MOL   H10941711   6.726   5.253   4.005 -1.8528  0.0758  0.7201
  342MOL   C11041712   6.758   5.082   3.884 -0.3505 -0.3943  0.1663
  342MOL  Cl11141713   6.621   4.983   3.919  0.4660 -0.2157 -0.1739
  342MOL  Cl11241714   6.872   5.047   4.014 -0.2267 -0.2856 -0.1488
  342MOL   C11341715   6.820   5.049   3.742  0.6325  0.1037 -0.8760
  342MOL   H11441716   6.812   4.940   3.732 -1.6427  0.3301 -1.8031
  342MOL   H11541717   6.749   5.092   3.671  0.1886  1.5666  0.4542
  342MOL   C11641718   6.971   5.088   3.706 -0.6384  0.8553 -0.2046
  342MOL  Cl11741719   7.083   4.967   3.780 -0.1462  0.1396 -0.1379
  342MOL  Cl11841720   7.032   5.245   3.766  0.6438  0.0192 -0.3109
  342MOL   C11941721   7.005   5.075   3.559  0.2104  0.8193 -0.1014
  342MOL   H12041722   6.967   4.986   3.509 -2.6914  1.1087  1.4946
  342MOL   H12141723   6.949   5.150   3.503 -0.3381 -1.2078 -2.3588
  342MOL   H12241724   7.113   5.092   3.550  0.1062  1.7654  0.3744
  343MOL     C141725   3.478   8.441   7.267  0.2445 -0.3317  0.3937
  343MOL    Cl241726   3.553   8.596   7.236 -0.1720 -0.1080  0.0068
  343MOL    Cl341727   3.560   8.312   7.172  0.5604  0.4129  0.2506
  343MOL     C441728   3.472   8.399   7.418  0.6470  0.1395 -0.7528
  343MOL     H541729   3.441   8.294   7.410  2.0952 -0.4291  0.7862
  343MOL     H641730   3.576   8.396   7.452  0.4297  0.7070 -0.0502
  343MOL     H741731   3.377   8.441   7.225  0.9398 -1.1068 -1.3217
  343MOL     C841732   3.391   8.478   7.520 -0.2417 -0.0066  0.1011
  343MOL    Cl941733   3.217   8.501   7.457  0.4374  0.0330  0.3877
  343MOL   Cl1041734   3.471   8.636   7.549  0.4987  0.0633  0.2581
  343MOL    C1141735   3.367   8.413   7.655 -0.0177  0.1744 -0.0318
  343MOL    H1241736   3.331   8.493   7.719  1.0273 -1.7478  3.0674
  343MOL    H1341737   3.280   8.348   7.646  0.1646 -0.8436  4.5654
  343MOL    C1441738   3.488   8.338   7.730 -0.0116  0.2285 -0.3687
  343MOL   Cl1541739   3.638   8.435   7.723 -0.1868 -0.0347 -0.0761
  343MOL   Cl1641740   3.526   8.176   7.650 -0.1461 -0.0857 -0.6154
  343MOL    C1741741   3.459   8.318   7.883  0.0641 -0.4314 -0.1707
  343MOL    H1841742   3.556   8.303   7.929 -1.0429 -1.3670  1.9108
  343MOL    H1941743   3.427   8.421   7.903 -3.4814 -1.1785 -1.5521
  343MOL    C2041744   3.356   8.213   7.942 -0.6051 -0.2464  0.1634
  343MOL   Cl2141745   3.441   8.053   7.925 -0.2168  0.3891  0.5310
  343MOL   Cl2241746   3.198   8.205   7.856  0.0102 -0.0900  0.1767
  343MOL    C2341747   3.321   8.225   8.096  0.1799  0.2115 -0.0698
  343MOL    H2441748   3.230   8.169   8.117 -0.0954  0.0676 -1.6066
  343MOL    H2541749   3.400   8.185   8.158 -0.4152 -0.6959  0.1035
  343MOL    C2641750   3.287   8.367   8.156 -1.1711 -0.2578 -0.2107
  343MOL   Cl2741751   3.184   8.457   8.040  0.4614  0.3027  0.1051
  343MOL   Cl2841752   3.442   8.456   8.173 -0.1368  0.0132 -0.4804
  343MOL    C2941753   3.212   8.382   8.290  0.1070 -0.4196  0.4046
  343MOL    H3041754   3.219   8.487   8.319  0.3219 -0.5026  0.6613
  343MOL    H3141755   3.107   8.357   8.275  0.2036 -0.0126 -1.0602
  343MOL    C3241756   3.241   8.287   8.412  0.3444 -0.8878  0.5071
  343MOL   Cl3341757   3.172   8.381   8.553  0.2723  0.0545 -0.2698
  343MOL   Cl3441758   3.419   8.272   8.437 -0.2458 -0.2904  0.3847
  343MOL    C3541759   3.177   8.144   8.411  0.3281 -0.2753 -0.3001
  343MOL    H3641760   3.082   8.147   8.356  0.4043  0.2795 -0.4061
  343MOL    H3741761   3.234   8.081   8.343  0.0443  0.0298 -0.8281
  343MOL    C3841762   3.153   8.065   8.544 -0.0742 -0.2847 -0.0194
  343MOL   Cl3941763   3.013   8.126   8.633  0.0404  0.5643 -0.3169
  343MOL   Cl4041764   3.295   8.085   8.655  0.1361  0.2141 -0.0095
  343MOL    C4141765   3.150   7.906   8.529 -0.6738 -0.2165 -0.5724
  343MOL    H4241766   3.242   7.877   8.478 -0.4500 -0.6665  0.0812
  343MOL    H4341767   3.150   7.878   8.634 -0.6382  1.3317 -0.1520
  343MOL    C4441768   3.039   7.822   8.466 -0.6238  1.2248  0.2676
  343MOL   Cl4541769   3.007   7.882   8.305  0.3817  0.4005 -0.1530
  343MOL   Cl4641770   2.898   7.857   8.566  0.3158  0.1309  0.0574
  343MOL    C4741771   3.073   7.671   8.447 -0.3950 -0.0143 -0.7473
  343MOL    H4841772   2.980   7.625   8.414 -0.5742 -0.0413 -0.2103
  343MOL    H4941773   3.154   7.656   8.376 -1.1473  0.3978 -1.6928
  343MOL    C5041774   3.118   7.590   8.574  0.0894 -0.6343  0.3797
  343MOL   Cl5141775   2.998   7.599   8.713  0.0002  0.3518 -0.0321
  343MOL   Cl5241776   3.272   7.647   8.643  0.0234  0.5006 -0.0414
  343MOL    C5341777   3.147   7.439   8.541  0.1735 -0.0188  0.2775
  343MOL    H5441778   3.235   7.428   8.478 -0.8351 -0.4619 -1.0781
  343MOL    H5541779   3.165   7.398   8.641 -1.9597 -1.0046  0.2736
  343MOL    C5641780   3.036   7.339   8.487 -0.2580  0.7157  0.8385
  343MOL   Cl5741781   2.993   7.351   8.315 -0.5232  0.3285 -0.5047
  343MOL   Cl5841782   2.891   7.324   8.584 -0.2208  0.5969 -0.4265
  343MOL    C5941783   3.109   7.193   8.503  0.3552  0.5204  0.4804
  343MOL    H6041784   3.216   7.212   8.512  0.0983  1.4002  1.8621
  343MOL    H6141785   3.078   7.172   8.606  0.2500  0.2221  0.3880
  343MOL    C6241786   3.078   7.061   8.416 -0.1504 -0.1991  0.2891
  343MOL   Cl6341787   3.161   6.928   8.510  0.1268  0.1400 -0.3652
  343MOL   Cl6441788   3.148   7.075   8.248  0.1116 -0.0037 -0.0082
  343MOL    C6541789   2.918   7.024   8.401  0.5399  0.3144 -0.2105
  343MOL    H6641790   2.889   6.989   8.500  1.5391 -1.5453 -0.5436
  343MOL    H6741791   2.862   7.117   8.385 -2.2817 -1.1990  0.6243
  343MOL    C6841792   2.870   6.927   8.291  0.3812  0.0042  0.5978
  343MOL   Cl6941793   2.987   6.798   8.261 -0.2743  0.0214 -0.4831
  343MOL   Cl7041794   2.863   7.013   8.132 -0.0303 -0.0111  0.1122
  343MOL    C7141795   2.739   6.857   8.326 -0.1817  0.0259  0.3224
  343MOL    H7241796   2.721   6.803   8.233 -3.2077  0.1498  0.7690
  343MOL    H7341797   2.764   6.787   8.405  2.5245 -0.1106 -0.6250
  343MOL    C7441798   2.613   6.940   8.361 -0.1985  0.5608 -0.0109
  343MOL   Cl7541799   2.586   7.066   8.232 -0.3462 -0.4515 -0.2303
  343MOL   Cl7641800   2.631   7.023   8.515  0.2706 -0.3628 -0.1167
  343MOL    C7741801   2.488   6.861   8.355 -0.0215  0.6170  0.4598
  343MOL    H7841802   2.410   6.933   8.379 -0.6687 -0.8375  2.8548
  343MOL    H7941803   2.478   6.846   8.247 -1.0172  2.0563  0.3325
  343MOL    C8041804   2.465   6.731   8.429  0.4929 -0.1524 -0.2559
  343MOL   Cl8141805   2.514   6.757   8.597 -0.1480  0.3537 -0.1516
  343MOL   Cl8241806   2.562   6.593   8.369 -0.2713 -0.1834 -0.2921
  343MOL    C8341807   2.318   6.672   8.436 -0.1775 -0.0242 -0.0763
  343MOL    H8441808   2.326   6.598   8.516 -1.9381  0.0455  0.1792
  343MOL    H8541809   2.256   6.750   8.481 -1.9744 -0.9538 -0.9141
  343MOL    C8641810   2.237   6.620   8.316 -0.6136 -0.8800 -0.0232
  343MOL   Cl8741811   2.216   6.763   8.204 -0.1855 -0.1542 -0.2060
  343MOL   Cl8841812   2.082   6.571   8.381  0.3689  0.2404 -0.0679
  343MOL    C8941813   2.298   6.502   8.237  0.4460 -1.2901 -0.5351
  343MOL    H9041814   2.383   6.529   8.175 -0.8484 -0.7763 -2.1160
  343MOL    H9141815   2.346   6.435   8.308  0.4331 -0.6676  0.0666
  343MOL    C9241816   2.209   6.411   8.142  0.1786  0.0763 -0.4044
  343MOL   Cl9341817   2.092   6.507   8.047  0.6812  0.1389  0.3535
  343MOL   Cl9441818   2.111   6.292   8.230 -0.3343 -0.1598  0.1252
  343MOL    C9541819   2.282   6.322   8.042  0.6649  0.4583  0.0405
  343MOL    H9641820   2.307   6.230   8.096  2.3289  1.5532  1.1579
  343MOL    H9741821   2.208   6.295   7.967  1.9162 -0.8916 -0.7462
  343MOL    C9841822   2.417   6.371   7.977 -0.2536  0.6876 -0.1136
  343MOL   Cl9941823   2.434   6.253   7.846 -0.0799 -0.1420  0.2466
  343MOL  Cl10041824   2.558   6.361   8.088  0.2808 -0.1434 -0.1639
  343MOL   C10141825   2.394   6.514   7.913 -0.2456 -0.5325 -0.0676
  343MOL   H10241826   2.323   6.490   7.835  0.7267 -2.9638 -0.2514
  343MOL   H10341827   2.346   6.582   7.984  0.5785  0.1454 -0.1524
  343MOL   C10441828   2.520   6.601   7.875  0.9999 -0.1879 -0.7340
  343MOL  Cl10541829   2.597   6.650   8.033  0.4447  0.0986 -0.1767
  343MOL  Cl10641830   2.459   6.754   7.793 -0.1919  0.0140 -0.0472
  343MOL   C10741831   2.610   6.523   7.787  0.9828 -0.3504  0.4368
  343MOL   H10841832   2.622   6.427   7.836 -1.4137 -0.3231  1.1546
  343MOL   H10941833   2.552   6.515   7.695  1.5137  0.1692  0.0490
  343MOL   C11041834   2.757   6.576   7.773 -0.1290 -0.0083  0.4027
  343MOL  Cl11141835   2.817   6.485   7.624 -0.3482 -0.0820  0.0384
  343MOL  Cl11241836   2.858   6.515   7.907  0.2997 -0.2930  0.2222
  343MOL   C11341837   2.777   6.733   7.765  0.3272  0.2715  0.2308
  343MOL   H11441838   2.716   6.762   7.680 -1.1967  0.8819  1.4912
  343MOL   H11541839   2.728   6.782   7.850  1.7478  1.3828  0.4219
  343MOL   C11641840   2.905   6.810   7.746 -0.2649  0.1919  0.2693
  343MOL  Cl11741841   3.013   6.808   7.884 -0.1251  0.4634  0.0776
  343MOL  Cl11841842   2.858   6.977   7.730  0.1521  0.1845 -0.1093
  343MOL   C11941843   2.978   6.773   7.615 -0.1261 -0.5759  0.0484
  343MOL   H12041844   3.019   6.672   7.610  0.5636 -0.3019  0.0268
  343MOL   H12141845   2.926   6.796   7.522 -0.6693 -2.0047 -0.0183
  343MOL   H12241846   3.072   6.828   7.610  1.7390 -3.5899  0.8897
  344MOL     C141847   4.521   4.484   2.362  0.3566 -0.1781  0.2737
  344MOL    Cl241848   4.357   4.496   2.313  0.4179  0.2236  0.0434
  344MOL    Cl341849   4.575   4.639   2.429  0.5252  0.0135 -0.1735
  344MOL     C441850   4.529   4.367   2.463  0.2289 -0.1718 -0.2094
  344MOL     H541851   4.457   4.364   2.545 -0.2927 -1.7280 -0.7082
  344MOL     H641852   4.502   4.280   2.403 -0.1352  0.8536 -1.5386
  344MOL     H741853   4.573   4.462   2.269 -0.7433  0.0270 -0.3890
  344MOL     C841854   4.668   4.330   2.532  0.3470 -0.3918 -0.5488
  344MOL    Cl941855   4.686   4.437   2.679  0.0249 -0.1510  0.1319
  344MOL   Cl1041856   4.805   4.360   2.418 -0.0785  0.1095  0.2894
  344MOL    C1141857   4.671   4.188   2.571 -0.8080  0.5120  0.4082
  344MOL    H1241858   4.571   4.175   2.611 -0.8895  0.3250  0.1484
  344MOL    H1341859   4.681   4.128   2.480 -3.1192  1.0221 -0.2048
  344MOL    C1441860   4.778   4.134   2.676  0.0178  0.4174  0.0631
  344MOL   Cl1541861   4.777   3.960   2.654 -0.2973 -0.2463 -0.0530
  344MOL   Cl1641862   4.701   4.154   2.839  0.2929  0.5866 -0.1395
  344MOL    C1741863   4.924   4.193   2.669  0.8799 -0.4419  0.3525
  344MOL    H1841864   4.967   4.190   2.568  0.1174  0.4165 -0.0061
  344MOL    H1941865   4.927   4.299   2.693  1.0290 -0.1244 -1.0139
  344MOL    C2041866   5.038   4.144   2.768 -0.8672 -0.2410  0.0433
  344MOL   Cl2141867   4.984   4.144   2.934 -0.1429  0.4390 -0.0863
  344MOL   Cl2241868   5.168   4.263   2.761  0.0339  0.1856  0.2364
  344MOL    C2341869   5.089   3.995   2.723  0.6251  0.4888  0.2358
  344MOL    H2441870   5.016   3.923   2.760 -0.9064  2.6206  1.4503
  344MOL    H2541871   5.075   3.988   2.615  0.4516  0.2785  0.2735
  344MOL    C2641872   5.239   3.944   2.754  0.2303 -0.3533 -0.0599
  344MOL   Cl2741873   5.350   4.040   2.655  0.4706 -0.2642  0.1897
  344MOL   Cl2841874   5.251   3.773   2.705 -0.2634 -0.1755 -0.1980
  344MOL    C2941875   5.269   3.963   2.910 -0.1755  1.0749  0.4745
  344MOL    H3041876   5.279   4.071   2.923  0.7387  0.9912  0.4796
  344MOL    H3141877   5.181   3.937   2.969 -0.8588  0.0984 -0.9387
  344MOL    C3241878   5.399   3.900   2.971  0.1217  1.0406  0.6364
  344MOL   Cl3341879   5.533   3.919   2.864 -0.1309 -0.4832 -0.5832
  344MOL   Cl3441880   5.372   3.722   2.996 -0.0511  0.3590  0.1068
  344MOL    C3541881   5.432   3.961   3.115  0.3402  0.7044  0.5202
  344MOL    H3641882   5.384   3.908   3.197 -1.6622 -1.9734 -2.2533
  344MOL    H3741883   5.532   3.930   3.148 -0.2606 -0.6042  1.1495
  344MOL    C3841884   5.420   4.111   3.143 -0.2841 -0.2321  1.2067
  344MOL   Cl3941885   5.242   4.146   3.160  0.1057 -0.6590 -0.0333
  344MOL   Cl4041886   5.475   4.195   2.997 -0.0637  0.4027 -0.1279
  344MOL    C4141887   5.509   4.163   3.261 -0.0651  0.2157  0.1140
  344MOL    H4241888   5.503   4.091   3.343  0.1915 -1.6962 -1.4976
  344MOL    H4341889   5.610   4.138   3.227  0.6373  0.9930  1.5771
  344MOL    C4441890   5.510   4.301   3.316 -0.3787 -0.1154 -0.1968
  344MOL   Cl4541891   5.361   4.341   3.408 -0.3706  0.4112  0.2482
  344MOL   Cl4641892   5.533   4.419   3.187  0.1895 -0.0873  0.3222
  344MOL    C4741893   5.623   4.328   3.419  0.3843 -0.0561 -0.4328
  344MOL    H4841894   5.614   4.430   3.454 -0.2775 -1.0182  2.3902
  344MOL    H4941895   5.593   4.278   3.512 -2.4112 -0.2037 -1.3636
  344MOL    C5041896   5.773   4.304   3.389 -0.7978  0.1621  0.3072
  344MOL   Cl5141897   5.803   4.128   3.380 -0.1363  0.2919 -0.0156
  344MOL   Cl5241898   5.858   4.363   3.534  0.3129  0.0526 -0.0012
  344MOL    C5341899   5.818   4.372   3.252 -0.1426 -0.5315  0.6482
  344MOL    H5441900   5.773   4.312   3.173 -1.5285  1.7360 -0.3365
  344MOL    H5541901   5.783   4.474   3.238 -2.2953 -1.4697 -1.2329
  344MOL    C5641902   5.978   4.389   3.221 -0.0336 -0.1425  0.0916
  344MOL   Cl5741903   6.055   4.229   3.238  0.1329  0.1617 -0.3719
  344MOL   Cl5841904   6.066   4.499   3.326  0.0854 -0.2466  0.0052
  344MOL    C5941905   6.009   4.437   3.072  0.7181 -0.6994  0.1651
  344MOL    H6041906   6.115   4.462   3.081  1.1490 -2.6127  0.6454
  344MOL    H6141907   6.001   4.347   3.011 -0.4382 -0.3856 -0.1597
  344MOL    C6241908   5.949   4.559   3.003 -0.3885 -0.3770  0.3116
  344MOL   Cl6341909   5.974   4.702   3.107  0.2260 -0.4935 -0.1664
  344MOL   Cl6441910   5.776   4.521   2.974  0.5704  0.4253 -0.3604
  344MOL    C6541911   6.023   4.561   2.865  0.3560  0.5011 -0.0162
  344MOL    H6641912   6.125   4.524   2.873  1.0331  2.0070 -1.3270
  344MOL    H6741913   5.962   4.484   2.818  1.5863  1.5072 -3.3634
  344MOL    C6841914   6.017   4.692   2.777  0.1407  0.1433 -0.0936
  344MOL   Cl6941915   5.856   4.743   2.749  0.1483 -0.4513  0.1910
  344MOL   Cl7041916   6.067   4.646   2.609  0.0238 -0.0749  0.3062
  344MOL    C7141917   6.105   4.816   2.818 -0.2489  0.9716  0.0327
  344MOL    H7241918   6.094   4.878   2.729  2.0244 -0.5855 -1.3790
  344MOL    H7341919   6.058   4.866   2.903  0.0593  1.1270  0.1127
  344MOL    C7441920   6.260   4.826   2.837 -0.3847 -0.1100  0.0702
  344MOL   Cl7541921   6.279   4.734   2.988  0.3875  0.0874  0.2681
  344MOL   Cl7641922   6.300   5.001   2.867  0.0752 -0.0682  0.1386
  344MOL    C7741923   6.342   4.755   2.726  0.0933  0.0369 -0.1979
  344MOL    H7841924   6.317   4.649   2.728 -0.6755  0.1649 -1.8055
  344MOL    H7941925   6.295   4.786   2.633  0.6277  1.1933 -0.0929
  344MOL    C8041926   6.500   4.770   2.713  0.7535 -0.3119 -0.4260
  344MOL   Cl8141927   6.527   4.926   2.635  0.2583 -0.6239 -0.4505
  344MOL   Cl8241928   6.559   4.649   2.583 -0.8494 -0.1905 -0.5287
  344MOL    C8341929   6.575   4.758   2.852 -0.6581 -0.1054 -0.1185
  344MOL    H8441930   6.563   4.857   2.897  2.5958  0.0994  0.4643
  344MOL    H8541931   6.528   4.678   2.909 -2.0912  0.0648 -1.0584
  344MOL    C8641932   6.729   4.729   2.859 -0.7605  0.1530 -0.0148
  344MOL   Cl8741933   6.808   4.819   2.722 -0.5293 -0.4713 -0.1540
  344MOL   Cl8841934   6.775   4.551   2.846 -0.1595  0.2769 -0.2387
  344MOL    C8941935   6.798   4.783   2.989  0.3771 -0.2927 -0.3202
  344MOL    H9041936   6.899   4.754   2.962  0.3306 -0.6457 -0.1136
  344MOL    H9141937   6.806   4.892   2.980  1.4392 -0.3264  0.2748
  344MOL    C9241938   6.752   4.755   3.134  0.0139  0.3752 -0.0736
  344MOL   Cl9341939   6.599   4.842   3.162 -0.3111  0.2359  0.1003
  344MOL   Cl9441940   6.877   4.824   3.249 -0.1933 -0.5393 -0.1002
  344MOL    C9541941   6.729   4.609   3.166  0.8414  0.3828  0.0250
  344MOL    H9641942   6.646   4.586   3.099  0.8661  2.6087 -0.7890
  344MOL    H9741943   6.812   4.548   3.130  1.0051 -0.6976  2.1520
  344MOL    C9841944   6.711   4.552   3.308 -0.5431 -0.1751  0.7210
  344MOL   Cl9941945   6.612   4.653   3.409  0.0379 -0.2717 -0.1790
  344MOL  Cl10041946   6.876   4.548   3.387 -0.1798  0.6235  0.1551
  344MOL   C10141947   6.654   4.408   3.317 -0.2651 -0.2279  0.1233
  344MOL   H10241948   6.741   4.343   3.314  0.4367  0.6558  0.8439
  344MOL   H10341949   6.614   4.417   3.418 -2.7380  1.7635 -0.9794
  344MOL   C10441950   6.533   4.356   3.233 -0.1094  0.0601 -0.4410
  344MOL  Cl10541951   6.589   4.318   3.066  0.1836  0.2297 -0.0467
  344MOL  Cl10641952   6.404   4.482   3.205 -0.0211  0.0557 -0.0580
  344MOL   C10741953   6.465   4.225   3.289  0.8329  0.2148  1.0252
  344MOL   H10841954   6.373   4.220   3.230  0.7284  2.3452  0.9780
  344MOL   H10941955   6.523   4.140   3.253  0.9286  1.4676 -1.9323
  344MOL   C11041956   6.427   4.215   3.435  0.5333  0.5333 -0.0631
  344MOL  Cl11141957   6.577   4.161   3.522  0.1019  0.0185  0.2444
  344MOL  Cl11241958   6.305   4.084   3.442 -0.0893  0.0649 -0.1844
  344MOL   C11341959   6.359   4.343   3.502 -0.4295 -0.1617  0.1535
  344MOL   H11441960   6.413   4.430   3.464 -2.0579 -0.1859 -2.3129
  344MOL   H11541961   6.257   4.348   3.464  0.6108 -0.5237 -2.7498
  344MOL   C11641962   6.353   4.356   3.659  0.6061  0.9938  0.4265
  344MOL  Cl11741963   6.225   4.490   3.700 -0.1988 -0.2182  0.1709
  344MOL  Cl11841964   6.515   4.403   3.719  0.2537  0.1517  0.3552
  344MOL   C11941965   6.307   4.233   3.733 -0.0510  0.1236  0.1316
  344MOL   H12041966   6.217   4.189   3.690 -0.6843  1.6970 -0.1713
  344MOL   H12141967   6.384   4.161   3.709  1.4581  1.5836  0.5153
  344MOL   H12241968   6.305   4.251   3.841  2.2174 -0.9892  0.3746
  345MOL     C141969   6.266   4.421   0.445 -0.1074 -0.4314  0.4853
  345MOL    Cl241970   6.356   4.289   0.360  0.2608 -0.0387 -0.3380
  345MOL    Cl341971   6.268   4.382   0.622  0.0716  0.2028 -0.4035
  345MOL     C441972   6.333   4.559   0.415  0.4249  0.1187  0.2355
  345MOL     H541973   6.436   4.562   0.451  1.4582 -0.4536 -2.5182
  345MOL     H641974   6.337   4.556   0.306  1.9852 -2.9496  0.3252
  345MOL     H741975   6.168   4.418   0.399 -0.3621 -1.7414  1.0897
  345MOL     C841976   6.262   4.692   0.468 -0.7108  0.6176  0.1611
  345MOL    Cl941977   6.287   4.712   0.640 -0.0533 -0.3583  0.3224
  345MOL   Cl1041978   6.087   4.669   0.440 -0.1225 -0.1168  0.2882
  345MOL    C1141979   6.323   4.820   0.402 -0.0189 -0.2678 -0.8591
  345MOL    H1241980   6.246   4.889   0.436  0.2557 -0.9024  1.1498
  345MOL    H1341981   6.407   4.851   0.464 -0.8480  4.8517 -2.1256
  345MOL    C1441982   6.359   4.833   0.256  0.7720  0.2775 -0.6596
  345MOL   Cl1541983   6.227   4.775   0.148 -0.0593 -0.2168 -0.1904
  345MOL   Cl1641984   6.503   4.732   0.221 -0.3025 -0.1708 -0.0465
  345MOL    C1741985   6.405   4.976   0.227 -0.5779 -0.2363 -0.2087
  345MOL    H1841986   6.501   5.008   0.266 -0.2818  0.1222 -1.2210
  345MOL    H1941987   6.411   4.968   0.119  0.4689  1.9127 -0.3361
  345MOL    C2041988   6.316   5.107   0.253 -0.3567 -0.0883  0.5343
  345MOL   Cl2141989   6.337   5.162   0.417 -0.0110 -0.3131  0.2165
  345MOL   Cl2241990   6.137   5.076   0.234 -0.1688  0.1903 -0.3168
  345MOL    C2341991   6.343   5.227   0.155  0.1252  0.3730  0.0217
  345MOL    H2441992   6.300   5.207   0.057  0.1380 -0.7024  0.2291
  345MOL    H2541993   6.284   5.306   0.201  0.2025  1.1382 -1.1765
  345MOL    C2641994   6.491   5.276   0.123  0.0587 -0.0124 -0.3209
  345MOL   Cl2741995   6.463   5.414   0.001  0.2428 -0.0741  0.1084
  345MOL   Cl2841996   6.592   5.149   0.043 -0.1704  0.0666 -0.1288
  345MOL    C2941997   6.568   5.333   0.251  0.8293 -0.2609  0.5735
  345MOL    H3041998   6.515   5.427   0.267 -0.2344 -0.3106 -2.3024
  345MOL    H3141999   6.539   5.265   0.331 -0.3515 -0.0282  0.3532
  345MOL    C3242000   6.717   5.346   0.263 -0.5827  0.2831 -0.1278
  345MOL   Cl3342001   6.776   5.415   0.107  0.0753  0.2455 -0.1058
  345MOL   Cl3442002   6.804   5.190   0.295 -0.4095  0.4962  0.1948
  345MOL    C3542003   6.760   5.441   0.374 -0.2488 -0.8458 -0.8148
  345MOL    H3642004   6.862   5.415   0.404 -0.3452  1.0258  1.3029
  345MOL    H3742005   6.760   5.542   0.334 -0.5549 -0.1283  0.9441
  345MOL    C3842006   6.698   5.440   0.518 -0.6449  0.0834 -0.1692
  345MOL   Cl3942007   6.696   5.273   0.586  0.2398 -0.2308  0.3824
  345MOL   Cl4042008   6.521   5.485   0.511 -0.2779  0.0956 -0.0740
  345MOL    C4142009   6.772   5.525   0.634  0.2872 -0.0752  0.1356
  345MOL    H4242010   6.711   5.532   0.724  0.3606 -1.5828  0.3062
  345MOL    H4342011   6.864   5.476   0.665  0.7337  0.7208  0.1000
  345MOL    C4442012   6.804   5.675   0.620  0.4947 -1.0185  0.2199
  345MOL   Cl4542013   6.651   5.768   0.595 -0.0465 -0.3857  0.2451
  345MOL   Cl4642014   6.899   5.702   0.474  0.0045 -0.0249  0.0699
  345MOL    C4742015   6.874   5.728   0.748  0.5055  0.1349  0.0415
  345MOL    H4842016   6.825   5.692   0.838  1.2600 -0.5523  0.1823
  345MOL    H4942017   6.976   5.690   0.754  0.4005 -0.2213 -0.4731
  345MOL    C5042018   6.889   5.880   0.783 -0.5161 -0.0930  0.1349
  345MOL   Cl5142019   7.005   5.886   0.922  0.3284  0.2008  0.2720
  345MOL   Cl5242020   6.730   5.953   0.851  0.1206  0.2173 -0.2587
  345MOL    C5342021   6.947   5.962   0.662  0.3416 -0.2881 -0.3018
  345MOL    H5442022   7.032   5.912   0.616 -0.5678 -0.5237 -1.7287
  345MOL    H5542023   6.866   5.964   0.589 -0.8189 -1.3849  0.9288
  345MOL    C5642024   7.009   6.107   0.684  0.4529 -0.4270  0.6061
  345MOL   Cl5742025   7.173   6.101   0.759 -0.1806 -0.3294 -0.3738
  345MOL   Cl5842026   6.906   6.216   0.781  0.4681 -0.0361  0.3219
  345MOL    C5942027   7.010   6.194   0.553  0.1562  0.1654 -0.1048
  345MOL    H6042028   6.912   6.210   0.509  0.9275  1.3948 -1.4140
  345MOL    H6142029   7.038   6.293   0.590 -0.6911  0.1070  0.7050
  345MOL    C6242030   7.080   6.148   0.420  0.2768 -0.1845  0.5645
  345MOL   Cl6342031   7.053   6.280   0.301  0.1022  0.2203 -0.6742
  345MOL   Cl6442032   7.020   6.001   0.338 -0.3642 -0.5481 -0.2979
  345MOL    C6542033   7.232   6.122   0.450  0.4526  0.0956 -0.0185
  345MOL    H6642034   7.268   6.176   0.537  4.1834 -0.8608 -0.8935
  345MOL    H6742035   7.232   6.016   0.477 -0.2265 -0.0557 -0.5793
  345MOL    C6842036   7.347   6.115   0.340  0.2769  0.2142 -0.6353
  345MOL   Cl6942037   7.291   6.014   0.199  0.0813  0.1897  0.2128
  345MOL   Cl7042038   7.479   6.015   0.409  0.0335 -0.0921 -0.1725
  345MOL    C7142039   7.392   6.243   0.278 -0.7732 -0.0762  0.7495
  345MOL    H7242040   7.474   6.222   0.210 -0.2979  0.1246  1.2557
  345MOL    H7342041   7.315   6.270   0.206  1.3841 -0.0973 -1.6001
  345MOL    C7442042   7.433   6.366   0.362 -0.0268 -0.0707  0.1426
  345MOL   Cl7542043   7.565   6.314   0.477  0.1013 -0.0123  0.4893
  345MOL   Cl7642044   7.302   6.415   0.468  0.0692  0.2358 -0.1255
  345MOL    C7742045   7.491   6.489   0.293  0.4368 -0.8310  0.5024
  345MOL    H7842046   7.564   6.533   0.362 -1.1379  1.1799  0.9264
  345MOL    H7942047   7.564   6.446   0.224  1.0246 -0.9209  1.1799
  345MOL    C8042048   7.405   6.588   0.213 -0.2142  0.7837 -0.4213
  345MOL   Cl8142049   7.320   6.497   0.079  0.3776  0.0812  0.3362
  345MOL   Cl8242050   7.517   6.707   0.129 -0.1254  0.3001  0.3289
  345MOL    C8342051   7.295   6.679   0.287  0.3553  0.4615 -0.4139
  345MOL    H8442052   7.234   6.733   0.215 -2.6970  0.3062  1.9451
  345MOL    H8542053   7.226   6.605   0.329  0.4460  0.8101  0.3508
  345MOL    C8642054   7.325   6.791   0.385 -1.5207 -0.0923  0.5493
  345MOL   Cl8742055   7.362   6.944   0.303  0.2638  0.4466  0.0810
  345MOL   Cl8842056   7.479   6.736   0.459 -0.1198 -0.1030 -0.0926
  345MOL    C8942057   7.226   6.804   0.504 -0.2033  0.1924  0.2599
  345MOL    H9042058   7.230   6.704   0.547 -0.9673 -0.3512 -0.9124
  345MOL    H9142059   7.272   6.867   0.580  1.8721  0.5748 -1.2620
  345MOL    C9242060   7.085   6.861   0.477 -0.4962  0.5238  0.2901
  345MOL   Cl9342061   7.017   6.861   0.634  0.1103 -0.3611 -0.2504
  345MOL   Cl9442062   6.997   6.739   0.387 -0.1262  0.3207  0.3559
  345MOL    C9542063   7.063   7.008   0.409  0.3947  0.8074  0.1541
  345MOL    H9642064   7.147   7.070   0.443  1.9502 -0.5081 -1.1759
  345MOL    H9742065   7.058   6.980   0.304  1.0893 -0.6492  0.5065
  345MOL    C9842066   6.942   7.097   0.431  0.2123 -0.2864  0.4434
  345MOL   Cl9942067   6.941   7.168   0.586 -0.2966  0.0412 -0.1075
  345MOL  Cl10042068   6.790   7.008   0.414 -0.0774 -0.0975 -0.1208
  345MOL   C10142069   6.931   7.212   0.333 -0.1284 -0.9488  0.2500
  345MOL   H10242070   6.901   7.167   0.239 -2.8693 -0.2403  0.7170
  345MOL   H10342071   6.845   7.276   0.352 -0.0125 -0.8071  0.2935
  345MOL   C10442072   7.048   7.308   0.295 -0.1747 -0.2362 -0.9750
  345MOL  Cl10542073   7.160   7.224   0.182 -0.2358  0.2708  0.3844
  345MOL  Cl10642074   7.150   7.343   0.443 -0.5786  0.0192  0.2690
  345MOL   C10742075   6.981   7.440   0.222 -0.1431  0.6419 -0.4936
  345MOL   H10842076   6.921   7.402   0.139  0.2215  1.5343 -1.1801
  345MOL   H10942077   6.897   7.486   0.275 -0.5110 -0.2097 -0.3251
  345MOL   C11042078   7.072   7.543   0.149  0.5848  0.0245 -0.5817
  345MOL  Cl11142079   6.962   7.667   0.097 -0.1804  0.0499  0.4852
  345MOL  Cl11242080   7.163   7.483   0.006  0.1698  0.0811  0.1669
  345MOL   C11342081   7.173   7.608   0.257  0.0618  0.0085  0.3348
  345MOL   H11442082   7.119   7.632   0.349 -0.8546 -0.1677 -0.1588
  345MOL   H11542083   7.245   7.528   0.279  0.3080 -0.0921 -0.8261
  345MOL   C11642084   7.253   7.739   0.226 -0.2108  0.5623  0.3828
  345MOL  Cl11742085   7.384   7.735   0.345 -0.1006 -0.1429  0.3716
  345MOL  Cl11842086   7.157   7.882   0.272  0.4521 -0.3520 -0.2317
  345MOL   C11942087   7.313   7.759   0.079  0.1023  0.0790 -0.0724
  345MOL   H12042088   7.237   7.777   0.002  0.5024 -0.7760 -0.6774
  345MOL   H12142089   7.368   7.852   0.087  1.3250 -0.6627  0.1604
  345MOL   H12242090   7.388   7.688   0.046  1.9843  2.2541 -0.5839
  346MOL     C142091   6.260   1.807   1.935 -0.2128  0.6226 -0.0649
  346MOL    Cl242092   6.442   1.807   1.957  0.3419 -0.0906 -0.1808
  346MOL    Cl342093   6.198   1.833   2.101  0.0633  0.2807 -0.2966
  346MOL     C442094   6.196   1.917   1.843  0.3051 -1.1308  0.0582
  346MOL     H542095   6.091   1.927   1.868  0.6057 -0.1924  0.9864
  346MOL     H642096   6.226   2.019   1.866 -1.2390 -1.3411  3.2476
  346MOL     H742097   6.248   1.701   1.914  1.2774  0.6843 -1.3023
  346MOL     C842098   6.196   1.887   1.689 -0.7689  0.1239  0.1570
  346MOL    Cl942099   6.152   2.035   1.607 -0.5900  0.3893 -0.6883
  346MOL   Cl1042100   6.074   1.763   1.647 -0.1050  0.3656 -0.0178
  346MOL    C1142101   6.339   1.848   1.628  0.4197 -0.1395 -0.9992
  346MOL    H1242102   6.418   1.909   1.672  1.7987 -1.4420 -1.6497
  346MOL    H1342103   6.373   1.750   1.661  0.4983  0.8510  2.1072
  346MOL    C1442104   6.366   1.841   1.474 -0.2503 -0.1369 -0.9343
  346MOL   Cl1542105   6.512   1.741   1.459 -0.1156  0.0417 -0.0553
  346MOL   Cl1642106   6.410   2.012   1.426  0.3550  0.2192  0.0038
  346MOL    C1742107   6.246   1.781   1.390 -0.3192  0.2111  0.5758
  346MOL    H1842108   6.239   1.674   1.412  1.6806 -0.0259  0.2033
  346MOL    H1942109   6.156   1.839   1.408 -0.6585 -0.5696  1.4432
  346MOL    C2042110   6.250   1.783   1.228  0.5028  0.0263 -0.1786
  346MOL   Cl2142111   6.396   1.692   1.170  0.3358 -0.5474  0.2659
  346MOL   Cl2242112   6.265   1.951   1.174  0.1234 -0.2540 -0.0422
  346MOL    C2342113   6.121   1.725   1.149  0.4848 -0.7018  0.0977
  346MOL    H2442114   6.048   1.804   1.165  2.4400  1.0071  0.8904
  346MOL    H2542115   6.153   1.724   1.045  2.4072 -2.3677  0.6558
  346MOL    C2642116   6.059   1.589   1.189  0.1184  0.1753  0.0541
  346MOL   Cl2742117   5.980   1.610   1.343  0.1224  0.1625  0.0454
  346MOL   Cl2842118   6.184   1.459   1.201  0.2023 -0.0063 -0.1219
  346MOL    C2942119   5.955   1.537   1.083  0.9219 -0.4464  0.5981
  346MOL    H3042120   6.008   1.513   0.991  2.2469 -1.2934  1.5625
  346MOL    H3142121   5.907   1.447   1.122 -0.5287  0.1044  0.1060
  346MOL    C3242122   5.838   1.634   1.037  0.4954 -0.5797 -0.5669
  346MOL   Cl3342123   5.730   1.540   0.936  0.0141  0.0644 -0.0448
  346MOL   Cl3442124   5.901   1.765   0.937 -0.0077 -0.3861 -0.2075
  346MOL    C3542125   5.753   1.702   1.152  0.2389 -0.9812 -0.5962
  346MOL    H3642126   5.746   1.632   1.235  1.7894  1.2358  1.4697
  346MOL    H3742127   5.816   1.785   1.187 -2.6727  0.0395  2.5221
  346MOL    C3842128   5.607   1.756   1.127  0.1930 -0.8431  0.2398
  346MOL   Cl3942129   5.490   1.627   1.088 -0.0283  0.1637  0.0444
  346MOL   Cl4042130   5.601   1.882   0.996  0.2599 -0.3835  0.4574
  346MOL    C4142131   5.559   1.822   1.264  0.0168  0.5871  0.4041
  346MOL    H4242132   5.455   1.854   1.261  0.4598  1.9952 -1.6616
  346MOL    H4342133   5.574   1.735   1.327 -1.5136 -1.6314 -2.2057
  346MOL    C4442134   5.624   1.933   1.338 -0.3209 -0.2892 -0.3172
  346MOL   Cl4542135   5.781   1.883   1.419 -0.2699 -0.0409 -0.1503
  346MOL   Cl4642136   5.518   1.964   1.483  0.1662 -0.4342 -0.5403
  346MOL    C4742137   5.631   2.072   1.266 -0.3475  0.5266  0.3093
  346MOL    H4842138   5.571   2.066   1.174  0.2033 -0.0748 -0.0164
  346MOL    H4942139   5.570   2.141   1.324  1.8817  1.5293  1.5102
  346MOL    C5042140   5.755   2.161   1.255 -0.8194 -0.5966 -0.5983
  346MOL   Cl5142141   5.879   2.068   1.165 -0.0504  0.2471 -0.1811
  346MOL   Cl5242142   5.814   2.209   1.419  0.0953 -0.1669 -0.0121
  346MOL    C5342143   5.740   2.295   1.181  0.4410 -0.1153  0.5608
  346MOL    H5442144   5.836   2.341   1.202  0.3986 -0.4525  1.4993
  346MOL    H5542145   5.756   2.268   1.076  1.2099 -0.8250  0.8600
  346MOL    C5642146   5.606   2.381   1.182  0.4181 -0.0522  0.6209
  346MOL   Cl5742147   5.535   2.393   1.344 -0.2437 -0.1118  0.0700
  346MOL   Cl5842148   5.487   2.298   1.081  0.0418  0.0746  0.0838
  346MOL    C5942149   5.616   2.521   1.126  0.0416  0.5307  0.0527
  346MOL    H6042150   5.623   2.511   1.017 -0.6249  0.1595  0.0457
  346MOL    H6142151   5.520   2.567   1.149  0.5054  0.9437  1.1463
  346MOL    C6242152   5.732   2.619   1.159  0.0034  0.0183 -0.5734
  346MOL   Cl6342153   5.893   2.568   1.106 -0.4261 -0.1751  0.1494
  346MOL   Cl6442154   5.737   2.639   1.336  0.1102  0.0926  0.0542
  346MOL    C6542155   5.688   2.760   1.112 -0.2341  0.7209  0.0630
  346MOL    H6642156   5.603   2.795   1.171 -0.2385  1.8747 -0.6011
  346MOL    H6742157   5.757   2.838   1.144  0.9048 -0.3730  0.2843
  346MOL    C6842158   5.670   2.790   0.958  0.4636 -0.4084 -0.8180
  346MOL   Cl6942159   5.602   2.951   0.966  0.2211  0.1329 -0.2151
  346MOL   Cl7042160   5.544   2.692   0.871 -0.0066 -0.2707  0.1507
  346MOL    C7142161   5.801   2.780   0.880 -0.3371 -0.4298 -1.1042
  346MOL    H7242162   5.891   2.795   0.939 -0.9613  0.4696 -0.3837
  346MOL    H7342163   5.819   2.681   0.837  1.2806 -0.3839 -0.5684
  346MOL    C7442164   5.830   2.872   0.753  0.1076 -0.1369  0.1807
  346MOL   Cl7542165   5.877   3.032   0.816 -0.2104  0.3312  0.2046
  346MOL   Cl7642166   5.678   2.904   0.650 -0.0769  0.5165 -0.0315
  346MOL    C7742167   5.948   2.820   0.670 -0.7753  0.3353  0.1771
  346MOL    H7842168   6.012   2.894   0.621 -0.4884  0.0521  0.1267
  346MOL    H7942169   6.018   2.782   0.744 -0.1045  0.9688 -0.1196
  346MOL    C8042170   5.928   2.715   0.560 -0.1868  0.5243 -0.9123
  346MOL   Cl8142171   6.087   2.674   0.503 -0.2096  0.5626  0.1814
  346MOL   Cl8242172   5.869   2.799   0.415 -0.1180  0.0673  0.2734
  346MOL    C8342173   5.854   2.589   0.585 -0.0775 -0.0600 -0.5397
  346MOL    H8442174   5.764   2.616   0.640  0.3674  1.0972 -0.3534
  346MOL    H8542175   5.821   2.547   0.490  1.0092  0.6108 -1.2324
  346MOL    C8642176   5.917   2.462   0.662  0.3003 -0.7482 -0.1070
  346MOL   Cl8742177   6.037   2.518   0.790 -0.2204 -0.1780  0.0952
  346MOL   Cl8842178   6.012   2.356   0.553  0.4853 -0.1208 -0.2125
  346MOL    C8942179   5.811   2.371   0.736  0.2729  0.0310  0.9714
  346MOL    H9042180   5.863   2.286   0.781  1.4626 -1.2249 -2.6129
  346MOL    H9142181   5.780   2.432   0.822  0.6153 -0.4474  1.4377
  346MOL    C9242182   5.688   2.312   0.668 -0.5432  0.7955 -0.1643
  346MOL   Cl9342183   5.575   2.439   0.629  0.0797 -0.0710 -0.2056
  346MOL   Cl9442184   5.598   2.220   0.798 -0.2019 -0.1793  0.1129
  346MOL    C9542185   5.707   2.218   0.542  0.4600 -0.8374 -0.5497
  346MOL    H9642186   5.619   2.209   0.478  0.1356 -2.4267  0.0982
  346MOL    H9742187   5.775   2.279   0.481  2.6259 -1.9002  0.7444
  346MOL    C9842188   5.769   2.075   0.552 -0.2665  0.6625 -0.4027
  346MOL   Cl9942189   5.655   1.948   0.628 -0.0527  0.0647 -0.1492
  346MOL  Cl10042190   5.908   2.080   0.662  0.2598  0.1008  0.1305
  346MOL   C10142191   5.816   2.014   0.416 -0.7377 -0.6594  0.2154
  346MOL   H10242192   5.903   2.075   0.391 -0.8689 -1.2933 -1.9165
  346MOL   H10342193   5.848   1.912   0.437  1.1276 -0.0609  0.4334
  346MOL   C10442194   5.719   2.010   0.284  0.7307  0.4156 -0.5151
  346MOL  Cl10542195   5.681   2.172   0.236  0.3837 -0.5525 -0.0717
  346MOL  Cl10642196   5.562   1.928   0.329  0.1351 -0.7650 -0.3194
  346MOL   C10742197   5.767   1.934   0.159  0.3401  0.6045  0.7081
  346MOL   H10842198   5.678   1.912   0.101  0.5102 -0.2141  0.7393
  346MOL   H10942199   5.831   2.010   0.113  1.3474 -0.3725  0.4508
  346MOL   C11042200   5.867   1.817   0.173  0.5554 -0.1404 -0.7362
  346MOL  Cl11142201   5.814   1.700   0.296 -0.0127 -0.1587  0.4116
  346MOL  Cl11242202   6.026   1.886   0.224 -0.0777 -0.6192 -0.5719
  346MOL   C11342203   5.897   1.734   0.043 -0.2288  0.6172  0.0847
  346MOL   H11442204   5.964   1.796   9.163 -2.9292  2.2805 -1.2987
  346MOL   H11542205   5.964   1.658   0.083  1.2620  1.1830 -1.2515
  346MOL   C11642206   5.789   1.700   9.116 -0.4612 -0.0568 -0.4721
  346MOL  Cl11742207   5.742   1.854   9.042  0.5275  0.0406  0.0036
  346MOL  Cl11842208   5.652   1.613   9.177 -0.1621  0.4129  0.0313
  346MOL   C11942209   5.848   1.606   9.010 -0.0662 -0.5085  0.5251
  346MOL   H12042210   5.945   1.632   8.968  0.1368 -2.9644 -0.6055
  346MOL   H12142211   5.863   1.506   9.050  1.0775 -0.0499  1.2564
  346MOL   H12242212   5.778   1.607   8.926 -1.1596  0.6432  1.4222
  347MOL     C142213   4.296   0.343   8.205 -0.9310  0.4412 -0.0552
  347MOL    Cl242214   4.320   0.181   8.277  0.0208 -0.1621 -0.0628
  347MOL    Cl342215   4.398   0.462   8.301 -0.8710 -0.0491  0.3413
  347MOL     C442216   4.341   0.353   8.061  0.0194 -0.2964  0.4775
  347MOL     H542217   4.346   0.459   8.037 -0.1132 -0.4496 -0.2371
  347MOL     H642218   4.441   0.309   8.061  0.7537  1.2868  2.9147
  347MOL     H742219   4.191   0.365   8.222 -0.5313  1.3570  1.3913
  347MOL     C842220   4.247   0.275   7.960 -0.1570 -0.0301  0.8395
  347MOL    Cl942221   4.074   0.322   7.981 -0.0805  0.1336 -0.0219
  347MOL   Cl1042222   4.254   0.102   7.992 -0.0428 -0.1003 -0.1305
  347MOL    C1142223   4.289   0.303   7.811  0.3743 -0.1940 -0.9896
  347MOL    H1242224   4.213   0.240   7.763  0.3870 -1.6010  0.7620
  347MOL    H1342225   4.262   0.407   7.793 -0.2904 -0.3462 -0.8776
  347MOL    C1442226   4.429   0.266   7.748 -0.0183  0.2138 -0.0446
  347MOL   Cl1542227   4.493   0.111   7.802 -0.6458 -0.6039  0.6158
  347MOL   Cl1642228   4.540   0.398   7.804  0.5972 -0.0502  0.1001
  347MOL    C1742229   4.417   0.270   7.586  0.2382  0.1456 -0.1140
  347MOL    H1842230   4.348   0.352   7.565 -0.9221 -1.2209 -1.7140
  347MOL    H1942231   4.507   0.313   7.542 -0.6313  1.5200 -0.5838
  347MOL    C2042232   4.367   0.143   7.503 -0.3789  0.0129  0.0560
  347MOL   Cl2142233   4.247   0.044   7.595 -0.1669  0.2113  0.0895
  347MOL   Cl2242234   4.499   0.032   7.471 -0.3338 -0.4766 -0.0912
  347MOL    C2342235   4.302   0.162   7.368  0.1106  0.0139  0.0002
  347MOL    H2442236   4.380   0.181   7.294  1.3450 -3.6262  0.2873
  347MOL    H2542237   4.269   0.061   7.347 -4.3603  1.7074 -1.7180
  347MOL    C2642238   4.179   0.250   7.340 -0.6533 -0.3084 -0.8540
  347MOL   Cl2742239   4.123   0.193   7.175 -0.2136 -0.6903  0.0691
  347MOL   Cl2842240   4.236   0.418   7.334  0.4096  0.0914 -0.2489
  347MOL    C2942241   4.067   0.239   7.448 -0.2935  0.1847 -0.3091
  347MOL    H3042242   4.023   0.140   7.455 -1.1307  0.6058  0.5761
  347MOL    H3142243   4.115   0.244   7.545 -1.8680 -1.7529  0.6041
  347MOL    C3242244   3.952   0.350   7.465 -1.2068  0.1507  0.6895
  347MOL   Cl3342245   4.016   0.494   7.545  0.2642 -0.1364  0.0374
  347MOL   Cl3442246   3.829   0.283   7.569  0.2971 -0.3125  0.0203
  347MOL    C3542247   3.895   0.392   7.327 -0.1025  0.0612  0.0377
  347MOL    H3642248   3.968   0.467   7.296 -3.4952  3.0650 -1.1271
  347MOL    H3742249   3.902   0.305   7.263 -2.8075  0.0033 -0.2312
  347MOL    C3842250   3.759   0.469   7.304  0.4532 -0.1791 -0.4511
  347MOL   Cl3942251   3.729   0.582   7.439 -0.2302 -0.1804  0.0127
  347MOL   Cl4042252   3.633   0.350   7.283  0.0477 -0.0595  0.2413
  347MOL    C4142253   3.761   0.571   7.181 -0.1176 -0.5279 -0.3623
  347MOL    H4242254   3.662   0.615   7.173  0.2707  0.0401 -2.1261
  347MOL    H4342255   3.838   0.644   7.207  0.9633 -1.6705 -0.2769
  347MOL    C4442256   3.789   0.539   7.036 -0.1173  0.2563 -0.2604
  347MOL   Cl4542257   3.659   0.427   6.973  0.2266 -0.5583  0.0416
  347MOL   Cl4642258   3.944   0.458   7.034  0.1296  0.4737 -0.4626
  347MOL    C4742259   3.790   0.673   6.957 -0.0175  0.0316 -0.2731
  347MOL    H4842260   3.700   0.731   6.974  1.0140  1.5974 -0.0451
  347MOL    H4942261   3.856   0.743   7.007  1.4144 -2.1883  1.0204
  347MOL    C5042262   3.840   0.692   6.810 -0.0861 -0.2220  0.2540
  347MOL   Cl5142263   4.017   0.664   6.791 -0.2584  0.3561  0.0401
  347MOL   Cl5242264   3.815   0.864   6.784 -0.2790 -0.4314  0.4545
  347MOL    C5342265   3.757   0.601   6.718  0.0738 -0.5456  0.5586
  347MOL    H5442266   3.774   0.495   6.738  3.3241  0.1528  1.7872
  347MOL    H5542267   3.658   0.624   6.759 -0.1463 -1.8082  0.7708
  347MOL    C5642268   3.759   0.617   6.564  1.0802 -0.0138  0.1083
  347MOL   Cl5742269   3.637   0.497   6.510  0.2185 -0.1814  0.3035
  347MOL   Cl5842270   3.910   0.558   6.494 -0.2286 -0.0669  0.1651
  347MOL    C5942271   3.724   0.754   6.507 -0.5101 -0.0174  0.2442
  347MOL    H6042272   3.647   0.800   6.569 -1.0853  2.5769 -2.2559
  347MOL    H6142273   3.804   0.826   6.525  0.0242 -0.4876 -0.2548
  347MOL    C6242274   3.686   0.773   6.364 -0.0513 -0.2691 -0.1668
  347MOL   Cl6342275   3.695   0.945   6.339  0.1182 -0.2806  0.3271
  347MOL   Cl6442276   3.515   0.737   6.359 -0.3237  0.2340  0.3043
  347MOL    C6542277   3.770   0.697   6.255 -1.5258  0.2024  0.1414
  347MOL    H6642278   3.878   0.703   6.269 -1.5206  2.7056 -0.8212
  347MOL    H6742279   3.738   0.594   6.272 -2.2015  0.3943  0.0393
  347MOL    C6842280   3.752   0.726   6.104  0.2997  0.0434  0.0265
  347MOL   Cl6942281   3.845   0.598   6.019  0.2835 -0.2136 -0.1134
  347MOL   Cl7042282   3.825   0.884   6.057 -0.5602 -0.0142  0.1203
  347MOL    C7142283   3.604   0.729   6.053 -0.1297 -0.5253 -0.0369
  347MOL    H7242284   3.550   0.645   6.097 -0.6624  0.2438  0.7923
  347MOL    H7342285   3.570   0.826   6.090  0.6207  0.1881 -1.1895
  347MOL    C7442286   3.574   0.717   5.902  0.7237 -0.0220  0.1690
  347MOL   Cl7542287   3.578   0.548   5.837 -0.0900  0.1501 -0.0790
  347MOL   Cl7642288   3.681   0.814   5.802  0.0502  0.0004  0.0107
  347MOL    C7742289   3.433   0.772   5.863  0.0151 -0.0205 -0.4064
  347MOL    H7842290   3.425   0.880   5.851 -0.1748 -0.2372 -2.3715
  347MOL    H7942291   3.424   0.748   5.757 -1.3232 -1.5022  0.0226
  347MOL    C8042292   3.304   0.733   5.939  0.3499 -0.2842  0.0553
  347MOL   Cl8142293   3.306   0.806   6.096  0.5853 -0.3431  0.0028
  347MOL   Cl8242294   3.281   0.555   5.959 -0.2129  0.3175 -0.1428
  347MOL    C8342295   3.179   0.788   5.867  0.9471  0.1995 -0.1383
  347MOL    H8442296   3.210   0.814   5.766 -0.5453 -0.8395 -0.8920
  347MOL    H8542297   3.107   0.713   5.834  0.5526  1.4036 -2.0462
  347MOL    C8642298   3.107   0.926   5.906 -0.1776  0.4074 -0.0396
  347MOL   Cl8742299   2.996   0.953   5.768 -0.0147 -0.2272  0.1561
  347MOL   Cl8842300   3.226   1.056   5.911 -0.1033  0.3807  0.0335
  347MOL    C8942301   3.018   0.926   6.031 -0.6354 -0.0753  0.5114
  347MOL    H9042302   3.087   0.946   6.113  1.7733  0.7504 -1.6484
  347MOL    H9142303   2.967   1.022   6.033  0.2237  0.3913  0.2398
  347MOL    C9242304   2.919   0.809   6.048  0.0053 -0.1482  0.7449
  347MOL   Cl9342305   2.983   0.644   6.058  0.1687 -0.2548  0.3628
  347MOL   Cl9442306   2.787   0.808   5.922  0.2091  0.3403 -0.3618
  347MOL    C9542307   2.836   0.838   6.182  0.2296 -0.7971  0.2051
  347MOL    H9642308   2.752   0.906   6.169  1.1253  0.0803 -1.0867
  347MOL    H9742309   2.771   0.752   6.202  0.7152 -0.9551  1.1835
  347MOL    C9842310   2.904   0.880   6.317  0.0152 -0.0197 -0.4421
  347MOL   Cl9942311   2.944   1.056   6.301  0.0248  0.2714 -0.0149
  347MOL  Cl10042312   3.053   0.785   6.333  0.2537  0.2220 -0.1072
  347MOL   C10142313   2.809   0.851   6.440 -0.0671  0.7015  0.5954
  347MOL   H10242314   2.709   0.876   6.405 -0.3507  0.0373  0.9236
  347MOL   H10342315   2.815   0.744   6.459  0.7605  0.9185  1.6160
  347MOL   C10442316   2.834   0.922   6.575  1.3937 -0.4236 -0.1676
  347MOL  Cl10542317   2.713   0.850   6.676  0.3460 -0.6082  0.0099
  347MOL  Cl10642318   2.780   1.092   6.550 -0.2465 -0.4945 -0.3607
  347MOL   C10742319   2.978   0.909   6.634 -0.1611  0.0476  0.2816
  347MOL   H10842320   3.002   0.804   6.655  1.0576  0.6192  1.8340
  347MOL   H10942321   3.046   0.924   6.550 -0.0948 -2.6184 -0.1951
  347MOL   C11042322   3.029   0.985   6.760  0.1994  0.0158  0.1154
  347MOL  Cl11142323   2.909   0.942   6.889  0.0267  0.2737  0.1132
  347MOL  Cl11242324   3.046   1.159   6.745 -0.0957 -0.4259 -0.1253
  347MOL   C11342325   3.161   0.937   6.820 -0.0281  0.3925  0.2125
  347MOL   H11442326   3.170   0.985   6.917  1.1288  2.8491 -1.0606
  347MOL   H11542327   3.146   0.832   6.843 -0.2405  0.3286 -0.2131
  347MOL   C11642328   3.287   0.923   6.727  0.2999  0.3994 -0.1094
  347MOL  Cl11742329   3.270   0.775   6.633 -0.1851  0.5001 -0.0059
  347MOL  Cl11842330   3.429   0.901   6.840  0.1807 -0.2493  0.0412
  347MOL   C11942331   3.318   1.044   6.630 -0.0764  0.2003  0.0836
  347MOL   H12042332   3.419   1.018   6.598 -0.1077 -0.6440  0.6523
  347MOL   H12142333   3.255   1.056   6.542  0.0653 -0.2657 -0.0865
  347MOL   H12242334   3.327   1.133   6.691  1.5010 -1.0351  1.7224
  348MOL     C142335   6.595   4.227   0.764  0.1347  0.5007 -0.3939
  348MOL    Cl242336   6.529   4.234   0.929  0.2653 -0.1159 -0.0037
  348MOL    Cl342337   6.727   4.353   0.753  0.0749  0.0698 -0.1567
  348MOL     C442338   6.643   4.087   0.705  0.7817 -0.3537 -0.0556
  348MOL     H542339   6.687   4.108   0.607  1.1215  1.3839  0.4525
  348MOL     H642340   6.730   4.047   0.756 -0.7727 -2.4157  1.0535
  348MOL     H742341   6.509   4.260   0.706 -0.2131  0.7046  0.2323
  348MOL     C842342   6.536   3.978   0.701  0.7204  0.0758 -0.3714
  348MOL    Cl942343   6.488   3.913   0.865  0.0311 -0.1613 -0.1246
  348MOL   Cl1042344   6.625   3.847   0.616 -0.0126 -0.4541  0.3955
  348MOL    C1142345   6.411   4.026   0.616 -0.3336  0.0720  0.1337
  348MOL    H1242346   6.366   4.092   0.690 -1.1994  0.2426 -0.5275
  348MOL    H1342347   6.457   4.079   0.532 -2.1865  0.6886 -0.5185
  348MOL    C1442348   6.313   3.928   0.557  0.7170  0.4054  0.2038
  348MOL   Cl1542349   6.386   3.853   0.409  0.1574  0.2111 -0.1182
  348MOL   Cl1642350   6.177   4.032   0.503 -0.3289 -0.0747 -0.2296
  348MOL    C1742351   6.259   3.818   0.654  0.5837  0.5999 -0.6592
  348MOL    H1842352   6.341   3.747   0.645 -1.5777 -1.9746 -0.4047
  348MOL    H1942353   6.248   3.860   0.754 -0.6207  0.3412 -0.6744
  348MOL    C2042354   6.133   3.724   0.615  0.1452  0.1242  0.5726
  348MOL   Cl2142355   6.146   3.673   0.444  0.0481 -0.0980 -0.3906
  348MOL   Cl2242356   5.977   3.813   0.630  0.2437  0.0214  0.1684
  348MOL    C2342357   6.119   3.590   0.705  0.1484  0.5305  0.2593
  348MOL    H2442358   6.019   3.553   0.684  0.3145 -0.7433  1.6501
  348MOL    H2542359   6.193   3.518   0.671 -2.4552 -2.4932  0.7745
  348MOL    C2642360   6.138   3.594   0.861 -0.4480  0.0008  0.6409
  348MOL   Cl2742361   6.019   3.716   0.918  0.1072  0.1054  0.0149
  348MOL   Cl2842362   6.302   3.649   0.910  0.2801 -0.0139  0.4595
  348MOL    C2942363   6.097   3.466   0.939 -0.2137 -0.1259  0.4536
  348MOL    H3042364   6.122   3.491   1.042 -0.3616  0.3790  0.3680
  348MOL    H3142365   5.991   3.452   0.921 -0.1985 -1.3789  1.2966
  348MOL    C3242366   6.158   3.324   0.913  0.1366 -0.1792 -0.7456
  348MOL   Cl3342367   6.334   3.326   0.916  0.0595 -0.0298 -0.5426
  348MOL   Cl3442368   6.111   3.272   0.747  0.5458  0.0233  0.1737
  348MOL    C3542369   6.098   3.225   1.012  0.0137  0.4704  0.0726
  348MOL    H3642370   6.084   3.276   1.107 -2.2259  0.4770 -0.2200
  348MOL    H3742371   6.000   3.195   0.974 -0.3577 -0.6002  1.8429
  348MOL    C3842372   6.166   3.087   1.037  0.3366  0.5448 -0.4459
  348MOL   Cl3942373   6.200   3.002   0.881 -0.1665 -0.0935  0.2423
  348MOL   Cl4042374   6.043   2.978   1.109  0.6095  0.2827  0.4290
  348MOL    C4142375   6.298   3.084   1.118  0.5335 -0.6306  0.2140
  348MOL    H4242376   6.320   2.978   1.132  1.3611 -0.7163 -1.5756
  348MOL    H4342377   6.377   3.103   1.046  0.4983  0.7972  0.5549
  348MOL    C4442378   6.314   3.165   1.250 -0.6700  0.0687  0.8340
  348MOL   Cl4542379   6.188   3.120   1.367 -0.3581  0.4044 -0.4699
  348MOL   Cl4642380   6.304   3.340   1.226 -0.3731 -0.6856 -0.1182
  348MOL    C4742381   6.446   3.147   1.334 -0.1003  0.3173  0.0222
  348MOL    H4842382   6.527   3.204   1.289 -1.1586  1.2150 -0.8036
  348MOL    H4942383   6.425   3.215   1.416  1.3617 -1.2245  1.6967
  348MOL    C5042384   6.507   3.008   1.364  0.5669  0.0540  0.2097
  348MOL   Cl5142385   6.597   2.957   1.221  0.1758  0.0492  0.0177
  348MOL   Cl5242386   6.393   2.887   1.430  0.0556 -0.3961  0.0742
  348MOL    C5342387   6.615   3.027   1.475 -0.0194  0.4615  0.5336
  348MOL    H5442388   6.681   2.941   1.466  1.4405  1.6081  0.1367
  348MOL    H5542389   6.692   3.097   1.442  0.1153  0.0147 -0.1098
  348MOL    C5642390   6.589   3.053   1.624 -0.1875  0.3302  0.7172
  348MOL   Cl5742391   6.576   2.896   1.692 -0.0424 -0.2772 -0.3337
  348MOL   Cl5842392   6.435   3.140   1.657  0.0019  0.0490  0.1558
  348MOL    C5942393   6.709   3.143   1.689  0.0639 -0.6277  0.6136
  348MOL    H6042394   6.797   3.079   1.682 -1.0043 -2.0934  0.2774
  348MOL    H6142395   6.725   3.223   1.617 -0.9523  0.9318  2.0944
  348MOL    C6242396   6.709   3.197   1.831  0.7526  0.1632 -0.4144
  348MOL   Cl6342397   6.590   3.336   1.854  0.2256 -0.0953 -0.0118
  348MOL   Cl6442398   6.875   3.262   1.853  0.0232 -0.0228  0.1082
  348MOL    C6542399   6.691   3.082   1.937  0.2186  0.2714  1.2143
  348MOL    H6642400   6.592   3.039   1.921 -1.4568  3.9517  1.2438
  348MOL    H6742401   6.760   3.001   1.911  0.6948  1.2923 -0.8288
  348MOL    C6842402   6.687   3.120   2.091 -0.7926  0.3509 -0.1862
  348MOL   Cl6942403   6.535   3.203   2.141  0.3707 -0.1858  0.3454
  348MOL   Cl7042404   6.820   3.225   2.150  0.2608 -0.1982 -0.0103
  348MOL    C7142405   6.692   2.994   2.173 -0.6149 -0.4348  0.0684
  348MOL    H7242406   6.796   2.963   2.163  0.3603  2.0647  1.9554
  348MOL    H7342407   6.684   3.025   2.277 -3.8352 -1.8046  0.2957
  348MOL    C7442408   6.592   2.878   2.173 -0.2594 -0.2930  0.0008
  348MOL   Cl7542409   6.637   2.765   2.299 -0.0010  0.2706  0.0464
  348MOL   Cl7642410   6.635   2.792   2.024 -0.2954 -0.2123 -0.3087
  348MOL    C7742411   6.440   2.897   2.188  0.1182 -0.1129 -0.0544
  348MOL    H7842412   6.414   2.972   2.262  1.9267  0.1382  0.3359
  348MOL    H7942413   6.417   2.943   2.092  1.4776  2.0067  0.6104
  348MOL    C8042414   6.348   2.783   2.231  0.0144 -0.3143 -0.1588
  348MOL   Cl8142415   6.192   2.824   2.171  0.1420  1.0321  0.7258
  348MOL   Cl8242416   6.341   2.792   2.415  0.3479 -0.1378  0.1960
  348MOL    C8342417   6.384   2.643   2.166  0.2379  0.3266  0.2468
  348MOL    H8442418   6.353   2.645   2.061 -1.3504 -3.4675  0.5464
  348MOL    H8542419   6.489   2.616   2.156 -0.1260 -0.2374 -2.8181
  348MOL    C8642420   6.326   2.509   2.219 -0.3150  0.5297  0.0273
  348MOL   Cl8742421   6.149   2.519   2.240 -0.1236 -0.3365  0.2165
  348MOL   Cl8842422   6.407   2.458   2.367  0.0656 -0.5051  0.0717
  348MOL    C8942423   6.330   2.398   2.106  0.2000  0.9482  0.5859
  348MOL    H9042424   6.261   2.319   2.135 -0.6387  1.6943  0.6613
  348MOL    H9142425   6.269   2.450   2.031  4.3521  3.2433 -1.3950
  348MOL    C9242426   6.454   2.335   2.049  0.3427 -0.3781  0.6116
  348MOL   Cl9342427   6.538   2.456   1.955  0.1002 -0.1150  0.4706
  348MOL   Cl9442428   6.381   2.217   1.934  0.0930  0.0219 -0.2444
  348MOL    C9542429   6.549   2.267   2.151  0.1627 -0.6886  0.0452
  348MOL    H9642430   6.568   2.333   2.237 -2.2065  0.4102 -0.2329
  348MOL    H9742431   6.483   2.187   2.184 -2.6429  1.4907 -0.1209
  348MOL    C9842432   6.692   2.207   2.114  0.0258  0.4526  0.1974
  348MOL   Cl9942433   6.721   2.073   2.232 -0.0093  0.1126  0.0056
  348MOL  Cl10042434   6.804   2.348   2.133 -0.1682  0.2267 -0.1209
  348MOL   C10142435   6.712   2.150   1.960  0.4391  0.2849 -0.6629
  348MOL   H10242436   6.634   2.077   1.940  0.1548  0.0623  1.1631
  348MOL   H10342437   6.693   2.236   1.896 -2.6793 -0.8573 -1.3320
  348MOL   C10442438   6.850   2.084   1.920 -0.3405 -0.4037 -1.0307
  348MOL  Cl10542439   6.862   1.920   1.992 -0.0031 -0.0706  0.0265
  348MOL  Cl10642440   6.999   2.165   1.982  0.1077  0.3987 -0.1768
  348MOL   C10742441   6.869   2.066   1.769 -0.3453 -0.1111 -0.0849
  348MOL   H10842442   6.927   2.155   1.744  0.3536 -0.6112 -0.2835
  348MOL   H10942443   6.945   1.990   1.748 -1.5145 -0.9517 -1.3554
  348MOL   C11042444   6.747   2.032   1.672  0.4815 -0.4526  0.6481
  348MOL  Cl11142445   6.623   2.167   1.659  0.2216 -0.1417  0.0969
  348MOL  Cl11242446   6.666   1.888   1.736 -0.1456  0.1232  0.0157
  348MOL   C11342447   6.785   1.991   1.527  0.0185  0.7682 -0.6149
  348MOL   H11442448   6.823   1.889   1.531 -0.2162  0.5071 -3.7452
  348MOL   H11542449   6.693   1.972   1.472 -0.1005  0.1624 -0.2152
  348MOL   C11642450   6.880   2.079   1.443  0.5484 -0.7881  0.4297
  348MOL  Cl11742451   6.886   2.011   1.282 -0.0751 -0.3250  0.1682
  348MOL  Cl11842452   7.041   2.062   1.504 -0.1415  0.1080 -0.2888
  348MOL   C11942453   6.841   2.230   1.441  0.1515  0.1572  0.1274
  348MOL   H12042454   6.836   2.280   1.538 -1.8808 -1.4925  0.9055
  348MOL   H12142455   6.914   2.277   1.374  0.5825 -4.1570 -2.6321
  348MOL   H12242456   6.746   2.249   1.392 -0.4780  0.1245  1.3068
  349MOL     C142457   6.862   0.901   1.204  0.3529 -0.5055 -0.2922
  349MOL    Cl242458   6.990   0.994   1.119 -0.3223 -0.2032 -0.2676
  349MOL    Cl342459   6.700   0.950   1.138  0.1217 -0.2317 -0.0176
  349MOL     C442460   6.893   0.750   1.180  0.1710 -0.2130 -0.3638
  349MOL     H542461   6.890   0.735   1.072  0.9512  0.2218 -0.4452
  349MOL     H642462   6.998   0.738   1.207  0.3752 -0.4354 -1.2535
  349MOL     H742463   6.865   0.935   1.307 -0.0074 -1.4149  0.0190
  349MOL     C842464   6.801   0.641   1.246 -0.2726 -0.6344  0.0823
  349MOL    Cl942465   6.630   0.628   1.188  0.2216  0.6692  0.0754
  349MOL   Cl1042466   6.781   0.670   1.421 -0.3955 -0.1871  0.0749
  349MOL    C1142467   6.860   0.498   1.233 -0.3385  0.5143  0.6743
  349MOL    H1242468   6.800   0.445   1.306 -0.0423  0.5275  0.9264
  349MOL    H1342469   6.838   0.456   1.135 -0.4414 -0.3127  1.0547
  349MOL    C1442470   7.016   0.467   1.257 -0.5588 -0.0934  0.1065
  349MOL   Cl1542471   7.074   0.548   1.401  0.0533 -0.0228  0.2326
  349MOL   Cl1642472   7.105   0.520   1.103  0.2016 -0.3341  0.3953
  349MOL    C1742473   7.050   0.310   1.268 -0.1256  0.0301  0.1561
  349MOL    H1842474   6.971   0.263   1.208 -0.1023  0.9331 -0.5830
  349MOL    H1942475   7.144   0.285   1.219  0.0802  0.1436  0.4947
  349MOL    C2042476   7.057   0.236   1.402 -0.1792 -0.5088  0.7892
  349MOL   Cl2142477   6.922   0.302   1.506 -0.4136  0.0568  0.0489
  349MOL   Cl2242478   7.214   0.274   1.476  0.0273  0.0820 -0.0547
  349MOL    C2342479   7.055   0.079   1.400  0.2725  0.2350 -0.2566
  349MOL    H2442480   7.157   0.055   1.370  0.4291  2.6141 -1.7225
  349MOL    H2542481   7.057   0.031   1.497  0.6114 -0.8449 -0.7855
  349MOL    C2642482   6.960   9.179   1.299 -0.3684 -0.0071  0.1055
  349MOL   Cl2742483   7.016   0.019   1.132  0.2484 -0.5996  0.0659
  349MOL   Cl2842484   6.797   0.068   1.304  0.1451 -0.0785  0.1089
  349MOL    C2942485   6.949   9.021   1.328  0.4273 -0.3970  0.3776
  349MOL    H3042486   6.887   9.019   1.418 -0.9170  2.6756 -0.4204
  349MOL    H3142487   6.888   8.986   1.245 -0.7131  2.8290 -0.1957
  349MOL    C3242488   7.078   8.939   1.352 -0.5807  0.4358  0.5329
  349MOL   Cl3342489   7.018   8.773   1.351  0.2442 -0.2138  0.0681
  349MOL   Cl3442490   7.150   8.965   1.516 -0.1110 -0.2934  0.4758
  349MOL    C3542491   7.180   8.947   1.240  0.4176  0.1347 -0.2246
  349MOL    H3642492   7.139   8.901   1.151 -0.5272  2.9049 -1.2796
  349MOL    H3742493   7.206   9.051   1.221 -0.7240 -0.0273 -2.8017
  349MOL    C3842494   7.321   8.880   1.244  0.8748  0.0131 -0.2739
  349MOL   Cl3942495   7.419   8.987   1.344 -0.4058  0.5179  0.6446
  349MOL   Cl4042496   7.382   8.894   1.075 -0.1001  0.2438  0.0274
  349MOL    C4142497   7.325   8.726   1.288  0.4580  0.0036  0.6805
  349MOL    H4242498   7.287   8.715   1.390 -2.0476  1.0363 -0.0894
  349MOL    H4342499   7.249   8.674   1.228 -0.4997  2.0493  0.0673
  349MOL    C4442500   7.461   8.644   1.274 -0.3878 -0.3674  0.8365
  349MOL   Cl4542501   7.601   8.735   1.336  0.1997 -0.0880 -0.0130
  349MOL   Cl4642502   7.487   8.610   1.102  0.2779  0.6326 -0.0134
  349MOL    C4742503   7.467   8.519   1.355  0.5081  0.0111  0.0441
  349MOL    H4842504   7.563   8.476   1.327 -0.2794  1.6428 -5.8615
  349MOL    H4942505   7.482   8.556   1.457  2.4570 -0.6043 -0.0106
  349MOL    C5042506   7.358   8.409   1.352 -0.8997  0.4633  0.6372
  349MOL   Cl5142507   7.343   8.339   1.181 -0.2963 -0.4451  0.0427
  349MOL   Cl5242508   7.211   8.468   1.413 -0.3305  0.1705 -0.5529
  349MOL    C5342509   7.395   8.291   1.449 -0.4685  0.0658  0.1573
  349MOL    H5442510   7.493   8.261   1.413 -0.8974  0.6981 -1.6004
  349MOL    H5542511   7.417   8.330   1.549 -3.9740  0.0085  1.0260
  349MOL    C5642512   7.309   8.161   1.483 -0.9421 -0.4730  0.2086
  349MOL   Cl5742513   7.164   8.197   1.576  0.0236 -0.0897  0.0744
  349MOL   Cl5842514   7.418   8.068   1.600 -0.0789  0.1370  0.2004
  349MOL    C5942515   7.268   8.073   1.358  0.1981  0.3137 -0.3421
  349MOL    H6042516   7.174   8.112   1.319 -0.8138 -1.2372  0.4776
  349MOL    H6142517   7.348   8.076   1.284  0.7750 -2.3820  0.1156
  349MOL    C6242518   7.237   7.926   1.364  0.4121 -0.4708 -0.1888
  349MOL   Cl6342519   7.393   7.833   1.370 -0.1215  0.0626  0.2334
  349MOL   Cl6442520   7.168   7.872   1.208  0.2136  0.3760 -0.1711
  349MOL    C6542521   7.148   7.880   1.481 -0.1796 -0.3682  0.1207
  349MOL    H6642522   7.187   7.908   1.579 -1.4907 -0.9899  0.8354
  349MOL    H6742523   7.054   7.935   1.476 -1.1981 -2.1417 -1.3416
  349MOL    C6842524   7.118   7.727   1.503  0.0508  0.1988  0.1350
  349MOL   Cl6942525   7.014   7.650   1.375 -0.0087  0.1152  0.3195
  349MOL   Cl7042526   7.014   7.715   1.649 -0.2394  0.1291 -0.1393
  349MOL    C7142527   7.229   7.614   1.521 -0.0136  0.4512  0.3248
  349MOL    H7242528   7.185   7.515   1.511 -2.4263  1.3172  1.9016
  349MOL    H7342529   7.303   7.625   1.442  0.2256 -0.0676  0.4749
  349MOL    C7442530   7.316   7.606   1.657 -0.1528 -0.6321  0.0269
  349MOL   Cl7542531   7.231   7.502   1.774  0.4000  0.5409 -0.0407
  349MOL   Cl7642532   7.347   7.765   1.720  0.5067 -0.4539 -0.3538
  349MOL    C7742533   7.461   7.544   1.638 -0.0337 -0.2827  0.0648
  349MOL    H7842534   7.525   7.607   1.575  1.6726 -0.9732  1.0945
  349MOL    H7942535   7.508   7.549   1.736 -0.2390 -0.1375  0.1574
  349MOL    C8042536   7.485   7.410   1.568  0.3854  0.5524 -0.3422
  349MOL   Cl8142537   7.644   7.352   1.631  0.4680 -0.2112  0.5407
  349MOL   Cl8242538   7.483   7.433   1.393  0.1687  0.1130  0.0469
  349MOL    C8342539   7.387   7.295   1.595 -0.4908 -0.4996 -0.2268
  349MOL    H8442540   7.362   7.304   1.701 -0.4978  0.0165 -0.2707
  349MOL    H8542541   7.295   7.309   1.538  0.1377  1.3651 -0.8331
  349MOL    C8642542   7.420   7.142   1.571  0.3068  0.4488  0.1121
  349MOL   Cl8742543   7.262   7.055   1.568  0.2687  0.0682 -0.2831
  349MOL   Cl8842544   7.523   7.078   1.705  0.3107  0.1774 -0.5621
  349MOL    C8942545   7.495   7.113   1.435  1.0465 -0.1433 -0.2910
  349MOL    H9042546   7.418   7.140   1.363 -1.8471  0.5900  2.9665
  349MOL    H9142547   7.577   7.185   1.435 -0.6481  1.8440  1.4465
  349MOL    C9242548   7.560   6.976   1.397  0.1943 -0.4432  0.6128
  349MOL   Cl9342549   7.724   6.953   1.472  0.0357  0.4159 -0.3829
  349MOL   Cl9442550   7.577   6.989   1.221 -0.2049  0.2035 -0.1944
  349MOL    C9542551   7.470   6.854   1.421 -0.2975 -0.5670 -0.1317
  349MOL    H9642552   7.485   6.843   1.528 -0.1651  2.2946  0.1709
  349MOL    H9742553   7.368   6.894   1.415 -0.2684 -0.3987  0.4143
  349MOL    C9842554   7.487   6.711   1.357  0.4986  0.3979  0.6927
  349MOL   Cl9942555   7.659   6.672   1.347 -0.0005 -0.1905 -0.2722
  349MOL  Cl10042556   7.419   6.718   1.189  0.1456 -0.2902  0.3479
  349MOL   C10142557   7.412   6.593   1.431 -0.1442  0.6981  0.4429
  349MOL   H10242558   7.438   6.499   1.383 -2.8080  0.4815 -0.6960
  349MOL   H10342559   7.442   6.575   1.534 -1.7239 -0.1734  0.7706
  349MOL   C10442560   7.255   6.579   1.439 -0.1505  0.1191 -0.0790
  349MOL  Cl10542561   7.188   6.518   1.284  0.2772 -0.1169 -0.2752
  349MOL  Cl10642562   7.183   6.734   1.468  0.0059 -0.2856  0.3094
  349MOL   C10742563   7.211   6.493   1.555  0.1554  0.4327 -0.4244
  349MOL   H10842564   7.221   6.536   1.655 -1.3388 -1.2829  0.5189
  349MOL   H10942565   7.102   6.488   1.554  0.1444  0.7134 -0.4331
  349MOL   C11042566   7.267   6.345   1.578 -0.0513  0.9635 -0.0132
  349MOL  Cl11142567   7.421   6.363   1.665  0.2688 -0.3104 -0.1572
  349MOL  Cl11242568   7.296   6.257   1.429  0.0187  0.0146  0.1775
  349MOL   C11342569   7.173   6.265   1.670  0.6456  0.1949 -0.4733
  349MOL   H11442570   7.141   6.334   1.748 -0.3123 -0.6327 -0.1168
  349MOL   H11542571   7.082   6.245   1.612 -0.7223  0.2546  1.6109
  349MOL   C11642572   7.217   6.128   1.734 -0.7812  0.4617  0.2344
  349MOL  Cl11742573   7.071   6.037   1.780 -0.2091 -0.4032  0.3458
  349MOL  Cl11842574   7.306   6.157   1.888  0.0942  0.1313  0.3788
  349MOL   C11942575   7.310   6.040   1.648 -0.2877 -0.0119 -0.1965
  349MOL   H12042576   7.345   5.956   1.708  0.4391 -0.8821 -1.8103
  349MOL   H12142577   7.256   6.001   1.563 -1.2910  1.8989 -0.4692
  349MOL   H12242578   7.399   6.087   1.605  1.0227 -2.5645 -0.3570
  350MOL     C142579   8.945   0.542   2.041 -0.0457  0.3896 -0.4053
  350MOL    Cl242580   8.856   0.394   1.993  0.0541  0.0624  0.1024
  350MOL    Cl342581   9.100   0.510   2.129 -0.2604  0.2864  0.3746
  350MOL     C442582   8.965   0.639   1.925 -0.1648 -0.3241  0.8804
  350MOL     H542583   9.042   0.602   1.857 -0.4228  1.6178 -0.5171
  350MOL     H642584   8.867   0.654   1.880 -0.5027 -1.3662  1.2660
  350MOL     H742585   8.872   0.584   2.111 -1.7714 -1.7068 -0.8924
  350MOL     C842586   9.015   0.786   1.957  0.3540 -0.2064 -0.4483
  350MOL    Cl942587   0.005   0.784   2.022 -0.1024  0.0364 -0.4549
  350MOL   Cl1042588   8.913   0.872   2.074  0.0622 -0.2276  0.0063
  350MOL    C1142589   9.011   0.876   1.833  0.1113  0.3529  0.4072
  350MOL    H1242590   8.911   0.916   1.817  0.0262  0.9299  2.2470
  350MOL    H1342591   9.066   0.968   1.852  0.1364  0.3729  0.2288
  350MOL    C1442592   9.060   0.844   1.687 -0.2619 -0.2556 -0.1792
  350MOL   Cl1542593   9.032   0.999   1.594 -0.0284 -0.2372  0.3033
  350MOL   Cl1642594   8.961   0.714   1.609  0.2448 -0.3091 -0.3657
  350MOL    C1742595   0.030   0.818   1.685 -0.1171 -0.0148  0.1403
  350MOL    H1842596   0.080   0.914   1.696 -0.7110  0.3557 -0.4047
  350MOL    H1942597   0.065   0.756   1.767 -0.1523 -1.0193 -0.5939
  350MOL    C2042598   0.103   0.768   1.554 -0.8304  0.2753 -0.1432
  350MOL   Cl2142599   0.026   0.834   1.408 -0.4908  0.3313  0.1872
  350MOL   Cl2242600   0.068   0.591   1.542 -0.0109 -0.3512  0.0376
  350MOL    C2342601   0.255   0.775   1.545 -0.4088 -0.6898 -0.0698
  350MOL    H2442602   0.302   0.694   1.600 -2.0641 -1.4878  0.2199
  350MOL    H2542603   0.280   0.751   1.442 -1.2189  0.8867 -0.6609
  350MOL    C2642604   0.331   0.892   1.593  0.0988 -0.3257  0.3017
  350MOL   Cl2742605   0.328   0.884   1.764 -0.1935 -0.0513  0.1184
  350MOL   Cl2842606   0.253   1.039   1.542 -0.0368  0.0388  0.1918
  350MOL    C2942607   0.474   0.887   1.528 -0.2915 -0.1771 -1.0806
  350MOL    H3042608   0.506   0.784   1.519  1.5247  0.0134  2.4240
  350MOL    H3142609   0.471   0.916   1.423 -1.4259 -0.5323 -1.1546
  350MOL    C3242610   0.600   0.957   1.597  0.2324  0.4078  0.3580
  350MOL   Cl3342611   0.739   0.949   1.488  0.0269 -0.2881 -0.1311
  350MOL   Cl3442612   0.635   0.879   1.755 -0.1593 -0.0733 -0.0467
  350MOL    C3542613   0.575   1.108   1.625 -0.3131 -0.1347  0.0690
  350MOL    H3642614   0.505   1.147   1.552  0.2699  0.4094 -0.2066
  350MOL    H3742615   0.503   1.114   1.707 -0.5480 -2.2088  0.0339
  350MOL    C3842616   0.687   1.213   1.649  0.5683  0.0470  0.2713
  350MOL   Cl3942617   0.769   1.248   1.499 -0.3865  0.3281  0.1634
  350MOL   Cl4042618   0.809   1.139   1.750  0.3422  0.4292  0.3568
  350MOL    C4142619   0.629   1.339   1.721 -0.0953 -0.2481  0.0777
  350MOL    H4242620   0.524   1.355   1.696 -0.6087 -1.6059  1.3049
  350MOL    H4342621   0.621   1.305   1.824  0.2972  0.1290  0.2326
  350MOL    C4442622   0.711   1.469   1.725  0.7181  0.5320  0.1644
  350MOL   Cl4542623   0.618   1.572   1.831 -0.0003 -0.1697 -0.0981
  350MOL   Cl4642624   0.709   1.534   1.559 -0.2067 -0.1037 -0.1403
  350MOL    C4742625   0.860   1.458   1.769 -0.4409  0.0863  0.0605
  350MOL    H4842626   0.858   1.386   1.851 -0.8908  1.0092  0.8575
  350MOL    H4942627   0.914   1.409   1.688 -0.6741 -1.6371  0.9182
  350MOL    C5042628   0.937   1.582   1.829  0.4930  0.8427  0.8826
  350MOL   Cl5142629   1.110   1.530   1.834  0.0546 -0.3586 -0.0474
  350MOL   Cl5242630   0.888   1.604   1.994  0.0964  0.3399 -0.1965
  350MOL    C5342631   0.927   1.710   1.739 -0.0290  1.5327  0.9723
  350MOL    H5442632   1.016   1.698   1.677 -1.1156 -0.3099 -0.2621
  350MOL    H5542633   0.839   1.713   1.675  1.6223  2.8688 -1.3007
  350MOL    C5642634   0.952   1.844   1.798 -0.5904 -0.2250 -0.1662
  350MOL   Cl5742635   0.960   1.940   1.651 -0.4484 -0.3049 -0.4892
  350MOL   Cl5842636   1.108   1.844   1.883 -0.2998  0.4270  0.1800
  350MOL    C5942637   0.828   1.896   1.879 -0.6970 -0.3196 -0.6760
  350MOL    H6042638   0.740   1.842   1.845  0.1792 -0.9516 -1.9864
  350MOL    H6142639   0.845   1.855   1.979  3.1096  1.3908 -0.5277
  350MOL    C6242640   0.796   2.052   1.900  0.2864 -0.3601 -0.5209
  350MOL   Cl6342641   0.766   2.144   1.752 -0.6337  0.2378 -0.2366
  350MOL   Cl6442642   0.946   2.114   1.970 -0.1409 -0.3590 -0.1144
  350MOL    C6542643   0.681   2.068   2.005  0.4757  0.3364  0.3927
  350MOL    H6642644   0.589   2.045   1.952  1.7704 -3.6197 -0.3414
  350MOL    H6742645   0.667   1.988   2.078 -0.2355  1.3114  1.3395
  350MOL    C6842646   0.667   2.199   2.096  0.1117  0.0137  0.4789
  350MOL   Cl6942647   0.768   2.169   2.244  0.2227  0.2401  0.4915
  350MOL   Cl7042648   0.490   2.201   2.144 -0.3291 -0.1116 -0.0560
  350MOL    C7142649   0.693   2.328   2.021 -0.1097  0.1503  0.4715
  350MOL    H7242650   0.788   2.320   1.968  0.4742 -0.4201  1.5834
  350MOL    H7342651   0.619   2.333   1.941  2.3511  0.0779 -1.8550
  350MOL    C7442652   0.708   2.459   2.099 -0.0030  0.2334  0.7519
  350MOL   Cl7542653   0.862   2.470   2.185  0.3655  0.0396 -0.1766
  350MOL   Cl7642654   0.589   2.480   2.234 -0.1203 -0.5993 -0.0007
  350MOL    C7742655   0.721   2.580   1.997 -0.5347 -0.0121  0.5912
  350MOL    H7842656   0.754   2.664   2.057 -0.5953 -0.0135  0.6258
  350MOL    H7942657   0.798   2.571   1.920 -2.4596 -0.8778 -1.2822
  350MOL    C8042658   0.601   2.646   1.925 -0.3392  0.2085  0.1881
  350MOL   Cl8142659   0.558   2.550   1.775 -0.0904  0.1478  0.0396
  350MOL   Cl8242660   0.655   2.804   1.855 -0.1723 -0.1523 -0.2454
  350MOL    C8342661   0.474   2.648   2.010  0.0538 -0.0007 -0.0938
  350MOL    H8442662   0.442   2.546   2.029 -1.0303  0.0263 -1.7094
  350MOL    H8542663   0.492   2.690   2.109  0.3410 -1.0434  0.2994
  350MOL    C8642664   0.348   2.730   1.972  0.0307 -0.0682 -0.4948
  350MOL   Cl8742665   0.382   2.908   1.982 -0.0696  0.0129  0.3040
  350MOL   Cl8842666   0.226   2.689   2.094 -0.2666  0.2663  0.4293
  350MOL    C8942667   0.287   2.696   1.829  0.2398  0.1173  0.7626
  350MOL    H9042668   0.357   2.744   1.761 -0.2939  0.5595  0.5187
  350MOL    H9142669   0.301   2.588   1.817  2.2542  0.6307 -1.8739
  350MOL    C9242670   0.134   2.737   1.790 -0.1153  1.0047 -0.3878
  350MOL   Cl9342671   0.098   2.903   1.844 -0.6771 -0.4561 -0.1906
  350MOL   Cl9442672   0.032   2.607   1.861 -0.0289 -0.1636  0.0358
  350MOL    C9542673   0.103   2.732   1.638  0.0266 -0.6412 -0.0309
  350MOL    H9642674   0.096   2.628   1.606  0.1027  0.5260 -4.1169
  350MOL    H9742675   0.005   2.780   1.639  0.5838  0.5586  3.0032
  350MOL    C9842676   0.190   2.802   1.523  0.0751  0.4284 -0.3698
  350MOL   Cl9942677   0.326   2.686   1.492 -0.2332 -0.3362 -0.0925
  350MOL  Cl10042678   0.272   2.954   1.586 -0.0323 -0.2153  0.3215
  350MOL   C10142679   0.106   2.854   1.399 -0.0042  0.2483  0.2257
  350MOL   H10242680   0.040   2.928   1.443 -1.5830 -1.4656  0.7772
  350MOL   H10342681   0.179   2.911   1.341 -2.2928  0.7092 -2.3151
  350MOL   C10442682   0.022   2.757   1.307  0.4378 -0.2385  0.3069
  350MOL  Cl10542683   9.067   2.683   1.399  0.0182 -0.1241 -0.4195
  350MOL  Cl10642684   0.131   2.627   1.251  0.1394 -0.4326  0.4073
  350MOL   C10742685   9.145   2.831   1.179  0.3422  0.7459 -0.5890
  350MOL   H10842686   0.047   2.862   1.114  1.8891 -0.6790  0.6533
  350MOL   H10942687   9.099   2.756   1.114 -2.5157  2.7362 -0.9315
  350MOL   C11042688   9.042   2.952   1.193  0.1862  0.4257 -0.6091
  350MOL  Cl11142689   9.126   3.097   1.250 -0.1712  0.6425 -0.2676
  350MOL  Cl11242690   8.906   2.932   1.308 -0.0552  0.4367 -0.0970
  350MOL   C11342691   8.986   2.993   1.055 -1.2490  0.6584  0.8968
  350MOL   H11442692   8.927   3.083   1.071 -1.1561  0.4675  2.3763
  350MOL   H11542693   9.072   3.029   0.998 -1.5080  0.4319  0.3638
  350MOL   C11642694   8.894   2.892   0.973  0.1079  0.3436  0.3926
  350MOL  Cl11742695   9.002   2.803   0.867 -0.0696 -0.0992 -0.2423
  350MOL  Cl11842696   8.792   2.993   0.868  0.1048  0.2813 -0.6059
  350MOL   C11942697   8.799   2.795   1.041  0.1529  0.3942 -0.0011
  350MOL   H12042698   8.855   2.737   1.115  0.7839 -0.0854 -0.8424
  350MOL   H12142699   8.716   2.845   1.089 -1.8326 -0.3895 -2.5201
  350MOL   H12242700   8.750   2.730   0.969 -1.3194  1.4316  0.0411
  351MOL     C142701   2.932   1.405   5.905 -0.2720 -0.1376 -0.0930
  351MOL    Cl242702   3.005   1.318   6.044  0.4644 -0.4987  0.0681
  351MOL    Cl342703   2.934   1.588   5.907  0.1379 -0.0716 -0.0158
  351MOL     C442704   2.997   1.355   5.777  0.8440  0.1923  0.2221
  351MOL     H542705   3.087   1.416   5.768  0.4793  0.8054  0.7547
  351MOL     H642706   3.032   1.253   5.799 -0.5322 -0.1831  0.6959
  351MOL     H742707   2.827   1.375   5.911 -0.9339  2.4401  2.0988
  351MOL     C842708   2.908   1.350   5.646 -0.1973  0.2668 -0.7741
  351MOL    Cl942709   2.859   1.514   5.596 -0.1183  0.0548  0.1535
  351MOL   Cl1042710   2.751   1.279   5.692  0.1808  0.2323  0.2455
  351MOL    C1142711   2.971   1.292   5.524  0.3200 -0.1237 -0.0263
  351MOL    H1242712   2.962   1.185   5.544  1.6820 -0.4031 -0.7959
  351MOL    H1342713   2.905   1.312   5.440 -1.0114 -0.4095  0.9290
  351MOL    C1442714   3.122   1.308   5.478  0.3095 -0.3665 -0.1473
  351MOL   Cl1542715   3.234   1.220   5.594 -0.6248 -0.4497  0.4296
  351MOL   Cl1642716   3.154   1.479   5.482 -0.0412  0.3747  0.2790
  351MOL    C1742717   3.157   1.263   5.334 -0.0916 -0.3268  0.2179
  351MOL    H1842718   3.113   1.331   5.261  1.3144  0.7449  0.3562
  351MOL    H1942719   3.263   1.285   5.328 -0.2097  0.2074  0.0102
  351MOL    C2042720   3.145   1.111   5.277  0.7694  0.0185  0.4282
  351MOL   Cl2142721   3.168   1.120   5.106 -0.0779  0.1407  0.0495
  351MOL   Cl2242722   2.976   1.038   5.295  0.2178 -0.1192 -0.1257
  351MOL    C2342723   3.257   1.012   5.338  0.3454  0.5557  1.0560
  351MOL    H2442724   3.351   1.041   5.290 -0.7421 -0.0963 -1.5758
  351MOL    H2542725   3.284   1.037   5.440  1.5536 -0.2234  0.9329
  351MOL    C2642726   3.239   0.851   5.347  0.8841  0.1101  0.2931
  351MOL   Cl2742727   3.123   0.832   5.492  0.0821 -0.2207 -0.1897
  351MOL   Cl2842728   3.392   0.785   5.404  0.1875  0.1908 -0.1422
  351MOL    C2942729   3.177   0.778   5.230 -0.1556 -0.3204  1.0964
  351MOL    H3042730   3.074   0.781   5.263  0.9909 -0.4828  4.8479
  351MOL    H3142731   3.205   0.836   5.142 -0.8842 -1.6626 -0.0450
  351MOL    C3242732   3.204   0.621   5.190 -0.1683 -1.0242  0.2954
  351MOL   Cl3342733   3.377   0.604   5.137 -0.1387  0.4092  0.2220
  351MOL   Cl3442734   3.093   0.571   5.055  0.2411  0.6452 -0.1817
  351MOL    C3542735   3.176   0.538   5.315  0.0033 -0.0825  0.4356
  351MOL    H3642736   3.256   0.579   5.377  0.6586  1.3710 -1.3190
  351MOL    H3742737   3.085   0.564   5.369 -0.7404 -0.2086 -0.7489
  351MOL    C3842738   3.189   0.379   5.320 -0.2190  0.0598  0.6563
  351MOL   Cl3942739   3.356   0.310   5.290 -0.0213 -0.2887 -0.1578
  351MOL   Cl4042740   3.072   0.304   5.207  0.3241  0.5991  0.3337
  351MOL    C4142741   3.144   0.323   5.458 -0.1143  0.1250 -0.3385
  351MOL    H4242742   3.041   0.353   5.475 -0.5919 -1.9200  0.5704
  351MOL    H4342743   3.137   0.214   5.447  2.0661 -0.1411  0.6315
  351MOL    C4442744   3.220   0.334   5.598 -0.1850 -0.7561 -0.1475
  351MOL   Cl4542745   3.270   0.511   5.621  0.0707 -0.1366 -0.0446
  351MOL   Cl4642746   3.365   0.230   5.586  0.2159  0.1880  0.7802
  351MOL    C4742747   3.142   0.285   5.723  0.2226 -0.3797  0.1356
  351MOL    H4842748   3.136   0.176   5.719  0.5631 -0.3746 -0.5738
  351MOL    H4942749   3.201   0.318   5.808 -2.5169  3.0767  0.8278
  351MOL    C5042750   2.989   0.307   5.747 -0.1970 -0.4050  0.3909
  351MOL   Cl5142751   2.883   0.197   5.650  0.1752  0.3150 -0.1755
  351MOL   Cl5242752   2.948   0.475   5.708 -0.3043 -0.0828 -0.4043
  351MOL    C5342753   2.950   0.279   5.895  0.4347 -0.7287  0.6800
  351MOL    H5442754   2.985   0.183   5.932  3.6250 -0.6802 -1.9610
  351MOL    H5542755   3.007   0.347   5.959 -1.7837  0.5115  1.3870
  351MOL    C5642756   2.796   0.292   5.944 -0.8170 -0.0112 -0.6701
  351MOL   Cl5742757   2.810   0.315   6.122  0.3127  0.3404 -0.1753
  351MOL   Cl5842758   2.724   0.136   5.932 -0.2807  0.3680  0.2664
  351MOL    C5942759   2.704   0.403   5.891 -0.2933 -0.8389 -0.5367
  351MOL    H6042760   2.757   0.498   5.883  0.4865 -1.4546 -3.2877
  351MOL    H6142761   2.683   0.370   5.790  1.1235 -0.5130 -0.9570
  351MOL    C6242762   2.560   0.439   5.946 -0.3938  0.8237 -0.0215
  351MOL   Cl6342763   2.459   0.292   5.959 -0.3564  0.2445 -0.2327
  351MOL   Cl6442764   2.492   0.549   5.820  0.1556 -0.0218  0.2648
  351MOL    C6542765   2.563   0.513   6.086  0.9489 -0.5666 -0.6621
  351MOL    H6642766   2.599   0.446   6.165  2.8292  2.5534  1.2115
  351MOL    H6742767   2.642   0.587   6.084  0.8128 -0.2857  1.9266
  351MOL    C6842768   2.451   0.595   6.137  0.0004  0.2098 -0.1686
  351MOL   Cl6942769   2.467   0.763   6.066 -0.2788  0.4923 -0.1975
  351MOL   Cl7042770   2.491   0.609   6.312 -0.1915 -0.4884  0.0796
  351MOL    C7142771   2.307   0.534   6.112  0.5067 -0.8031  0.0097
  351MOL    H7242772   2.300   0.537   6.004  2.9679 -1.0164 -0.1759
  351MOL    H7342773   2.308   0.427   6.132  0.0773 -0.9462 -0.7219
  351MOL    C7442774   2.182   0.596   6.174  0.9378 -0.4360  0.2362
  351MOL   Cl7542775   2.182   0.776   6.160  0.0727 -0.0805 -0.1086
  351MOL   Cl7642776   2.168   0.570   6.346 -0.2016 -0.2552  0.4031
  351MOL    C7742777   2.045   0.539   6.120 -0.2688  0.0857  0.4513
  351MOL    H7842778   2.037   0.439   6.162 -0.1123 -0.1738 -0.1464
  351MOL    H7942779   1.975   0.604   6.175 -3.0458 -2.2741 -0.1847
  351MOL    C8042780   2.006   0.529   5.973  0.5577 -0.1643 -0.2693
  351MOL   Cl8142781   2.085   0.378   5.905 -0.2222  0.0372  0.1346
  351MOL   Cl8242782   2.061   0.671   5.876  0.0900 -0.3104  0.2329
  351MOL    C8342783   1.847   0.517   5.967  0.6662  0.9760 -0.2700
  351MOL    H8442784   1.809   0.483   6.063  1.1331  0.9701 -0.0859
  351MOL    H8542785   1.818   0.622   5.961 -1.5504  0.3719 -0.3679
  351MOL    C8642786   1.766   0.446   5.848 -0.5184 -0.1426  0.2468
  351MOL   Cl8742787   1.608   0.532   5.853  0.4335 -0.2868 -0.4671
  351MOL   Cl8842788   1.738   0.279   5.912 -0.3786  0.1195 -0.3862
  351MOL    C8942789   1.828   0.465   5.704 -0.4075  0.1561 -0.1257
  351MOL    H9042790   1.819   0.570   5.675  1.9040  0.6152  0.6958
  351MOL    H9142791   1.935   0.456   5.720 -0.5559 -0.2117  0.6891
  351MOL    C9242792   1.805   0.364   5.590  0.5974 -0.2569 -1.2601
  351MOL   Cl9342793   1.632   0.328   5.593  0.2555  0.5281 -0.1101
  351MOL   Cl9442794   1.896   0.213   5.626 -0.4219 -0.3262 -0.1132
  351MOL    C9542795   1.840   0.419   5.451  0.4875 -0.2305  0.2043
  351MOL    H9642796   1.837   0.333   5.384 -0.0867 -0.8331  1.0000
  351MOL    H9742797   1.761   0.487   5.420  1.4055  0.2178 -1.1811
  351MOL    C9842798   1.970   0.509   5.433 -0.1198  0.2043  0.5047
  351MOL   Cl9942799   2.112   0.434   5.519  0.2225  0.5506 -0.4020
  351MOL  Cl10042800   1.950   0.681   5.496 -0.2120  0.3762 -0.1631
  351MOL   C10142801   2.012   0.521   5.284 -0.5992 -0.1134  0.7575
  351MOL   H10242802   2.091   0.595   5.274  1.5160 -2.2723  1.0601
  351MOL   H10342803   2.077   0.436   5.262  1.0250  1.3165 -0.1528
  351MOL   C10442804   1.897   0.533   5.171  0.0561 -0.4763  0.0837
  351MOL  Cl10542805   1.821   0.378   5.123  0.2091  0.6753  0.2374
  351MOL  Cl10642806   1.980   0.577   5.015 -0.4421 -0.0775  0.0380
  351MOL   C10742807   1.790   0.656   5.191  0.4631  0.3829 -0.4358
  351MOL   H10842808   1.750   0.678   5.290 -0.3235  1.0991 -0.9087
  351MOL   H10942809   1.847   0.745   5.166  0.0438  1.0603  0.9709
  351MOL   C11042810   1.660   0.665   5.098 -0.7419  0.6661 -0.7011
  351MOL  Cl11142811   1.556   0.521   5.131 -0.1264 -0.4230  0.2861
  351MOL  Cl11242812   1.688   0.686   4.927  0.2416  0.4158  0.2110
  351MOL   C11342813   1.560   0.786   5.135 -0.3077 -0.0368 -0.2608
  351MOL   H11442814   1.474   0.773   5.069 -1.8415  0.1772  1.6582
  351MOL   H11542815   1.520   0.781   5.236  4.2949 -0.7143  1.6552
  351MOL   C11642816   1.612   0.929   5.137  0.1175 -0.0510 -0.6133
  351MOL  Cl11742817   1.719   0.963   5.274 -0.1789  0.0148 -0.1831
  351MOL  Cl11842818   1.463   1.024   5.164 -0.3050 -0.6044 -0.0992
  351MOL   C11942819   1.697   0.979   5.018 -0.4881  0.4545  0.1076
  351MOL   H12042820   1.718   1.085   5.031  0.3669  0.4351 -1.0344
  351MOL   H12142821   1.794   0.930   5.007 -1.2863 -1.2580  0.4526
  351MOL   H12242822   1.659   0.955   4.919 -2.4572 -1.5581  1.2979
  352MOL     C142823   8.657   3.216   5.469  0.3340 -0.1472  0.1379
  352MOL    Cl242824   8.665   3.302   5.624 -0.1552  0.1834  0.2457
  352MOL    Cl342825   8.559   3.075   5.489  0.2172 -0.2651 -0.1393
  352MOL     C442826   8.594   3.300   5.351 -0.0730  0.7969  0.1649
  352MOL     H542827   8.564   3.237   5.268 -1.0171 -0.0855  1.1463
  352MOL     H642828   8.497   3.334   5.388 -0.4400 -0.2080  0.1504
  352MOL     H742829   8.755   3.180   5.437 -0.3597 -2.4312  0.4912
  352MOL     C842830   8.696   3.404   5.294  0.6261 -0.4536  0.5760
  352MOL    Cl942831   8.842   3.313   5.243 -0.0148  0.2562  0.2627
  352MOL   Cl1042832   8.757   3.518   5.423 -0.3173  0.5997  0.2344
  352MOL    C1142833   8.644   3.479   5.171 -0.0272  0.4310  0.0123
  352MOL    H1242834   8.725   3.550   5.155  1.8501 -1.7324 -0.3438
  352MOL    H1342835   8.637   3.418   5.081 -2.0757 -1.0146  1.1069
  352MOL    C1442836   8.508   3.557   5.187  0.4991  0.1014 -0.3903
  352MOL   Cl1542837   8.496   3.645   5.344  0.2279  0.4256  0.0948
  352MOL   Cl1642838   8.376   3.439   5.192  0.0307  0.0976  0.6479
  352MOL    C1742839   8.480   3.664   5.080 -0.9076 -0.0281 -0.0748
  352MOL    H1842840   8.446   3.615   4.989  0.5268  0.7127 -1.0322
  352MOL    H1942841   8.404   3.733   5.116 -1.3323 -1.6711  2.2845
  352MOL    C2042842   8.587   3.754   5.022 -0.2061  0.6020  0.4236
  352MOL   Cl2142843   8.688   3.655   4.907  0.2316  0.3064  0.1236
  352MOL   Cl2242844   8.703   3.826   5.141  0.1720  0.0843 -0.1817
  352MOL    C2342845   8.537   3.867   4.927  0.1911 -0.0481 -0.2224
  352MOL    H2442846   8.622   3.935   4.921  1.0653 -0.7949  2.6355
  352MOL    H2542847   8.519   3.820   4.831  0.9399 -0.3633 -0.2169
  352MOL    C2642848   8.416   3.962   4.956 -0.6303  0.2856 -0.0547
  352MOL   Cl2742849   8.442   4.025   5.120  0.2023 -0.0882  0.0406
  352MOL   Cl2842850   8.263   3.867   4.944 -0.2407  0.3019  0.2088
  352MOL    C2942851   8.416   4.085   4.858 -0.6646 -0.0703 -0.4082
  352MOL    H3042852   8.505   4.140   4.889  0.1865 -3.0585  2.7865
  352MOL    H3142853   8.429   4.058   4.753 -2.5755 -0.2848 -0.6074
  352MOL    C3242854   8.294   4.179   4.850  0.1660  0.0042 -0.1460
  352MOL   Cl3342855   8.341   4.330   4.773 -0.5623  0.2252 -0.0580
  352MOL   Cl3442856   8.250   4.223   5.015 -0.6255  0.2178 -0.0731
  352MOL    C3542857   8.166   4.125   4.780 -0.1620 -0.0678 -0.1482
  352MOL    H3642858   8.112   4.060   4.849 -0.9861 -0.5815 -1.2570
  352MOL    H3742859   8.098   4.211   4.778 -1.4333 -1.0706 -1.1465
  352MOL    C3842860   8.161   4.073   4.636  0.4337  0.4408  0.4802
  352MOL   Cl3942861   8.265   3.926   4.611 -0.2600 -0.3768  0.0760
  352MOL   Cl4042862   8.218   4.205   4.529  0.5478 -0.1290  0.1838
  352MOL    C4142863   8.011   4.031   4.599  0.4909 -0.3924 -0.4450
  352MOL    H4242864   7.980   3.961   4.676  0.8910  2.1952  2.1343
  352MOL    H4342865   7.955   4.122   4.620  0.1612 -0.1297 -2.3183
  352MOL    C4442866   7.966   3.989   4.458 -0.8210 -0.8721  0.0984
  352MOL   Cl4542867   7.925   4.143   4.363  0.1270 -0.2272  0.0297
  352MOL   Cl4642868   7.808   3.918   4.492 -0.2189  0.2666 -0.0589
  352MOL    C4742869   8.048   3.886   4.371 -0.1171  0.2573 -0.2249
  352MOL    H4842870   8.144   3.930   4.346  0.2065  0.5126  1.3932
  352MOL    H4942871   8.070   3.801   4.436  1.8511  0.3108 -0.7778
  352MOL    C5042872   8.006   3.820   4.234  0.1427 -0.4300 -0.1317
  352MOL   Cl5142873   8.152   3.773   4.142 -0.0031 -0.1105  0.1338
  352MOL   Cl5242874   7.936   3.947   4.127 -0.1019  0.0068 -0.0478
  352MOL    C5342875   7.890   3.719   4.249  0.7305 -1.1139 -0.1519
  352MOL    H5442876   7.833   3.753   4.335 -0.9889  1.7924 -2.3545
  352MOL    H5542877   7.819   3.728   4.167 -1.2355 -0.2163  1.6145
  352MOL    C5642878   7.918   3.567   4.270  0.1507  0.0201  0.1166
  352MOL   Cl5742879   8.075   3.547   4.360 -0.4443 -0.3334 -0.1786
  352MOL   Cl5842880   7.962   3.496   4.111 -0.4449  0.3207  0.4104
  352MOL    C5942881   7.813   3.488   4.351 -0.7174 -0.0444  0.2764
  352MOL    H6042882   7.858   3.389   4.353  0.9828  0.7305  0.6142
  352MOL    H6142883   7.830   3.524   4.452  0.8903  0.4126 -0.1561
  352MOL    C6242884   7.665   3.478   4.313  1.2403  0.6114 -0.6705
  352MOL   Cl6342885   7.575   3.628   4.350  0.1243 -0.0174 -0.4117
  352MOL   Cl6442886   7.605   3.359   4.432 -0.0398  0.3214  0.3031
  352MOL    C6542887   7.652   3.417   4.170 -0.0011 -0.3606  0.1670
  352MOL    H6642888   7.700   3.486   4.101 -0.0929 -0.5823 -0.1223
  352MOL    H6742889   7.716   3.329   4.157 -0.3323 -0.4352 -1.0605
  352MOL    C6842890   7.509   3.404   4.107  0.8932  1.0623  0.2119
  352MOL   Cl6942891   7.439   3.560   4.067 -0.1151 -0.0917  0.2382
  352MOL   Cl7042892   7.380   3.327   4.216  0.0468 -0.2551 -0.0928
  352MOL    C7142893   7.506   3.324   3.980  0.4850  0.8316  0.7217
  352MOL    H7242894   7.403   3.322   3.944  1.5292 -1.1942 -2.3526
  352MOL    H7342895   7.541   3.395   3.906 -1.6483  1.8301  0.6338
  352MOL    C7442896   7.565   3.180   3.974  0.7562  0.2888 -0.3115
  352MOL   Cl7542897   7.463   3.098   3.852  0.1325  0.3259  0.2900
  352MOL   Cl7642898   7.539   3.086   4.132 -0.1360  0.0492 -0.1187
  352MOL    C7742899   7.713   3.185   3.928 -0.2105 -0.4563 -0.6965
  352MOL    H7842900   7.741   3.283   3.891  2.1916 -1.3893 -1.4307
  352MOL    H7942901   7.775   3.184   4.018  0.5137  0.6759 -1.1721
  352MOL    C8042902   7.764   3.077   3.830  0.1869  0.2855 -0.2895
  352MOL   Cl8142903   7.709   2.918   3.892 -0.4952  0.2377  0.0503
  352MOL   Cl8242904   7.939   3.077   3.854  0.0871  0.8822 -0.2853
  352MOL    C8342905   7.738   3.096   3.678 -0.2867  0.6054  0.7130
  352MOL    H8442906   7.807   3.033   3.622 -3.3235  1.0536 -3.7528
  352MOL    H8542907   7.643   3.046   3.660  0.9696 -0.9244 -1.9953
  352MOL    C8642908   7.740   3.228   3.599  0.3789  0.6813  0.0477
  352MOL   Cl8742909   7.898   3.313   3.637  0.3408  0.0467 -0.0134
  352MOL   Cl8842910   7.599   3.322   3.660 -0.0966 -0.0856  0.1230
  352MOL    C8942911   7.719   3.221   3.447  0.1396  0.3601  0.2936
  352MOL    H9042912   7.613   3.206   3.426  0.0716 -0.1622  0.9973
  352MOL    H9142913   7.735   3.325   3.418  1.4831  0.3634  0.9642
  352MOL    C9242914   7.799   3.115   3.357 -0.0403  0.0211 -0.2571
  352MOL   Cl9342915   7.726   2.963   3.383  0.3175 -0.6291 -0.0319
  352MOL   Cl9442916   7.972   3.097   3.393 -0.4737 -0.2010 -0.0292
  352MOL    C9542917   7.786   3.147   3.208  0.3591 -0.3597  0.2488
  352MOL    H9642918   7.843   3.074   3.151  1.7288  0.5025  0.4879
  352MOL    H9742919   7.683   3.125   3.182  0.8545 -1.8618 -0.5022
  352MOL    C9842920   7.812   3.293   3.151 -0.0270  0.3156  0.1986
  352MOL   Cl9942921   7.669   3.402   3.195 -0.0615 -0.0458 -0.2763
  352MOL  Cl10042922   7.779   3.269   2.977  0.2704  0.1515 -0.4509
  352MOL   C10142923   7.954   3.346   3.175 -0.1761 -0.0144 -0.5440
  352MOL   H10242924   7.969   3.342   3.283 -0.4044  2.7108 -0.3704
  352MOL   H10342925   8.017   3.266   3.136 -0.8823 -0.7831 -0.1062
  352MOL   C10442926   8.009   3.494   3.138  0.1254 -0.1366  0.1033
  352MOL  Cl10542927   8.189   3.501   3.145 -0.0246 -0.1664  0.0450
  352MOL  Cl10642928   7.950   3.585   3.276 -0.3515  0.1634 -0.3572
  352MOL   C10742929   7.954   3.556   3.007 -0.4011  0.3112  0.3038
  352MOL   H10842930   7.981   3.484   2.930  0.3936 -0.9292  1.7028
  352MOL   H10942931   7.846   3.565   3.018 -0.0437  2.7327  2.4386
  352MOL   C11042932   7.991   3.698   2.953 -0.8068 -0.3374 -0.4250
  352MOL  Cl11142933   7.919   3.816   3.067  0.1036  0.4327 -0.3811
  352MOL  Cl11242934   7.920   3.723   2.792 -0.4213  0.3923  0.3354
  352MOL   C11342935   8.146   3.719   2.940 -0.1314  0.7822  0.8423
  352MOL   H11442936   8.186   3.729   3.041  0.2931  1.3008  0.6271
  352MOL   H11542937   8.201   3.635   2.899 -0.2837  0.6922  0.8217
  352MOL   C11642938   8.203   3.841   2.873 -0.4537  0.0871  0.1254
  352MOL  Cl11742939   8.206   3.825   2.694 -0.4146  0.1956  0.4981
  352MOL  Cl11842940   8.377   3.848   2.936  0.2298 -0.3046  0.3837
  352MOL   C11942941   8.136   3.972   2.909  0.1645 -0.4266 -0.7272
  352MOL   H12042942   8.190   4.058   2.870 -1.6195  0.7973 -0.5420
  352MOL   H12142943   8.038   3.989   2.864 -0.3329 -2.5416 -0.4709
  352MOL   H12242944   8.117   3.986   3.015  0.0133  2.1481 -1.0640
  353MOL     C142945   0.014   4.505   0.092  0.8144 -0.3171 -0.3556
  353MOL    Cl242946   9.038   4.558   0.033  0.4944  0.3459  0.4507
  353MOL    Cl342947   9.179   4.479   0.261 -0.0073 -0.1154 -0.0861
  353MOL     C442948   0.069   4.375   0.012 -0.5294  0.5426  0.1045
  353MOL     H542949   0.141   4.334   0.083 -0.6678  0.2036  0.0543
  353MOL     H642950   9.168   4.305   9.171  1.0833 -0.9799 -1.2582
  353MOL     H742951   0.089   4.584   0.092 -1.1815  1.6189  1.9849
  353MOL     C842952   0.159   4.404   9.072  0.1858  0.1507 -0.0569
  353MOL    Cl942953   0.229   4.246   9.021 -0.2718 -0.0652  0.0511
  353MOL   Cl1042954   0.299   4.508   9.130 -0.0678  0.0610  0.0044
  353MOL    C1142955   0.074   4.462   8.951 -1.1826  0.5560  0.5046
  353MOL    H1242956   9.149   4.433   8.959 -1.3469  1.3639  1.4376
  353MOL    H1342957   0.076   4.569   8.969  0.7537  0.3865  1.4526
  353MOL    C1442958   0.112   4.437   8.801 -0.4291  0.4808 -0.2977
  353MOL   Cl1542959   0.028   4.565   8.714  0.1057 -0.2438  0.1004
  353MOL   Cl1642960   0.054   4.278   8.746  0.1576  0.7289 -0.3750
  353MOL    C1742961   0.263   4.460   8.778  0.2202  0.0233  0.3452
  353MOL    H1842962   0.272   4.564   8.807 -1.1644  0.7392 -1.6320
  353MOL    H1942963   0.326   4.399   8.842 -0.6426 -1.7226 -0.4232
  353MOL    C2042964   0.335   4.435   8.643 -1.5557  0.2764  0.8388
  353MOL   Cl2142965   0.259   4.514   8.500 -0.0349  0.1563 -0.1198
  353MOL   Cl2242966   0.363   4.264   8.610  0.0968  0.0421  0.2248
  353MOL    C2342967   0.476   4.488   8.639  0.1721  0.5826 -0.6083
  353MOL    H2442968   0.540   4.419   8.694 -2.0159 -0.8910  0.1527
  353MOL    H2542969   0.508   4.481   8.535 -2.2343  1.9038 -1.4920
  353MOL    C2642970   0.498   4.633   8.696  0.1154  0.5642 -0.1452
  353MOL   Cl2742971   0.660   4.690   8.640 -0.3673 -0.0957  0.1509
  353MOL   Cl2842972   0.510   4.625   8.879  0.2489  0.0346 -0.0245
  353MOL    C2942973   0.407   4.744   8.643 -0.4749  0.4715  0.7554
  353MOL    H3042974   0.412   4.763   8.536  0.5596  3.2665  1.2763
  353MOL    H3142975   0.306   4.706   8.656 -0.9286  1.7358  0.9580
  353MOL    C3242976   0.390   4.888   8.713  0.0458  0.5191  0.7643
  353MOL   Cl3342977   0.291   4.858   8.854 -0.2737 -0.1303 -0.2253
  353MOL   Cl3442978   0.298   4.989   8.599  0.1581 -0.0547  0.5822
  353MOL    C3542979   0.525   4.958   8.752  0.1624  0.0946 -0.0864
  353MOL    H3642980   0.575   4.887   8.818  1.8654  1.8400  0.5402
  353MOL    H3742981   0.583   4.975   8.662 -1.7842  0.5176 -1.2796
  353MOL    C3842982   0.539   5.094   8.836 -0.4527  0.4096  0.5078
  353MOL   Cl3942983   0.719   5.109   8.855 -0.0294 -0.0282 -0.2274
  353MOL   Cl4042984   0.465   5.080   8.993  0.2873  0.1489  0.1740
  353MOL    C4142985   0.478   5.212   8.758  0.7551 -0.3482 -0.1610
  353MOL    H4242986   0.525   5.201   8.661 -1.5117  0.6987 -1.4317
  353MOL    H4342987   0.373   5.214   8.727 -0.2153 -1.6651  2.8144
  353MOL    C4442988   0.493   5.360   8.800  0.0422 -0.2398 -0.3690
  353MOL   Cl4542989   0.383   5.461   8.699  0.0400  0.2303 -0.1926
  353MOL   Cl4642990   0.653   5.415   8.747  0.4996  0.3146  0.0004
  353MOL    C4742991   0.474   5.403   8.954  0.0369 -0.0814  0.4174
  353MOL    H4842992   0.377   5.361   8.981  0.2442 -1.1222 -0.3922
  353MOL    H4942993   0.547   5.341   9.006  0.4217 -1.3371 -1.5700
  353MOL    C5042994   0.483   5.558   9.011 -0.3203  0.1484 -1.0406
  353MOL   Cl5142995   0.522   5.548   0.007  0.2096  0.1665  0.2090
  353MOL   Cl5242996   0.314   5.615   8.989 -0.4090  0.8716 -0.4785
  353MOL    C5342997   0.578   5.653   8.937  0.0379 -0.4055 -0.0535
  353MOL    H5442998   0.677   5.608   8.934  0.0960 -0.2831  0.0073
  353MOL    H5542999   0.538   5.655   8.835 -2.2605  0.8217  0.8435
  353MOL    C5643000   0.605   5.804   8.983  0.2195  1.1874 -0.4621
  353MOL   Cl5743001   0.459   5.895   9.033  0.3933  0.4123 -0.0833
  353MOL   Cl5843002   0.672   5.875   8.828 -0.0441  0.2341  0.0077
  353MOL    C5943003   0.719   5.805   9.095  0.6326  0.2904 -0.0176
  353MOL    H6043004   0.692   5.752   0.006 -1.0271 -2.3878 -1.9602
  353MOL    H6143005   0.801   5.751   9.047 -0.7562 -0.4654 -1.6147
  353MOL    C6243006   0.760   5.937   9.165  0.1857  0.3428  0.3474
  353MOL   Cl6343007   0.651   5.982   0.117  0.6185 -0.1208 -0.4969
  353MOL   Cl6443008   0.774   6.073   9.046 -0.0621 -0.1412  0.1861
  353MOL    C6543009   0.902   5.931   0.052  0.9793  0.5606  0.4715
  353MOL    H6643010   0.970   5.913   9.150 -1.9036 -1.3566 -1.5818
  353MOL    H6743011   0.927   6.027   0.098  1.7623  0.9096 -0.6820
  353MOL    C6843012   0.946   5.821   0.154  0.0359 -0.2893 -0.3505
  353MOL   Cl6943013   0.938   5.660   0.074  0.0607 -0.6399 -0.3189
  353MOL   Cl7043014   0.828   5.795   0.288  0.3711 -0.2955 -0.3081
  353MOL    C7143015   1.089   5.844   0.203  0.2765  0.1970 -0.0687
  353MOL    H7243016   1.142   5.799   0.119 -1.3539 -4.2915  1.1592
  353MOL    H7343017   1.113   5.949   0.221 -1.5057 -0.0092  4.0790
  353MOL    C7443018   1.142   5.781   0.340 -0.6799 -0.1040 -0.2982
  353MOL   Cl7543019   1.086   5.616   0.350 -0.0325  0.3557  0.3492
  353MOL   Cl7643020   1.087   5.889   0.478  0.3100  0.3350  0.3468
  353MOL    C7743021   1.302   5.766   0.351 -0.5303  0.3190 -0.2343
  353MOL    H7843022   1.314   5.708   0.443 -2.0699  0.2928 -0.0226
  353MOL    H7943023   1.336   5.694   0.277 -0.8589 -0.7011  0.5877
  353MOL    C8043024   1.406   5.895   0.354  1.1868 -0.6340 -0.8730
  353MOL   Cl8143025   1.375   6.002   0.211  0.7756  0.2805 -0.2366
  353MOL   Cl8243026   1.570   5.837   0.339 -0.0703 -0.3167  0.2664
  353MOL    C8343027   1.396   5.984   0.487  0.0841  0.3979 -0.0753
  353MOL    H8443028   1.308   6.048   0.472  2.3702  3.2881 -1.6831
  353MOL    H8543029   1.371   5.919   0.571 -1.7646  0.6118 -0.4248
  353MOL    C8643030   1.509   6.079   0.545  0.2885 -0.1902  0.2294
  353MOL   Cl8743031   1.583   6.192   0.429  0.2621  0.2103 -0.4218
  353MOL   Cl8843032   1.640   5.979   0.610 -0.2422  0.3724 -0.0380
  353MOL    C8943033   1.466   6.169   0.668 -0.3146  0.3278 -0.2176
  353MOL    H9043034   1.464   6.111   0.760  0.6224  0.4293 -0.1276
  353MOL    H9143035   1.553   6.228   0.698  0.2228 -1.5842  2.0185
  353MOL    C9243036   1.334   6.260   0.661 -0.7949  0.9801 -0.3890
  353MOL   Cl9343037   1.195   6.159   0.692 -0.3333 -0.1057  0.3932
  353MOL   Cl9443038   1.314   6.335   0.506 -0.2210  0.1776  0.2453
  353MOL    C9543039   1.318   6.376   0.765  0.1463  0.2107  0.7539
  353MOL    H9643040   1.228   6.432   0.738 -0.0910  0.4758  2.0364
  353MOL    H9743041   1.301   6.334   0.864  2.1973 -1.3171  0.4773
  353MOL    C9843042   1.433   6.482   0.790  0.5512  1.0825  0.5140
  353MOL   Cl9943043   1.557   6.406   0.895 -0.4356  0.3504  0.4050
  353MOL  Cl10043044   1.351   6.612   0.886  0.0776  0.7051  0.1850
  353MOL   C10143045   1.489   6.546   0.659 -0.4184 -0.0535  0.1517
  353MOL   H10243046   1.522   6.460   0.601 -3.2173 -0.3266 -1.1166
  353MOL   H10343047   1.405   6.588   0.604 -0.2382  0.7843  0.5162
  353MOL   C10443048   1.608   6.655   0.651 -0.1003  0.3605 -0.0439
  353MOL  Cl10543049   1.646   6.679   0.480 -0.4093 -0.2930  0.0671
  353MOL  Cl10643050   1.751   6.592   0.735 -0.4564 -0.1692  0.3264
  353MOL   C10743051   1.568   6.790   0.725  0.0563 -0.3198 -0.2625
  353MOL   H10843052   1.461   6.810   0.713 -0.2316 -0.4944  1.8204
  353MOL   H10943053   1.593   6.775   0.830  0.6396 -0.8908 -0.4831
  353MOL   C11043054   1.645   6.924   0.702  0.3279 -0.6695  0.2591
  353MOL  Cl11143055   1.585   7.003   0.556  0.1049 -0.1479 -0.4652
  353MOL  Cl11243056   1.817   6.885   0.690 -0.0817  0.7700 -0.0682
  353MOL   C11343057   1.637   7.033   0.816  0.3811 -0.3879 -0.7817
  353MOL   H11443058   1.702   7.007   0.899  0.0319  0.5638 -0.2015
  353MOL   H11543059   1.683   7.122   0.774  1.5604 -0.1688  0.9143
  353MOL   C11643060   1.493   7.069   0.874 -1.0526  0.4176 -0.0253
  353MOL  Cl11743061   1.504   7.199   0.992  0.3288 -0.3144  0.0509
  353MOL  Cl11843062   1.422   6.940   0.973  0.2564  0.5738 -0.1431
  353MOL   C11943063   1.398   7.115   0.759  0.1895  0.0030 -0.0121
  353MOL   H12043064   1.432   7.202   0.703 -0.9346 -0.4638 -1.4406
  353MOL   H12143065   1.361   7.040   0.690 -0.8425 -2.1143  2.7333
  353MOL   H12243066   1.310   7.151   0.813  1.1724  1.4744  0.6639
  354MOL     C143067   1.272   0.336   5.519 -0.2086  0.2606  0.3891
  354MOL    Cl243068   1.218   0.381   5.679 -0.0348  0.0577  0.2910
  354MOL    Cl343069   1.232   0.169   5.481 -0.2416  0.0503  0.1042
  354MOL     C443070   1.219   0.425   5.405  0.1128  0.2148  0.6872
  354MOL     H543071   1.263   0.390   5.312  1.6206 -3.1285  2.5389
  354MOL     H643072   1.111   0.419   5.400  0.0259  0.4975  1.9430
  354MOL     H743073   1.381   0.338   5.518 -0.1901 -0.3943  0.3769
  354MOL     C843074   1.249   0.579   5.404 -0.6683  0.0749 -0.4983
  354MOL    Cl943075   1.211   0.646   5.247 -0.0688  0.3475 -0.1436
  354MOL   Cl1043076   1.419   0.605   5.432 -0.1833  0.1695 -0.1373
  354MOL    C1143077   1.175   0.652   5.513 -0.7969 -0.3853  0.3131
  354MOL    H1243078   1.084   0.597   5.537 -0.0331 -3.4781 -3.4868
  354MOL    H1343079   1.233   0.639   5.605 -0.7543 -1.3198  0.1597
  354MOL    C1443080   1.138   0.806   5.510 -0.2135 -0.7187 -0.3090
  354MOL   Cl1543081   1.057   0.838   5.664  0.3697  0.0534 -0.0065
  354MOL   Cl1643082   1.014   0.826   5.385  0.3477 -0.2801 -0.1298
  354MOL    C1743083   1.264   0.902   5.489 -0.1410  0.9195  0.0837
  354MOL    H1843084   1.334   0.884   5.570  0.8162 -2.1504 -1.3251
  354MOL    H1943085   1.300   0.866   5.392 -2.8367 -1.8459  0.0014
  354MOL    C2043086   1.253   1.061   5.483 -0.3325  0.1487  0.1307
  354MOL   Cl2143087   1.164   1.116   5.621 -0.2097 -0.1431 -0.0671
  354MOL   Cl2243088   1.176   1.101   5.342  0.0328 -0.0393  0.4244
  354MOL    C2343089   1.395   1.128   5.491  1.0080  0.4670 -0.6109
  354MOL    H2443090   1.438   1.096   5.586  0.3144 -1.9050 -1.0530
  354MOL    H2543091   1.466   1.080   5.425  1.2589 -1.9383  1.3185
  354MOL    C2643092   1.416   1.280   5.498 -0.9339  0.2125 -0.3387
  354MOL   Cl2743093   1.591   1.308   5.461 -0.1955 -0.0253 -0.0583
  354MOL   Cl2843094   1.383   1.341   5.663  0.0144  0.0436  0.2932
  354MOL    C2943095   1.334   1.358   5.391 -0.5730 -0.1989 -0.1785
  354MOL    H3043096   1.343   1.306   5.295  1.0949 -3.2506  1.5389
  354MOL    H3143097   1.231   1.346   5.422 -0.8176 -0.1264 -0.9406
  354MOL    C3243098   1.354   1.511   5.358 -0.1903  0.1827 -1.1810
  354MOL   Cl3343099   1.208   1.563   5.276 -0.2196 -0.0883 -0.3228
  354MOL   Cl3443100   1.479   1.524   5.226  0.5420  0.1240 -0.0139
  354MOL    C3543101   1.387   1.597   5.485  0.2245  0.0020  0.1615
  354MOL    H3643102   1.324   1.574   5.570 -0.7028 -0.8879 -0.7484
  354MOL    H3743103   1.488   1.568   5.514 -0.2783 -1.4793  0.5024
  354MOL    C3843104   1.372   1.757   5.479 -0.3367  0.3045 -0.5596
  354MOL   Cl3943105   1.464   1.807   5.615  0.1125 -0.2068  0.2720
  354MOL   Cl4043106   1.201   1.806   5.489  0.2715 -0.1750  0.0323
  354MOL    C4143107   1.433   1.820   5.350  0.2321  0.2506 -0.5431
  354MOL    H4243108   1.533   1.785   5.324 -0.5742 -1.1790 -1.8110
  354MOL    H4343109   1.368   1.793   5.266 -0.6287 -1.0657  0.5356
  354MOL    C4443110   1.459   1.975   5.342  0.0008  1.4319  1.1016
  354MOL   Cl4543111   1.436   2.013   5.168  0.3075 -0.2478  0.2226
  354MOL   Cl4643112   1.632   1.999   5.384  0.1516  0.0962  0.2090
  354MOL    C4743113   1.361   2.074   5.423  0.2458  0.0614  0.6796
  354MOL    H4843114   1.266   2.055   5.373 -0.3629  0.3168  1.7283
  354MOL    H4943115   1.365   2.031   5.523 -0.3560 -1.0200  0.2468
  354MOL    C5043116   1.403   2.219   5.438 -0.5957 -0.0420  0.0681
  354MOL   Cl5143117   1.543   2.238   5.549  0.2560  0.3753 -0.0586
  354MOL   Cl5243118   1.268   2.276   5.532 -0.1129  0.1829 -0.4741
  354MOL    C5343119   1.420   2.307   5.299 -0.4598 -0.1066  0.0918
  354MOL    H5443120   1.508   2.269   5.248 -1.4133 -1.8527 -0.3152
  354MOL    H5543121   1.340   2.274   5.233  0.5532  1.7740 -2.1469
  354MOL    C5643122   1.433   2.463   5.296  0.8298  1.0879  0.1786
  354MOL   Cl5743123   1.272   2.526   5.339 -0.3322 -0.0215  0.4034
  354MOL   Cl5843124   1.473   2.510   5.128  0.3300 -0.4664  0.5792
  354MOL    C5943125   1.540   2.518   5.393  0.6234  0.2696  0.0137
  354MOL    H6043126   1.517   2.493   5.497  0.7453  1.6763  0.3841
  354MOL    H6143127   1.623   2.451   5.371  1.0152  0.7875 -0.0994
  354MOL    C6243128   1.583   2.674   5.393 -0.2877  0.0364  0.4546
  354MOL   Cl6343129   1.711   2.710   5.270  0.0409  0.3006 -0.3012
  354MOL   Cl6443130   1.647   2.694   5.556 -0.0878 -0.1615  0.1180
  354MOL    C6543131   1.466   2.778   5.374 -0.1560  0.6050 -0.8648
  354MOL    H6643132   1.406   2.757   5.285  1.2662  1.3764 -2.0390
  354MOL    H6743133   1.404   2.769   5.463 -0.6737  1.8338 -1.0779
  354MOL    C6843134   1.482   2.928   5.355  0.0614  0.0884  0.7946
  354MOL   Cl6943135   1.531   2.969   5.192  0.2006  0.3562  0.5441
  354MOL   Cl7043136   1.603   2.999   5.465 -0.0205  0.0199  0.2629
  354MOL    C7143137   1.353   3.010   5.382  0.4847 -0.0108  0.8624
  354MOL    H7243138   1.349   3.024   5.490  1.5173 -1.0684  1.0573
  354MOL    H7343139   1.371   3.116   5.363 -0.1024 -0.2872 -1.3029
  354MOL    C7443140   1.214   2.967   5.335 -0.3075  0.0299 -0.1778
  354MOL   Cl7543141   1.149   2.843   5.444  0.2318  0.2402 -0.0763
  354MOL   Cl7643142   1.226   2.897   5.169 -0.2506  0.1018  0.0199
  354MOL    C7743143   1.116   3.085   5.311  0.4089  0.6444 -0.0270
  354MOL    H7843144   1.152   3.164   5.246  0.3241  0.1668 -0.6569
  354MOL    H7943145   1.032   3.047   5.253 -0.0909  1.9128 -0.1381
  354MOL    C8043146   1.039   3.152   5.434 -1.0756  0.5407  0.5704
  354MOL   Cl8143147   1.155   3.166   5.570 -0.1309 -0.4419 -0.6333
  354MOL   Cl8243148   0.915   3.047   5.498 -0.0557 -0.1494 -0.2547
  354MOL    C8343149   0.973   3.289   5.413  0.2009 -0.9056  0.6991
  354MOL    H8443150   0.872   3.289   5.374  0.7119 -2.1675 -0.7026
  354MOL    H8543151   0.964   3.330   5.514  0.2768 -0.8143  0.6691
  354MOL    C8643152   1.050   3.395   5.340 -0.0058 -0.8368 -0.2329
  354MOL   Cl8743153   1.020   3.373   5.164  0.0001  0.3541  0.1961
  354MOL   Cl8843154   1.224   3.387   5.376 -0.2715  0.1022  0.5438
  354MOL    C8943155   1.015   3.544   5.384 -0.2504  0.3144 -0.3759
  354MOL    H9043156   1.034   3.538   5.491 -1.4789 -3.8666 -0.2813
  354MOL    H9143157   1.083   3.621   5.349 -0.2500 -0.9432 -3.3127
  354MOL    C9243158   0.871   3.607   5.386  0.0544  0.6316  0.4198
  354MOL   Cl9343159   0.765   3.509   5.494 -0.2099 -0.1744 -0.1875
  354MOL   Cl9443160   0.804   3.605   5.218  0.2319  0.0663 -0.4550
  354MOL    C9543161   0.853   3.754   5.438  0.3036 -0.3187  0.5249
  354MOL    H9643162   0.892   3.816   5.357 -0.2996  2.0978  2.0023
  354MOL    H9743163   0.746   3.776   5.432  0.1333 -0.7316  1.8003
  354MOL    C9843164   0.918   3.804   5.568  0.3363  0.1074 -0.5365
  354MOL   Cl9943165   1.091   3.815   5.545 -0.0074 -0.1070 -0.0398
  354MOL  Cl10043166   0.903   3.690   5.705 -0.0380  0.1870  0.1547
  354MOL   C10143167   0.854   3.939   5.609  0.0984 -0.0914 -0.1319
  354MOL   H10243168   0.760   3.933   5.663 -0.2080  3.1425 -0.2342
  354MOL   H10343169   0.923   3.973   5.686  1.0922  0.9423 -1.4518
  354MOL   C10443170   0.839   4.063   5.514 -0.4837 -0.3404  0.3840
  354MOL  Cl10543171   0.825   4.216   5.599 -0.0238  0.3923  0.3377
  354MOL  Cl10643172   0.691   4.032   5.411 -0.2653  0.0379 -0.0968
  354MOL   C10743173   0.971   4.081   5.421  0.1471  0.6071 -0.7185
  354MOL   H10843174   1.051   4.125   5.480  0.8659 -0.6652 -0.7294
  354MOL   H10943175   1.020   3.988   5.393  2.0825  1.0942  0.9537
  354MOL   C11043176   0.965   4.150   5.285 -0.0676 -0.0606  0.4691
  354MOL  Cl11143177   0.882   4.031   5.173  0.0321 -0.0889 -0.1446
  354MOL  Cl11243178   1.135   4.169   5.233 -0.2216 -0.0602  0.0105
  354MOL   C11343179   0.898   4.287   5.292  0.2958 -0.1796 -0.3959
  354MOL   H11443180   0.790   4.280   5.309  0.3504  0.3368  0.1659
  354MOL   H11543181   0.947   4.346   5.370  1.4743 -0.1306 -1.1630
  354MOL   C11643182   0.896   4.374   5.159  0.7397 -0.7338 -0.0995
  354MOL  Cl11743183   0.825   4.526   5.211  0.2394  0.1510  0.3345
  354MOL  Cl11843184   0.779   4.307   5.033 -0.4767  0.0154 -0.0561
  354MOL   C11943185   1.023   4.406   5.086 -0.4360  0.2302  0.6802
  354MOL   H12043186   1.109   4.435   5.146 -0.1804  1.0452 -0.0637
  354MOL   H12143187   1.056   4.319   5.028 -0.8170  0.8095 -0.4292
  354MOL   H12243188   1.019   4.473   5.000 -1.3608  0.3012  0.7780
  355MOL     C143189   6.324   6.077   3.735  0.3529  0.1229 -0.0809
  355MOL    Cl243190   6.291   6.224   3.831 -0.5005  0.1710  0.1716
  355MOL    Cl343191   6.498   6.031   3.762 -0.1554  0.2486 -0.1010
  355MOL     C443192   6.217   5.965   3.762  0.4478  0.3140  0.1672
  355MOL     H543193   6.247   5.911   3.853 -0.8555 -1.0593 -0.2049
  355MOL     H643194   6.124   6.015   3.789 -0.3326 -0.5557 -0.8557
  355MOL     H743195   6.314   6.115   3.633 -0.4205  1.8685  0.6253
  355MOL     C843196   6.195   5.860   3.650  0.3469  0.5255  0.5357
  355MOL    Cl943197   6.348   5.806   3.591  0.7244  0.0121 -0.0251
  355MOL   Cl1043198   6.118   5.940   3.518  0.4458  0.0281 -0.3164
  355MOL    C1143199   6.098   5.742   3.676  0.0546  0.0032 -0.8640
  355MOL    H1243200   6.002   5.792   3.665  0.0696 -0.1698 -1.7862
  355MOL    H1343201   6.108   5.673   3.592 -0.7028 -0.8803 -0.2290
  355MOL    C1443202   6.101   5.647   3.800 -0.9018 -0.5604  0.1112
  355MOL   Cl1543203   6.080   5.744   3.947  0.4143 -0.3602  0.3204
  355MOL   Cl1643204   6.259   5.567   3.818  0.2585 -0.1758 -0.3177
  355MOL    C1743205   5.981   5.552   3.790 -0.0664  0.4994  0.6911
  355MOL    H1843206   5.892   5.603   3.753  1.1377  1.2234 -1.2542
  355MOL    H1943207   6.018   5.503   3.700 -0.7467  0.4874  0.4166
  355MOL    C2043208   5.949   5.431   3.880 -0.6718  0.1104 -1.0138
  355MOL   Cl2143209   5.810   5.359   3.803  0.2318 -0.3572 -0.0468
  355MOL   Cl2243210   5.901   5.488   4.037  0.2512  0.1346  0.2992
  355MOL    C2343211   6.060   5.318   3.893  0.2555  0.1497  0.1110
  355MOL    H2443212   6.087   5.278   3.796 -0.1292 -0.5734  0.2991
  355MOL    H2543213   6.150   5.372   3.923  0.8250 -0.6740 -0.0994
  355MOL    C2643214   6.051   5.205   4.003 -0.0570 -0.4613 -0.3078
  355MOL   Cl2743215   5.887   5.141   3.994  0.2601  0.0627  0.0210
  355MOL   Cl2843216   6.086   5.291   4.160 -0.0347 -0.3384  0.4592
  355MOL    C2943217   6.147   5.080   4.010 -0.4961 -0.1903  0.3622
  355MOL    H3043218   6.243   5.117   4.047 -1.8364  0.9765  2.8223
  355MOL    H3143219   6.102   5.026   4.094 -0.7711 -2.1509 -1.0169
  355MOL    C3243220   6.169   4.983   3.898 -1.0056 -0.6277  0.1146
  355MOL   Cl3343221   6.251   5.080   3.772 -0.1010  0.3748  0.2077
  355MOL   Cl3443222   6.019   4.912   3.831  0.1595  0.3594  0.0267
  355MOL    C3543223   6.264   4.867   3.937 -1.2620 -0.2183 -0.5629
  355MOL    H3643224   6.263   4.806   3.846 -2.1806  1.0783 -1.4461
  355MOL    H3743225   6.362   4.913   3.944 -0.7626 -1.1560 -1.2181
  355MOL    C3843226   6.239   4.775   4.061 -0.2161 -0.6058 -0.2185
  355MOL   Cl3943227   6.066   4.722   4.069  0.1784 -0.5574  0.0115
  355MOL   Cl4043228   6.259   4.856   4.218 -0.3467 -0.1822 -0.0656
  355MOL    C4143229   6.319   4.644   4.062 -0.2568 -0.3817 -0.5536
  355MOL    H4243230   6.305   4.602   4.162  3.1061 -0.2318  0.0502
  355MOL    H4343231   6.271   4.565   4.004 -0.4811 -0.1797 -0.6389
  355MOL    C4443232   6.472   4.636   4.043 -0.1305  0.1294 -0.1642
  355MOL   Cl4543233   6.511   4.679   3.872  0.3948  0.3289  0.0284
  355MOL   Cl4643234   6.516   4.468   4.058  0.3137 -0.0622  0.1138
  355MOL    C4743235   6.557   4.721   4.142  0.1548  0.2187  0.2734
  355MOL    H4843236   6.548   4.826   4.112  0.5967 -0.5046 -2.5513
  355MOL    H4943237   6.516   4.712   4.242  0.3829 -3.1119  0.1258
  355MOL    C5043238   6.710   4.702   4.166  0.2649  0.5445 -0.5944
  355MOL   Cl5143239   6.725   4.564   4.277  0.4586  0.3160  0.2069
  355MOL   Cl5243240   6.758   4.829   4.282 -0.3457 -0.0141  0.1261
  355MOL    C5343241   6.800   4.682   4.038  0.0633 -0.2131  0.2720
  355MOL    H5443242   6.739   4.616   3.977 -3.9055  1.5666  2.1832
  355MOL    H5543243   6.799   4.773   3.978  0.3130  0.4548  1.2596
  355MOL    C5643244   6.949   4.629   4.045  0.4594  0.5094  0.0147
  355MOL   Cl5743245   7.018   4.645   3.882  0.0524  0.1714 -0.5361
  355MOL   Cl5843246   6.944   4.455   4.097  0.0718 -0.2029  0.0304
  355MOL    C5943247   7.027   4.706   4.146 -0.6897  0.6127  0.1553
  355MOL    H6043248   7.010   4.814   4.139 -1.0572  0.5665  0.2836
  355MOL    H6143249   6.995   4.670   4.244 -0.5940  2.9816  1.0991
  355MOL    C6243250   7.184   4.702   4.149 -0.1776 -0.2302 -0.1949
  355MOL   Cl6343251   7.221   4.815   4.286  0.0619 -0.1974 -0.5994
  355MOL   Cl6443252   7.254   4.794   4.007 -0.0963 -0.0769 -0.5149
  355MOL    C6543253   7.250   4.555   4.163  0.0377  0.6546 -0.0982
  355MOL    H6643254   7.195   4.487   4.229 -1.9235  1.3579 -0.9488
  355MOL    H6743255   7.225   4.503   4.071  1.4254 -1.3932  0.6453
  355MOL    C6843256   7.396   4.532   4.177 -0.2881 -0.3031  0.7526
  355MOL   Cl6943257   7.449   4.606   4.329  0.4592 -0.0551 -0.3255
  355MOL   Cl7043258   7.485   4.609   4.048  0.3834  0.1589  0.0154
  355MOL    C7143259   7.446   4.385   4.168  0.5815 -0.2621  0.3002
  355MOL    H7243260   7.444   4.362   4.062 -1.0242  0.8950  0.0484
  355MOL    H7343261   7.549   4.399   4.201  0.4297  3.4165 -0.5210
  355MOL    C7443262   7.375   4.278   4.253  0.7400 -0.5612 -0.3788
  355MOL   Cl7543263   7.223   4.224   4.171 -0.1395 -0.2308  0.3016
  355MOL   Cl7643264   7.349   4.324   4.421 -0.5373 -0.2878 -0.0223
  355MOL    C7743265   7.462   4.149   4.259  0.4267 -0.0943  0.3239
  355MOL    H7843266   7.545   4.172   4.326  0.4660 -0.5341  0.4324
  355MOL    H7943267   7.394   4.075   4.302 -0.3597  1.0856  1.1441
  355MOL    C8043268   7.534   4.088   4.134 -0.1478  0.4895 -0.0790
  355MOL   Cl8143269   7.608   3.950   4.213  0.1187 -0.0844 -0.3042
  355MOL   Cl8243270   7.663   4.192   4.066 -0.0339 -0.6229 -0.0737
  355MOL    C8343271   7.448   4.029   4.021  0.1056 -0.2962  0.3603
  355MOL    H8443272   7.386   3.952   4.066 -0.6552 -0.2331 -0.5433
  355MOL    H8543273   7.384   4.112   3.991 -0.7527 -1.2382 -0.4626
  355MOL    C8643274   7.501   3.968   3.884  0.2633 -0.1230  1.0820
  355MOL   Cl8743275   7.538   4.105   3.769  0.0803  0.4507  0.1714
  355MOL   Cl8843276   7.360   3.868   3.823 -0.2512 -0.2560 -0.4114
  355MOL    C8943277   7.620   3.876   3.924 -1.2410 -0.2561 -0.4315
  355MOL    H9043278   7.699   3.941   3.962 -0.9533 -0.4365 -0.7126
  355MOL    H9143279   7.580   3.814   4.004 -3.0285  0.8147 -0.4689
  355MOL    C9243280   7.699   3.792   3.822 -0.0544  0.0952  0.1811
  355MOL   Cl9343281   7.583   3.664   3.764  0.5535 -0.4505  0.0709
  355MOL   Cl9443282   7.827   3.702   3.905  0.1884 -0.0432  0.2376
  355MOL    C9543283   7.760   3.877   3.695  0.1035  0.8881 -0.7089
  355MOL    H9643284   7.676   3.913   3.635  0.9512 -0.5724 -2.8372
  355MOL    H9743285   7.812   3.964   3.734  1.0915 -0.6320  1.4228
  355MOL    C9843286   7.879   3.815   3.605  0.3720 -0.6639  0.7480
  355MOL   Cl9943287   7.870   3.646   3.576  0.3559  0.5216  0.5368
  355MOL  Cl10043288   8.042   3.850   3.678 -0.3763  0.0541  0.1201
  355MOL   C10143289   7.890   3.881   3.460  0.0847  0.4438  0.1057
  355MOL   H10243290   7.991   3.862   3.424  0.4218 -0.5997  1.5390
  355MOL   H10343291   7.826   3.829   3.390  0.7623 -0.7130  0.3276
  355MOL   C10443292   7.857   4.036   3.444 -0.0348  0.5876 -0.2140
  355MOL  Cl10543293   7.947   4.128   3.567 -0.1053  0.1927 -0.3966
  355MOL  Cl10643294   7.682   4.058   3.444 -0.6654 -0.1142 -0.0444
  355MOL   C10743295   7.902   4.077   3.296 -0.0881 -0.3074 -0.0326
  355MOL   H10843296   7.993   4.025   3.266  0.3641  0.7479 -0.4919
  355MOL   H10943297   7.832   4.019   3.234  0.5565  0.1207 -1.1756
  355MOL   C11043298   7.915   4.215   3.243 -0.4580  0.5882  0.2017
  355MOL  Cl11143299   7.955   4.198   3.076  0.1262  0.2328 -0.3251
  355MOL  Cl11243300   8.051   4.302   3.321 -0.1394  0.0304  0.0027
  355MOL   C11343301   7.788   4.297   3.257  0.9301  0.5083 -0.1057
  355MOL   H11443302   7.708   4.235   3.218 -0.8696  3.0041 -0.4758
  355MOL   H11543303   7.774   4.315   3.364 -0.6150 -0.9424 -0.0441
  355MOL   C11643304   7.776   4.440   3.198 -0.5845 -0.0047 -0.4784
  355MOL  Cl11743305   7.649   4.528   3.284  0.1003 -0.0252 -0.3082
  355MOL  Cl11843306   7.730   4.426   3.028  0.3381  0.0220  0.2131
  355MOL   C11943307   7.903   4.535   3.202 -0.7098  0.3539  0.6661
  355MOL   H12043308   7.866   4.626   3.157  0.0104 -0.1347 -0.9780
  355MOL   H12143309   7.923   4.567   3.304  1.4420  0.9481  0.0937
  355MOL   H12243310   7.997   4.492   3.167  0.1822  1.5824  1.5130
  356MOL     C143311   6.689   3.446   6.610  0.6921  0.4933 -0.7834
  356MOL    Cl243312   6.637   3.462   6.781 -0.0649  0.1275  0.1078
  356MOL    Cl343313   6.859   3.393   6.619  0.3683  0.1401  0.5487
  356MOL     C443314   6.597   3.337   6.552 -0.0333  0.4286 -0.5361
  356MOL     H543315   6.624   3.240   6.594 -1.3396  0.6749  0.9210
  356MOL     H643316   6.500   3.348   6.601  0.2639  0.1344  0.1343
  356MOL     H743317   6.678   3.544   6.564 -3.3595 -0.2473 -1.5961
  356MOL     C843318   6.590   3.308   6.400  0.6248 -0.0688 -0.2680
  356MOL    Cl943319   6.546   3.471   6.339  0.2488  0.0635  0.0500
  356MOL   Cl1043320   6.456   3.199   6.352  0.0019 -0.0281  0.0054
  356MOL    C1143321   6.723   3.262   6.339 -0.1217 -0.6857 -0.4760
  356MOL    H1243322   6.793   3.345   6.353 -0.0313 -0.9346  0.5989
  356MOL    H1343323   6.781   3.194   6.402  0.4650  0.9785  0.8155
  356MOL    C1443324   6.737   3.210   6.195 -0.8232 -0.1166  0.1709
  356MOL   Cl1543325   6.667   3.045   6.201 -0.1313 -0.0884 -0.4418
  356MOL   Cl1643326   6.911   3.188   6.151 -0.1477  0.4122 -0.0065
  356MOL    C1743327   6.666   3.315   6.092 -0.0732 -0.1052 -0.3582
  356MOL    H1843328   6.559   3.313   6.112 -0.4780  0.3908 -2.3954
  356MOL    H1943329   6.699   3.418   6.110  2.0294 -1.1257  1.9782
  356MOL    C2043330   6.674   3.294   5.935 -0.2874  0.0616  1.1826
  356MOL   Cl2143331   6.592   3.134   5.905  0.1843 -0.1233  0.4157
  356MOL   Cl2243332   6.838   3.296   5.869  0.0977  0.1076  0.0199
  356MOL    C2343333   6.612   3.399   5.840  0.7663  0.1597 -0.3187
  356MOL    H2443334   6.688   3.478   5.836 -0.0236  0.9941  0.8589
  356MOL    H2543335   6.605   3.353   5.741 -2.3539  1.9868 -1.0100
  356MOL    C2643336   6.487   3.478   5.872 -0.6664  0.1439 -0.2751
  356MOL   Cl2743337   6.526   3.604   6.003  0.0695  0.0015 -0.0805
  356MOL   Cl2843338   6.359   3.369   5.928  0.0574  0.2456 -0.1131
  356MOL    C2943339   6.418   3.554   5.756 -0.1513 -0.9695 -0.3846
  356MOL    H3043340   6.363   3.478   5.700  0.1659 -1.2110 -0.3684
  356MOL    H3143341   6.338   3.610   5.805 -1.4551 -1.7748 -1.5307
  356MOL    C3243342   6.502   3.657   5.674  0.1369 -0.2461  0.2978
  356MOL   Cl3343343   6.386   3.720   5.555  0.3427  0.2186  0.3602
  356MOL   Cl3443344   6.611   3.564   5.577 -0.0417 -0.0965 -0.0329
  356MOL    C3543345   6.578   3.761   5.757 -0.6222  0.2660  0.1118
  356MOL    H3643346   6.522   3.795   5.844  1.1552  1.5925  0.7901
  356MOL    H3743347   6.664   3.712   5.803 -0.9090  0.1492  0.5254
  356MOL    C3843348   6.640   3.895   5.689  0.7702 -0.3341  0.1677
  356MOL   Cl3943349   6.723   3.977   5.825 -0.5071  0.0488  0.1413
  356MOL   Cl4043350   6.504   3.998   5.633 -0.0268 -0.3055 -0.3480
  356MOL    C4143351   6.728   3.871   5.559 -0.0861  0.1243 -0.3263
  356MOL    H4243352   6.680   3.797   5.495  0.1552  0.7359 -1.2215
  356MOL    H4343353   6.722   3.967   5.508  0.1634  0.3223  0.0109
  356MOL    C4443354   6.872   3.823   5.566 -0.1881 -0.0048 -0.1667
  356MOL   Cl4543355   6.916   3.752   5.405  0.1254  0.5026  0.0731
  356MOL   Cl4643356   6.892   3.690   5.678  0.4145  0.2679  0.2562
  356MOL    C4743357   6.974   3.934   5.607  0.6057  0.3996  0.7043
  356MOL    H4843358   6.944   4.030   5.566 -2.2407  0.1128  1.9801
  356MOL    H4943359   6.958   3.950   5.714 -0.8445  2.0579  0.2634
  356MOL    C5043360   7.128   3.923   5.586 -0.0784 -0.9507  0.0348
  356MOL   Cl5143361   7.196   3.781   5.669 -0.3809  0.3717 -0.3036
  356MOL   Cl5243362   7.186   4.064   5.678  0.0729 -0.1540  0.2229
  356MOL    C5343363   7.182   3.940   5.440  0.1177  0.2878  0.2857
  356MOL    H5443364   7.143   3.847   5.398  0.7258 -0.0127  0.3817
  356MOL    H5543365   7.134   4.031   5.403 -1.0679 -1.8757 -3.8872
  356MOL    C5643366   7.331   3.946   5.391 -0.7639  0.1737  0.0675
  356MOL   Cl5743367   7.417   3.798   5.447  0.1405  0.3234  0.1974
  356MOL   Cl5843368   7.430   4.083   5.459 -0.3879  0.1708  0.2649
  356MOL    C5943369   7.350   3.958   5.236  0.2480 -1.2088  0.0023
  356MOL    H6043370   7.451   3.996   5.223 -1.5692  3.5158 -1.1043
  356MOL    H6143371   7.336   3.855   5.202 -1.1449 -1.4674  1.3306
  356MOL    C6243372   7.259   4.047   5.148  0.3161 -0.5011  0.3565
  356MOL   Cl6343373   7.259   4.211   5.216 -0.6399 -0.4540 -0.4681
  356MOL   Cl6443374   7.087   3.998   5.153 -0.5267  0.3767 -0.1895
  356MOL    C6543375   7.317   4.064   5.003 -0.1345 -0.1626 -0.1457
  356MOL    H6643376   7.244   4.102   4.932  0.0892 -1.6770 -1.2306
  356MOL    H6743377   7.397   4.138   5.007 -0.2749  0.1109 -2.0499
  356MOL    C6843378   7.370   3.933   4.935  0.1007 -0.7459  0.5683
  356MOL   Cl6943379   7.257   3.792   4.963 -0.0924  0.3524  0.1282
  356MOL   Cl7043380   7.533   3.895   4.993 -0.0797  0.2799 -0.0366
  356MOL    C7143381   7.387   3.961   4.779 -0.2278  0.0592  0.3127
  356MOL    H7243382   7.292   3.992   4.738  0.0107 -0.0457 -0.3288
  356MOL    H7343383   7.461   4.041   4.776  0.2961 -0.4337  0.0312
  356MOL    C7443384   7.421   3.849   4.676  0.4017 -0.0751  0.3022
  356MOL   Cl7543385   7.572   3.759   4.718  0.0194 -0.0008 -0.3350
  356MOL   Cl7643386   7.481   3.933   4.524 -0.4776  0.2187 -0.0641
  356MOL    C7743387   7.307   3.743   4.630 -0.2960 -0.1719  0.4368
  356MOL    H7843388   7.351   3.696   4.542  0.0104 -0.3930  0.7070
  356MOL    H7943389   7.294   3.658   4.698 -1.0358  0.9845  1.7735
  356MOL    C8043390   7.170   3.800   4.584  0.3526 -0.2264  0.3609
  356MOL   Cl8143391   7.183   3.914   4.448  0.0179  0.0606 -0.2431
  356MOL   Cl8243392   7.071   3.880   4.717  0.1609  0.0565 -0.0893
  356MOL    C8343393   7.069   3.693   4.526  0.1986 -0.6206  0.6994
  356MOL    H8443394   7.015   3.654   4.612 -2.5181 -1.8638 -1.5047
  356MOL    H8543395   6.998   3.744   4.462  2.1545  2.0545  0.5291
  356MOL    C8643396   7.105   3.567   4.441  0.7063 -0.4906 -0.1141
  356MOL   Cl8743397   7.224   3.462   4.520 -0.0155  0.3986 -0.1418
  356MOL   Cl8843398   7.172   3.631   4.286  0.1492 -0.4145 -0.1223
  356MOL    C8943399   6.989   3.472   4.400  0.7736 -0.6510  0.1275
  356MOL    H9043400   7.015   3.415   4.311 -1.4151  0.1265 -1.0265
  356MOL    H9143401   6.959   3.409   4.484 -1.9596 -0.0914 -0.4003
  356MOL    C9243402   6.851   3.530   4.343  0.5892  0.3362 -0.0010
  356MOL   Cl9343403   6.878   3.665   4.226 -0.2593 -0.8487 -0.4363
  356MOL   Cl9443404   6.757   3.588   4.478 -0.3907 -0.0081 -0.1049
  356MOL    C9543405   6.773   3.419   4.267 -0.0233  0.3317  0.0790
  356MOL    H9643406   6.845   3.372   4.201 -2.8088 -2.9665 -0.7486
  356MOL    H9743407   6.751   3.342   4.341  0.2885  0.6432  0.4984
  356MOL    C9843408   6.650   3.437   4.185  0.4324 -0.5454 -0.1988
  356MOL   Cl9943409   6.593   3.277   4.138  0.0358  0.3594  0.3972
  356MOL  Cl10043410   6.689   3.501   4.024 -0.0407 -0.3226  0.0224
  356MOL   C10143411   6.531   3.522   4.245 -0.2679  0.7402  1.4232
  356MOL   H10243412   6.577   3.618   4.269  1.8181  0.4325 -1.1888
  356MOL   H10343413   6.467   3.551   4.161 -0.3969  2.1721  1.9950
  356MOL   C10443414   6.425   3.460   4.347 -0.5247 -0.1791  0.2240
  356MOL  Cl10543415   6.516   3.369   4.470  0.0475  0.0027  0.3208
  356MOL  Cl10643416   6.306   3.366   4.262  0.3102 -0.2964 -0.4898
  356MOL   C10743417   6.347   3.569   4.429 -0.2230  0.2086 -1.0580
  356MOL   H10843418   6.279   3.506   4.487 -1.0607  1.9341 -0.1387
  356MOL   H10943419   6.415   3.602   4.509 -1.4353 -0.4436  0.2691
  356MOL   C11043420   6.265   3.690   4.366 -0.5010  0.0254 -0.5296
  356MOL  Cl11143421   6.119   3.644   4.267  0.1525  0.0539  0.1314
  356MOL  Cl11243422   6.377   3.787   4.264  0.0580 -0.0414  0.5805
  356MOL   C11343423   6.204   3.788   4.474  0.0212  0.3228  0.1697
  356MOL   H11443424   6.277   3.863   4.504 -0.0076 -0.3794  2.0321
  356MOL   H11543425   6.138   3.846   4.410 -0.6570 -1.9398 -1.2634
  356MOL   C11643426   6.130   3.732   4.604  0.2258  0.0741  0.3299
  356MOL  Cl11743427   6.248   3.663   4.718 -0.1093  0.4033 -0.1796
  356MOL  Cl11843428   6.014   3.610   4.547  0.0799 -0.1031 -0.2073
  356MOL   C11943429   6.046   3.833   4.675 -0.2924 -0.4465 -0.4404
  356MOL   H12043430   5.972   3.877   4.608 -2.0014 -1.0800  0.9784
  356MOL   H12143431   6.000   3.780   4.760  1.6187 -2.2016 -0.4576
  356MOL   H12243432   6.106   3.915   4.713 -2.0618  1.0326 -0.7840
  357MOL     C143433   3.399   2.087   1.908 -0.4428  0.5271 -0.6471
  357MOL    Cl243434   3.517   2.165   1.806 -0.2714  0.1400  0.0670
  357MOL    Cl343435   3.304   2.214   1.987 -0.2562  0.4331  0.2235
  357MOL     C443436   3.313   1.986   1.831 -0.0805 -0.7803 -0.6554
  357MOL     H543437   3.236   1.962   1.904  1.4314 -2.0106  0.5848
  357MOL     H643438   3.267   2.042   1.750  0.3411 -1.6080 -1.4767
  357MOL     H743439   3.457   2.048   1.992 -1.3237 -0.2746 -0.4110
  357MOL     C843440   3.379   1.850   1.789  0.0085  0.2223  0.5461
  357MOL    Cl943441   3.250   1.763   1.706  0.4405 -0.1958 -0.1155
  357MOL   Cl1043442   3.420   1.759   1.946 -0.2303 -0.1750 -0.4776
  357MOL    C1143443   3.505   1.854   1.701  0.0038 -0.0809  0.1678
  357MOL    H1243444   3.497   1.941   1.635 -1.2728  0.7573  1.4142
  357MOL    H1343445   3.586   1.875   1.771 -0.2162  2.9436 -0.3948
  357MOL    C1443446   3.570   1.737   1.617  0.1773 -0.3058 -0.0915
  357MOL   Cl1543447   3.563   1.585   1.714 -0.0437  0.2292 -0.3046
  357MOL   Cl1643448   3.741   1.773   1.572  0.1188 -0.1005 -0.2625
  357MOL    C1743449   3.499   1.704   1.478 -0.5671 -0.4979  0.5321
  357MOL    H1843450   3.563   1.626   1.436  1.3043  0.2451  1.9003
  357MOL    H1943451   3.406   1.654   1.505 -0.5691 -0.7130  0.1287
  357MOL    C2043452   3.468   1.815   1.373 -0.1680  0.1058 -0.2782
  357MOL   Cl2143453   3.348   1.927   1.439 -0.3548 -0.0922  0.2067
  357MOL   Cl2243454   3.397   1.715   1.240  0.0782 -0.0309  0.1685
  357MOL    C2343455   3.589   1.897   1.326  0.2198 -0.4136 -0.5861
  357MOL    H2443456   3.624   1.950   1.414  1.4659 -0.9546 -0.7486
  357MOL    H2543457   3.666   1.824   1.298  1.9153  0.6749  1.1511
  357MOL    C2643458   3.582   1.980   1.184  0.0550 -0.8828 -0.1217
  357MOL   Cl2743459   3.418   2.055   1.166 -0.2692 -0.0598 -0.0038
  357MOL   Cl2843460   3.590   1.860   1.049 -0.3227  0.0711 -0.3064
  357MOL    C2943461   3.696   2.088   1.183 -0.1333 -0.0045 -0.2789
  357MOL    H3043462   3.688   2.153   1.095  2.5345  1.7227  0.7158
  357MOL    H3143463   3.670   2.149   1.269  2.3490  0.8794 -0.1296
  357MOL    C3243464   3.853   2.051   1.189 -0.1119 -0.0830  0.7908
  357MOL   Cl3343465   3.906   2.000   1.346 -0.4196 -0.1597 -0.1012
  357MOL   Cl3443466   3.932   2.202   1.161 -0.1919 -0.1814  0.0161
  357MOL    C3543467   3.895   1.940   1.083  0.9282  0.1435 -0.4826
  357MOL    H3643468   3.843   1.847   1.108 -3.2302  2.2122 -0.8399
  357MOL    H3743469   3.864   1.979   0.986 -1.5124 -0.8047 -0.1190
  357MOL    C3843470   4.039   1.893   1.055 -1.0544  0.2626 -0.2623
  357MOL   Cl3943471   4.022   1.795   0.912 -0.1641 -0.3527 -0.0646
  357MOL   Cl4043472   4.092   1.783   1.183  0.3805  0.0906  0.3018
  357MOL    C4143473   4.134   2.005   1.038 -0.0407 -0.0192  0.1070
  357MOL    H4243474   4.089   2.095   0.995  0.7827  1.1963  1.7553
  357MOL    H4343475   4.157   2.047   1.136 -0.6591 -1.9110  1.0751
  357MOL    C4443476   4.282   1.988   0.979  0.4996  0.6487  0.0631
  357MOL   Cl4543477   4.388   2.119   1.046  0.0319  0.1400  0.2524
  357MOL   Cl4643478   4.257   2.015   0.801 -0.1851 -0.3659  0.5921
  357MOL    C4743479   4.355   1.853   1.006  0.1886 -0.0839  0.2261
  357MOL    H4843480   4.357   1.837   1.113  0.4622  2.3900  0.6271
  357MOL    H4943481   4.297   1.772   0.964 -1.5380  1.7384 -1.0048
  357MOL    C5043482   4.495   1.826   0.951  0.0068 -0.4383 -0.8775
  357MOL   Cl5143483   4.510   1.652   0.955 -0.5667  0.1059 -0.0216
  357MOL   Cl5243484   4.614   1.897   1.062  0.2951 -0.0674  0.2999
  357MOL    C5343485   4.523   1.886   0.809 -0.5792  0.7306 -0.0452
  357MOL    H5443486   4.445   1.860   0.737  0.2081 -1.2120 -0.2355
  357MOL    H5543487   4.516   1.992   0.832  1.7459  0.7807  0.5931
  357MOL    C5643488   4.658   1.883   0.727 -0.1470 -0.6542  0.1063
  357MOL   Cl5743489   4.732   1.725   0.730 -0.1220  0.3622  0.1382
  357MOL   Cl5843490   4.778   1.989   0.807 -0.0704 -0.2278  0.4482
  357MOL    C5943491   4.626   1.935   0.583  0.1490 -0.4149 -0.4671
  357MOL    H6043492   4.536   1.881   0.552 -0.6617 -1.2560  3.0408
  357MOL    H6143493   4.593   2.036   0.610 -1.6876 -1.1884  0.2718
  357MOL    C6243494   4.718   1.935   0.460  0.0960  0.3443  0.2950
  357MOL   Cl6343495   4.627   2.024   0.345 -0.3682 -0.6686 -0.2551
  357MOL   Cl6443496   4.709   1.775   0.383  0.1276  0.2660 -0.2304
  357MOL    C6543497   4.863   1.986   0.490  0.2225 -0.6480 -0.4097
  357MOL    H6643498   4.841   2.085   0.530 -0.2766 -0.7940 -0.3258
  357MOL    H6743499   4.898   1.934   0.579  2.6418  1.9031  0.2034
  357MOL    C6843500   4.977   1.995   0.393  0.4031 -0.2316  0.3585
  357MOL   Cl6943501   4.940   2.092   0.247 -0.0987 -0.4304 -0.2473
  357MOL   Cl7043502   5.037   1.839   0.322 -0.4858  0.3156  0.1718
  357MOL    C7143503   5.098   2.067   0.447 -0.2369 -0.1140  0.1329
  357MOL    H7243504   5.174   2.076   0.369 -0.9952  2.3864 -0.3802
  357MOL    H7343505   5.071   2.170   0.470 -1.4681 -0.1292 -1.1986
  357MOL    C7443506   5.168   2.031   0.576 -0.2160  0.3006 -0.2046
  357MOL   Cl7543507   5.069   2.091   0.713 -0.2201 -0.1099 -0.0280
  357MOL   Cl7643508   5.323   2.124   0.583 -0.2444  0.2280 -0.5397
  357MOL    C7743509   5.198   1.879   0.589 -0.3305 -0.9326 -0.1994
  357MOL    H7843510   5.108   1.826   0.562 -0.8853  0.3712 -0.9663
  357MOL    H7943511   5.273   1.861   0.512 -0.8150 -0.2342 -0.8329
  357MOL    C8043512   5.240   1.806   0.726 -0.3675  0.6169 -0.0426
  357MOL   Cl8143513   5.096   1.760   0.820  0.0532 -0.2178  0.1490
  357MOL   Cl8243514   5.318   1.926   0.835 -0.3798 -0.3387 -0.0606
  357MOL    C8343515   5.337   1.689   0.706  0.0194  0.0107 -0.1202
  357MOL    H8443516   5.419   1.726   0.644 -1.4420  2.4258 -0.6627
  357MOL    H8543517   5.373   1.666   0.806  2.0842  0.8012 -0.6550
  357MOL    C8643518   5.290   1.552   0.645  0.2206  0.7516 -0.2085
  357MOL   Cl8743519   5.160   1.577   0.524  0.3165  0.0452  0.0852
  357MOL   Cl8843520   5.228   1.465   0.792  0.2619  0.5971 -0.1453
  357MOL    C8943521   5.405   1.458   0.601  0.0667 -0.2549 -0.1613
  357MOL    H9043522   5.448   1.405   0.686  1.3322  0.4065 -0.3739
  357MOL    H9143523   5.358   1.380   0.542  1.7768  0.4090 -2.4826
  357MOL    C9243524   5.532   1.500   0.508  0.4423 -0.0881  0.0505
  357MOL   Cl9343525   5.647   1.607   0.587 -0.0901  0.4088  0.2083
  357MOL   Cl9443526   5.469   1.592   0.372  0.0711  0.1382  0.5426
  357MOL    C9543527   5.608   1.394   0.431  0.4727 -0.8382 -0.5700
  357MOL    H9643528   5.557   1.374   0.336 -2.3035 -0.1921  0.7560
  357MOL    H9743529   5.700   1.446   0.405  0.2197  0.6492  1.3989
  357MOL    C9843530   5.651   1.266   0.495  0.1121 -0.2424  0.0141
  357MOL   Cl9943531   5.507   1.165   0.511 -0.2415 -0.1762 -0.2054
  357MOL  Cl10043532   5.726   1.293   0.650 -0.3667 -0.0331 -0.3403
  357MOL   C10143533   5.754   1.180   0.411 -0.5196  0.4601  0.1616
  357MOL   H10243534   5.790   1.107   0.483 -1.3518  0.7073  0.8384
  357MOL   H10343535   5.705   1.128   0.328  0.9574  0.1348 -0.5237
  357MOL   C10443536   5.877   1.249   0.344 -0.1367  0.4588  0.3195
  357MOL  Cl10543537   5.972   1.363   0.448 -0.1264 -0.1733 -0.0124
  357MOL  Cl10643538   5.832   1.343   0.199 -0.3757  0.3813  0.2930
  357MOL   C10743539   5.981   1.140   0.290  0.2177  0.5252 -0.0612
  357MOL   H10843540   6.001   1.065   0.366  0.7270 -0.4189 -1.1017
  357MOL   H10943541   5.932   1.090   0.207  3.0972  1.4082 -2.4009
  357MOL   C11043542   6.110   1.178   0.218 -0.6406 -0.0128  1.1163
  357MOL  Cl11143543   6.185   1.026   0.167  0.1129 -0.3687  0.2280
  357MOL  Cl11243544   6.234   1.246   0.338  0.1497  0.0903 -0.2229
  357MOL   C11343545   6.100   1.280   0.094 -0.4713  0.5557  0.1549
  357MOL   H11443546   6.007   1.261   0.041 -0.1680  2.7666 -1.2114
  357MOL   H11543547   6.079   1.375   0.143  0.7606 -0.4241  2.6943
  357MOL   C11643548   6.208   1.309   9.165  0.1189  0.8551 -0.2276
  357MOL  Cl11743549   6.148   1.453   9.075  0.0665  0.2809  0.0533
  357MOL  Cl11843550   6.220   1.167   9.060 -0.1749 -0.2843 -0.0372
  357MOL   C11943551   6.345   1.347   0.047  0.2399 -0.7368 -0.5117
  357MOL   H12043552   6.341   1.416   0.131 -0.4601 -1.9027  0.4139
  357MOL   H12143553   6.398   1.257   0.078  0.4827  0.2478  2.0472
  357MOL   H12243554   6.407   1.394   9.150 -0.5491  1.4309  0.1458
  358MOL     C143555   4.271   0.360   6.303  0.8201  0.9148  0.8764
  358MOL    Cl243556   4.232   0.529   6.276 -0.0275  0.1883 -0.0643
  358MOL    Cl343557   4.441   0.350   6.354  0.4882 -0.0057 -0.2556
  358MOL     C443558   4.180   0.286   6.403  0.0220  0.1413 -0.3286
  358MOL     H543559   4.232   0.216   6.468 -2.5973 -0.8267  0.8076
  358MOL     H643560   4.147   0.365   6.469 -1.2936 -0.6978  0.0530
  358MOL     H743561   4.262   0.313   6.205 -0.6471 -0.2289  1.5456
  358MOL     C843562   4.053   0.212   6.345  0.6449  0.2828 -0.2967
  358MOL    Cl943563   4.104   0.085   6.224 -0.3546 -0.3529  0.2116
  358MOL   Cl1043564   3.954   0.330   6.255 -0.3447 -0.3237  0.0606
  358MOL    C1143565   3.961   0.161   6.461 -0.0142 -0.6197  0.3217
  358MOL    H1243566   3.920   0.253   6.503 -0.6715 -0.5592 -0.4265
  358MOL    H1343567   3.877   0.111   6.412 -2.0355  2.2155  0.7513
  358MOL    C1443568   4.011   0.081   6.579 -0.5131 -1.1029 -0.1263
  358MOL   Cl1543569   4.094   0.199   6.682 -0.4674  0.4590  0.6908
  358MOL   Cl1643570   4.120   9.134   6.523  0.4252  0.0833 -0.3564
  358MOL    C1743571   3.907   0.001   6.661 -0.0021 -0.3178 -0.5569
  358MOL    H1843572   3.858   9.112   6.593  0.1109  0.4172 -1.4025
  358MOL    H1943573   3.961   9.118   6.731 -1.2398  0.8550  1.5407
  358MOL    C2043574   3.794   0.074   6.738  0.1145 -0.0707  0.0781
  358MOL   Cl2143575   3.708   0.184   6.638 -0.0107 -0.6327  0.1360
  358MOL   Cl2243576   3.865   0.169   6.876 -0.2139  0.0589  0.0262
  358MOL    C2343577   3.692   9.157   6.797 -0.3076 -0.3490 -0.0871
  358MOL    H2443578   3.628   0.041   6.858 -1.1218  1.0307 -2.3695
  358MOL    H2543579   3.623   9.134   6.716 -1.1443  2.4640 -0.2291
  358MOL    C2643580   3.724   9.014   6.847 -0.3810  0.2302 -0.6437
  358MOL   Cl2743581   3.857   9.013   6.962 -0.1231  0.3011 -0.2178
  358MOL   Cl2843582   3.777   8.904   6.716 -0.4489  0.1032 -0.4062
  358MOL    C2943583   3.602   8.949   6.920 -0.2102  0.3486  0.4389
  358MOL    H3043584   3.640   8.850   6.943 -1.5613 -1.1688 -3.4337
  358MOL    H3143585   3.587   9.000   7.015 -0.4661  0.8996  0.1062
  358MOL    C3243586   3.456   8.925   6.859  0.0272  0.2625  0.3605
  358MOL   Cl3343587   3.458   8.858   6.691 -0.2417  0.4437 -0.3084
  358MOL   Cl3443588   3.392   9.087   6.857  0.2373  0.1999 -0.2585
  358MOL    C3543589   3.381   8.844   6.968  0.3031  0.0157  0.0602
  358MOL    H3643590   3.435   8.753   6.993 -2.8835 -1.3191  2.3880
  358MOL    H3743591   3.384   8.910   7.055  1.2871  1.8513 -1.3205
  358MOL    C3843592   3.236   8.794   6.946  0.1148 -0.3546 -0.6870
  358MOL   Cl3943593   3.176   8.729   7.105 -0.4557  0.4564 -0.0905
  358MOL   Cl4043594   3.244   8.643   6.841 -0.1028 -0.0731 -0.0384
  358MOL    C4143595   3.140   8.898   6.885  0.2794  0.0851  0.2443
  358MOL    H4243596   3.167   8.988   6.939  1.1204 -0.4705  0.7609
  358MOL    H4343597   3.169   8.917   6.782  1.8506  1.2972  0.8978
  358MOL    C4443598   2.988   8.900   6.871  0.0064  0.6208  0.1010
  358MOL   Cl4543599   2.954   8.748   6.786 -0.0252  0.0193 -0.2186
  358MOL   Cl4643600   2.942   9.037   6.760  0.1223  0.4961  0.2585
  358MOL    C4743601   2.922   8.917   7.012 -0.2885  0.0881 -0.3322
  358MOL    H4843602   2.938   8.824   7.068  1.6001 -0.2306 -1.3672
  358MOL    H4943603   2.972   8.994   7.070  0.1876 -0.6753  0.2803
  358MOL    C5043604   2.768   8.940   7.020 -0.8028 -0.1688  0.8814
  358MOL   Cl5143605   2.713   9.113   6.986  0.0913 -0.1499  0.1658
  358MOL   Cl5243606   2.726   8.905   7.193 -0.0529  0.4161  0.4417
  358MOL    C5343607   2.673   8.846   6.945  0.3195 -0.2645 -0.4697
  358MOL    H5443608   2.706   8.845   6.842 -0.3666 -0.6278 -0.6873
  358MOL    H5543609   2.680   8.742   6.976 -4.5539 -0.5843 -0.1731
  358MOL    C5643610   2.513   8.865   6.936  0.3644  0.2471 -0.1269
  358MOL   Cl5743611   2.433   8.711   6.895 -0.1035 -0.1276 -0.3592
  358MOL   Cl5843612   2.479   8.972   6.795 -0.3469 -0.2812  0.1321
  358MOL    C5943613   2.438   8.926   7.062 -0.0778  0.6501 -0.1935
  358MOL    H6043614   2.471   8.858   7.139 -0.6489 -1.2043 -1.5555
  358MOL    H6143615   2.493   9.016   7.090 -0.1939 -0.0514  2.4237
  358MOL    C6243616   2.282   8.941   7.075 -0.6452  0.3178  0.2472
  358MOL   Cl6343617   2.216   8.779   7.136  0.0529 -0.2981  0.1860
  358MOL   Cl6443618   2.196   8.980   6.924 -0.0645 -0.3629 -0.0680
  358MOL    C6543619   2.240   9.040   7.197 -0.1971 -0.5887 -0.0845
  358MOL    H6643620   2.140   9.017   7.232 -0.4696  1.1142  0.3013
  358MOL    H6743621   2.293   9.026   7.292  0.4483 -1.3285 -0.5502
  358MOL    C6843622   2.228   0.015   7.174  0.4372  0.0688  0.4314
  358MOL   Cl6943623   2.089   0.049   7.071  0.0868  0.0584 -0.0870
  358MOL   Cl7043624   2.373   0.082   7.085  0.2012 -0.4193 -0.2739
  358MOL    C7143625   2.205   0.104   7.297  0.3640 -0.0529  0.0920
  358MOL    H7243626   2.301   0.113   7.348 -0.7890 -0.0615  2.3532
  358MOL    H7343627   2.174   0.201   7.259 -1.3001 -0.2082  0.9834
  358MOL    C7443628   2.107   0.065   7.415  0.7815 -0.9042 -0.0081
  358MOL   Cl7543629   2.135   9.094   7.507  0.0039  0.1846 -0.0378
  358MOL   Cl7643630   1.938   0.041   7.350 -0.1449  0.2251 -0.1366
  358MOL    C7743631   2.096   0.186   7.512 -0.5631 -0.1112  0.0333
  358MOL    H7843632   2.046   0.263   7.453 -1.7633 -0.4706  0.5790
  358MOL    H7943633   2.021   0.146   7.580  1.6236 -1.6760  1.6002
  358MOL    C8043634   2.220   0.241   7.593 -0.1630  0.1784 -0.0715
  358MOL   Cl8143635   2.326   0.330   7.474 -0.2418  0.1408  0.1202
  358MOL   Cl8243636   2.319   0.099   7.655  0.1116  0.1692 -0.0911
  358MOL    C8343637   2.181   0.329   7.717 -0.2022  0.2002 -0.8339
  358MOL    H8443638   2.120   0.269   7.785  0.4027  1.5970  0.9562
  358MOL    H8543639   2.278   0.344   7.763 -1.3804  1.7720  1.2116
  358MOL    C8643640   2.098   0.465   7.697  0.6364  0.0499 -0.0601
  358MOL   Cl8743641   1.943   0.436   7.619  0.0031  0.3804 -0.3287
  358MOL   Cl8843642   2.195   0.577   7.590  0.2029  0.0609 -0.1711
  358MOL    C8943643   2.069   0.538   7.835 -0.3729  0.9597  0.1360
  358MOL    H9043644   2.037   0.638   7.807 -0.2838  1.1191  0.5907
  358MOL    H9143645   1.982   0.490   7.880  0.1150 -1.7244 -1.6575
  358MOL    C9243646   2.182   0.570   7.936  0.3143 -0.4807 -0.0670
  358MOL   Cl9343647   2.331   0.645   7.856  0.3671  0.0219  0.1589
  358MOL   Cl9443648   2.238   0.416   8.008 -0.1268 -0.3432  0.0313
  358MOL    C9543649   2.137   0.666   8.058 -0.1475  1.1946  0.5990
  358MOL    H9643650   2.085   0.607   8.133  1.3905  1.6011  2.0309
  358MOL    H9743651   2.224   0.704   8.113  0.7101 -2.2874  1.7269
  358MOL    C9843652   2.041   0.790   8.031 -0.0811 -1.1088  0.1822
  358MOL   Cl9943653   2.019   0.866   8.192  0.1599 -0.0140 -0.2119
  358MOL  Cl10043654   1.876   0.732   7.990  0.0011 -0.2767  0.3943
  358MOL   C10143655   2.100   0.897   7.931 -0.7771 -0.5565 -0.0224
  358MOL   H10243656   2.176   0.946   7.991  0.1724 -0.6730 -1.1271
  358MOL   H10343657   2.143   0.854   7.841 -0.3111 -0.6714  0.2553
  358MOL   C10443658   2.007   1.006   7.873  0.7442  0.4507  0.1434
  358MOL  Cl10543659   1.919   0.923   7.742 -0.2869 -0.1881 -0.1623
  358MOL  Cl10643660   2.115   1.135   7.811  0.0597 -0.1622  0.0549
  358MOL   C10743661   1.911   1.072   7.972 -0.1653  0.1682  0.5266
  358MOL   H10843662   1.855   0.999   8.030  0.1484  0.1120  0.7568
  358MOL   H10943663   1.974   1.111   8.052 -1.1033 -0.1958  1.4438
  358MOL   C11043664   1.817   1.184   7.922  0.2345  0.0001 -0.8211
  358MOL  Cl11143665   1.738   1.157   7.760 -0.4254 -0.0079 -0.1483
  358MOL  Cl11243666   1.904   1.338   7.905 -0.3254 -0.1444  0.0034
  358MOL   C11343667   1.716   1.223   8.030 -0.3742 -0.1294 -0.6465
  358MOL   H11443668   1.767   1.248   8.123 -0.0498  0.6445 -1.0247
  358MOL   H11543669   1.670   1.322   8.025 -1.3525 -0.3878  2.4122
  358MOL   C11643670   1.610   1.121   8.087  0.1257 -0.1054 -0.5434
  358MOL  Cl11743671   1.475   1.212   8.161 -0.0737 -0.1331 -0.0942
  358MOL  Cl11843672   1.675   1.028   8.219  0.0130  0.3896 -0.0776
  358MOL   C11943673   1.562   1.026   7.981 -0.2761  0.0009 -0.2523
  358MOL   H12043674   1.489   0.957   8.023  0.8403 -1.4238 -0.6316
  358MOL   H12143675   1.511   1.085   7.904  0.6981 -0.8023 -1.5241
  358MOL   H12243676   1.640   0.971   7.929 -1.4077  0.0551 -2.0280
  359MOL     C143677   3.512   3.856   7.887  0.1597  0.0627 -0.0345
  359MOL    Cl243678   3.375   3.968   7.912  0.0845 -0.0179 -0.2809
  359MOL    Cl343679   3.595   3.913   7.739 -0.0442  0.0852  0.0438
  359MOL     C443680   3.603   3.865   8.020  0.3929  0.1355 -0.6623
  359MOL     H543681   3.641   3.966   8.039 -0.7578 -0.0071  2.5670
  359MOL     H643682   3.537   3.855   8.105 -0.8182  1.2654 -1.4386
  359MOL     H743683   3.472   3.759   7.858 -0.2127  0.4667 -0.9047
  359MOL     C843684   3.720   3.762   8.026  0.1204  0.0407  0.0180
  359MOL    Cl943685   3.670   3.599   7.991 -0.2247 -0.0484  0.0929
  359MOL   Cl1043686   3.777   3.771   8.198 -0.1581  0.1134 -0.1023
  359MOL    C1143687   3.835   3.799   7.926  0.0171  0.1136  0.5211
  359MOL    H1243688   3.806   3.760   7.829  2.9397 -3.9256  1.1404
  359MOL    H1343689   3.833   3.907   7.911 -1.0057  0.2261  1.3482
  359MOL    C1443690   3.982   3.742   7.945  0.1116 -0.1713  0.1306
  359MOL   Cl1543691   4.074   3.827   8.077  0.1111  0.0360  0.2726
  359MOL   Cl1643692   4.060   3.790   7.792  0.0208 -0.0420 -0.1794
  359MOL    C1743693   3.998   3.590   7.978  0.0872  0.4449  0.2213
  359MOL    H1843694   3.960   3.578   8.079  2.3845  1.2450  1.2319
  359MOL    H1943695   3.940   3.525   7.913 -0.3817  1.6858 -0.6249
  359MOL    C2043696   4.135   3.524   7.969  1.3301  0.8476  0.2041
  359MOL   Cl2143697   4.165   3.500   7.793 -0.2000  0.1341 -0.4014
  359MOL   Cl2243698   4.108   3.363   8.036 -0.5658  0.0330 -0.2521
  359MOL    C2343699   4.250   3.593   8.047 -0.4058 -0.2762  0.1741
  359MOL    H2443700   4.266   3.687   7.993  0.8508 -0.5876 -0.0237
  359MOL    H2543701   4.227   3.623   8.149 -2.7588 -0.0942 -0.3744
  359MOL    C2643702   4.391   3.526   8.057 -0.4923  0.2858  0.6598
  359MOL   Cl2743703   4.498   3.653   8.113  0.4041 -0.2979  0.1095
  359MOL   Cl2843704   4.462   3.493   7.892  0.1196  0.0549  0.0071
  359MOL    C2943705   4.400   3.397   8.147  0.6338  0.2278  0.3740
  359MOL    H3043706   4.326   3.421   8.223 -1.1681  0.1668 -1.3394
  359MOL    H3143707   4.347   3.319   8.094 -0.1872  1.3166 -0.4486
  359MOL    C3243708   4.531   3.354   8.219  0.4767  0.5204 -0.2731
  359MOL   Cl3343709   4.673   3.382   8.118 -0.3015 -0.1225 -0.1660
  359MOL   Cl3443710   4.519   3.176   8.233 -0.1464  0.0679  0.3406
  359MOL    C3543711   4.545   3.421   8.360 -0.4240 -0.3102  0.6221
  359MOL    H3643712   4.645   3.459   8.380 -0.7751  1.0335 -0.0709
  359MOL    H3743713   4.486   3.512   8.365 -1.1793 -0.6486 -1.5462
  359MOL    C3843714   4.494   3.354   8.493 -0.1520 -0.4966  0.4560
  359MOL   Cl3943715   4.322   3.315   8.479  0.1929 -0.1806 -0.3802
  359MOL   Cl4043716   4.512   3.477   8.615 -0.1443 -0.0072 -0.1821
  359MOL    C4143717   4.580   3.240   8.548  0.6665 -0.0305  0.0693
  359MOL    H4243718   4.616   3.169   8.473 -0.1732  2.9147 -3.2363
  359MOL    H4343719   4.675   3.277   8.588 -0.5626  1.8818  1.2412
  359MOL    C4443720   4.531   3.132   8.649 -0.7146  1.0321 -0.2484
  359MOL   Cl4543721   4.676   3.040   8.697  0.0234  0.6687 -0.1047
  359MOL   Cl4643722   4.430   3.021   8.550 -0.0035 -0.5190 -0.1365
  359MOL    C4743723   4.444   3.185   8.770  0.5145  0.1386 -0.4002
  359MOL    H4843724   4.469   3.287   8.799  3.5343 -0.0210 -2.1985
  359MOL    H4943725   4.342   3.190   8.732 -0.0748  1.2484  1.2939
  359MOL    C5043726   4.425   3.088   8.901 -0.0120 -1.3646  0.3470
  359MOL   Cl5143727   4.429   2.919   8.844  0.1355 -0.2266  0.2748
  359MOL   Cl5243728   4.263   3.128   8.979 -0.0859 -0.4143  0.0863
  359MOL    C5343729   4.533   3.112   9.013  0.1220  0.2040 -0.4767
  359MOL    H5443730   4.505   3.044   9.093 -0.3582  0.6383 -0.2717
  359MOL    H5543731   4.621   3.064   8.971 -2.4533 -2.2685 -3.3350
  359MOL    C5643732   4.577   3.261   9.059 -0.2306  0.4976 -0.3770
  359MOL   Cl5743733   4.441   3.376   9.087 -0.1113 -0.6277  0.3964
  359MOL   Cl5843734   4.691   3.335   8.941  0.3395 -0.3983  0.1686
  359MOL    C5943735   4.649   3.275   0.017 -0.2901  0.3993 -0.8647
  359MOL    H6043736   4.695   3.374   0.007  0.8287  0.2385  2.3544
  359MOL    H6143737   4.573   3.296   0.092  0.6446 -0.0519  0.2175
  359MOL    C6243738   4.748   3.174   0.083  0.3586  0.2036  0.9643
  359MOL   Cl6343739   4.869   3.122   9.151 -0.2845 -0.4751 -0.1535
  359MOL   Cl6443740   4.649   3.032   0.129 -0.4291  0.2136  0.0293
  359MOL    C6543741   4.826   3.204   0.218 -0.3791  0.0295 -0.2991
  359MOL    H6643742   4.855   3.107   0.260  0.1739 -0.0365 -0.8372
  359MOL    H6743743   4.918   3.254   0.189  0.6503 -1.0601  0.9791
  359MOL    C6843744   4.765   3.276   0.340  0.1224  0.6504  0.1558
  359MOL   Cl6943745   4.721   3.436   0.284  0.0232 -0.0296 -0.0861
  359MOL   Cl7043746   4.903   3.283   0.450 -0.2804 -0.0260  0.1087
  359MOL    C7143747   4.651   3.192   0.404 -0.2310 -0.2387  0.4550
  359MOL    H7243748   4.573   3.156   0.338 -2.1961 -2.2476  3.7436
  359MOL    H7343749   4.700   3.100   0.436 -0.5091 -0.9509 -1.1388
  359MOL    C7443750   4.565   3.254   0.516  0.3121 -0.0610  0.1026
  359MOL   Cl7543751   4.455   3.379   0.445  0.6832  0.0731 -0.1191
  359MOL   Cl7643752   4.657   3.352   0.629 -0.0427  0.2726  0.0448
  359MOL    C7743753   4.478   3.158   0.590  0.7653  0.5675 -0.4369
  359MOL    H7843754   4.418   3.219   0.658 -0.0735 -0.6456 -0.0643
  359MOL    H7943755   4.398   3.138   0.518  0.6471  2.2641 -0.8048
  359MOL    C8043756   4.527   3.020   0.655 -0.0403  0.7909  0.0572
  359MOL   Cl8143757   4.569   2.910   0.525 -0.0095 -0.3215 -0.3074
  359MOL   Cl8243758   4.394   2.949   0.750 -0.1367  0.0275  0.2595
  359MOL    C8343759   4.645   3.050   0.756 -0.1630 -0.1879 -0.1226
  359MOL    H8443760   4.713   3.096   0.684  1.0706 -0.6450  0.7256
  359MOL    H8543761   4.611   3.135   0.816  0.5537  1.1095 -1.5311
  359MOL    C8643762   4.730   2.938   0.825  0.0662  0.2773  0.2027
  359MOL   Cl8743763   4.766   2.807   0.712 -0.1471  0.2953 -0.4676
  359MOL   Cl8843764   4.627   2.861   0.953  0.0336 -0.1926  0.0572
  359MOL    C8943765   4.867   2.990   0.867  0.6501  0.1392  0.4083
  359MOL    H9043766   4.924   2.909   0.914  1.6893  1.3887  1.3284
  359MOL    H9143767   4.930   3.026   0.786  0.7660  0.6296  0.7120
  359MOL    C9243768   4.881   3.100   0.974  0.3991 -0.0635 -0.3965
  359MOL   Cl9343769   4.769   3.072   1.116  0.1350 -0.2252  0.3531
  359MOL   Cl9443770   4.860   3.264   0.904 -0.3689 -0.3323  0.2875
  359MOL    C9543771   5.025   3.108   1.036  0.3171 -0.1847  0.0686
  359MOL    H9643772   5.020   3.192   1.106  1.8016  0.1435 -0.2022
  359MOL    H9743773   5.036   3.020   1.098  2.0323  0.5032  0.7611
  359MOL    C9843774   5.159   3.118   0.952 -0.3952 -0.1189  0.0384
  359MOL   Cl9943775   5.152   3.245   0.822 -0.1051 -0.4400 -0.0275
  359MOL  Cl10043776   5.205   2.958   0.882  0.0703 -0.1017  0.1822
  359MOL   C10143777   5.273   3.169   1.050 -0.1665  0.3872  0.2089
  359MOL   H10243778   5.359   3.157   0.985 -1.8365  0.2003 -2.0027
  359MOL   H10343779   5.262   3.275   1.074  1.4894  0.4093  0.9837
  359MOL   C10443780   5.314   3.098   1.189  0.0662  0.4823 -0.3244
  359MOL  Cl10543781   5.335   2.921   1.169  0.1311 -0.1826  0.1694
  359MOL  Cl10643782   5.189   3.135   1.309  0.2742 -0.1912  0.4158
  359MOL   C10743783   5.448   3.165   1.234  0.4840  0.3059 -0.1650
  359MOL   H10843784   5.518   3.118   1.165 -0.4687 -0.8920 -0.3344
  359MOL   H10943785   5.448   3.267   1.196  0.4166 -0.8955 -3.5489
  359MOL   C11043786   5.505   3.138   1.378 -0.8398 -0.4640 -0.7377
  359MOL  Cl11143787   5.468   2.983   1.454  0.3285  0.1012 -0.2636
  359MOL  Cl11243788   5.440   3.255   1.494  0.1108  0.0728  0.1369
  359MOL   C11343789   5.662   3.149   1.376 -0.4391 -0.6134  0.2180
  359MOL   H11443790   5.700   3.126   1.475 -0.9617  0.3328  0.6370
  359MOL   H11543791   5.701   3.065   1.317 -1.2985 -1.5958  1.0263
  359MOL   C11643792   5.736   3.273   1.309 -0.1972 -0.3758 -0.2570
  359MOL  Cl11743793   5.673   3.420   1.379 -0.5040  0.0369  0.0085
  359MOL  Cl11843794   5.726   3.283   1.136  0.0387  0.5074 -0.3237
  359MOL   C11943795   5.887   3.278   1.330 -0.2468  0.5541 -0.5787
  359MOL   H12043796   5.915   3.184   1.282  1.2338  1.4162 -1.4210
  359MOL   H12143797   5.938   3.360   1.279  0.5528 -1.3839 -3.0213
  359MOL   H12243798   5.913   3.277   1.436  0.5959  0.0169 -0.7877
  360MOL     C143799   7.727   7.756   5.845  0.2070  0.5293  0.3222
  360MOL    Cl243800   7.801   7.872   5.962 -0.2197  0.1890  0.0138
  360MOL    Cl343801   7.777   7.815   5.681 -0.0902  0.5652 -0.3502
  360MOL     C443802   7.783   7.615   5.869 -0.1014  0.9941  0.1605
  360MOL     H543803   7.743   7.557   5.785 -2.6173  1.0569  1.2662
  360MOL     H643804   7.889   7.609   5.845 -0.3056 -0.6744 -0.4367
  360MOL     H743805   7.618   7.763   5.850  0.2134  2.5681 -1.5020
  360MOL     C843806   7.753   7.540   6.004 -0.0719 -0.2701 -0.0020
  360MOL    Cl943807   7.809   7.377   5.968  0.0129  0.5704  0.4115
  360MOL   Cl1043808   7.574   7.549   6.026  0.1399  0.2409  0.1109
  360MOL    C1143809   7.831   7.604   6.128 -0.6469  0.1086 -0.5885
  360MOL    H1243810   7.929   7.641   6.098 -0.0003  1.1283  2.6239
  360MOL    H1343811   7.771   7.690   6.159 -1.6524  0.3371 -3.0025
  360MOL    C1443812   7.867   7.521   6.254 -0.2243 -0.0620  0.1688
  360MOL   Cl1543813   7.973   7.395   6.215  0.1421 -0.0554  0.2933
  360MOL   Cl1643814   7.726   7.435   6.324 -0.1669 -0.1046 -0.1897
  360MOL    C1743815   7.926   7.612   6.371 -0.1953  0.3834 -0.2372
  360MOL    H1843816   7.846   7.663   6.426 -1.1980 -2.6142  1.1962
  360MOL    H1943817   7.970   7.547   6.447  1.9120  0.9804 -0.9216
  360MOL    C2043818   8.045   7.716   6.346  0.1377 -0.5003 -0.1175
  360MOL   Cl2143819   7.979   7.844   6.254  0.1835 -0.2763  0.0068
  360MOL   Cl2243820   8.176   7.641   6.255 -0.3259  0.5158  0.2278
  360MOL    C2343821   8.104   7.788   6.475  0.0117 -0.0582  0.0053
  360MOL    H2443822   8.202   7.825   6.446  0.3123  0.0301  1.1099
  360MOL    H2543823   8.047   7.874   6.511 -0.2677 -0.3930  0.3672
  360MOL    C2643824   8.127   7.712   6.612  0.4981  0.0613 -0.1779
  360MOL   Cl2743825   8.221   7.569   6.579 -0.1000  0.1854 -0.1343
  360MOL   Cl2843826   7.973   7.671   6.688  0.0013 -0.3938  0.1811
  360MOL    C2943827   8.214   7.791   6.717  0.2348  0.1768  0.4891
  360MOL    H3043828   8.201   7.738   6.811  1.7532 -2.2553 -0.6234
  360MOL    H3143829   8.320   7.778   6.694 -0.0581  2.3020 -2.4474
  360MOL    C3243830   8.195   7.950   6.735 -0.1926  0.1034  0.2061
  360MOL   Cl3343831   8.029   7.999   6.759 -0.0287 -0.3881 -0.2667
  360MOL   Cl3443832   8.250   8.038   6.589 -0.4091  0.3664 -0.3941
  360MOL    C3543833   8.295   7.997   6.849 -0.3122  0.1154 -0.1770
  360MOL    H3643834   8.397   8.013   6.812  0.1695  1.7228  1.7673
  360MOL    H3743835   8.250   8.095   6.867 -3.7954 -1.0575 -2.0797
  360MOL    C3843836   8.307   7.922   6.986 -0.4376 -0.4932 -0.0036
  360MOL   Cl3943837   8.399   7.777   6.971  0.0283 -0.3820 -0.2272
  360MOL   Cl4043838   8.142   7.878   7.041 -0.1862  0.3242  0.0684
  360MOL    C4143839   8.379   8.002   7.109 -0.0105  0.4992 -0.4960
  360MOL    H4243840   8.369   7.937   7.196  1.7268  0.4670 -0.3155
  360MOL    H4343841   8.485   7.997   7.088  0.3164  2.3727  0.5441
  360MOL    C4443842   8.346   8.153   7.145  0.5279  0.9134  0.0713
  360MOL   Cl4543843   8.440   8.260   7.034  0.0314 -0.6556 -0.3543
  360MOL   Cl4643844   8.407   8.182   7.302  0.1981 -0.0150  0.1435
  360MOL    C4743845   8.187   8.180   7.151  0.1465  1.3421  0.9380
  360MOL    H4843846   8.146   8.147   7.055  0.9427 -0.4822  1.2096
  360MOL    H4943847   8.149   8.117   7.232  1.9731 -1.0399  0.0143
  360MOL    C5043848   8.115   8.316   7.176  0.0710 -0.2083 -0.1439
  360MOL   Cl5143849   8.133   8.415   7.031 -0.1888 -0.1107 -0.3651
  360MOL   Cl5243850   8.197   8.410   7.308  0.1773  0.0522 -0.1041
  360MOL    C5343851   7.976   8.302   7.224  0.1756 -0.2279  0.6380
  360MOL    H5443852   7.987   8.268   7.327 -1.0311  1.1129  1.2115
  360MOL    H5543853   7.940   8.404   7.223 -0.2404 -0.3570  1.5399
  360MOL    C5643854   7.862   8.225   7.150  0.5687  0.8132  0.5180
  360MOL   Cl5743855   7.892   8.048   7.146  0.1969  0.0169  0.3030
  360MOL   Cl5843856   7.858   8.293   6.985 -0.0970  0.2800 -0.0204
  360MOL    C5943857   7.720   8.252   7.204 -0.3610 -0.2225  0.4623
  360MOL    H6043858   7.690   8.350   7.166  0.7629  0.1737  0.5860
  360MOL    H6143859   7.660   8.183   7.145  1.1238  0.5430 -2.0270
  360MOL    C6243860   7.696   8.252   7.358  0.3920 -0.4268 -0.6367
  360MOL   Cl6343861   7.755   8.408   7.429  0.4935  0.1275  0.0744
  360MOL   Cl6443862   7.790   8.120   7.434 -0.3651 -0.2004 -0.1289
  360MOL    C6543863   7.545   8.225   7.403 -0.1310  0.1818  0.2724
  360MOL    H6643864   7.537   8.119   7.382 -0.8704  0.8994 -3.4043
  360MOL    H6743865   7.539   8.238   7.511  0.9440 -1.1535  0.4947
  360MOL    C6843866   7.425   8.302   7.327 -0.4250  0.3374 -0.7439
  360MOL   Cl6943867   7.407   8.255   7.152  0.1597  0.4232  0.6299
  360MOL   Cl7043868   7.469   8.471   7.320  0.0344  0.0121  0.2082
  360MOL    C7143869   7.284   8.275   7.386 -0.5196  1.0678  0.1164
  360MOL    H7243870   7.218   8.324   7.313 -1.0658  0.3279  0.1032
  360MOL    H7343871   7.263   8.169   7.374  0.2027  0.8525  0.7380
  360MOL    C7443872   7.229   8.298   7.529 -0.4313  0.4676  0.4154
  360MOL   Cl7543873   7.256   8.460   7.579  0.0950  0.4844 -0.3526
  360MOL   Cl7643874   7.320   8.190   7.644  0.2131 -0.0943  0.5544
  360MOL    C7743875   7.074   8.278   7.543 -0.7355  0.2415 -0.1738
  360MOL    H7843876   7.042   8.304   7.644 -0.3259  1.3084 -0.3114
  360MOL    H7943877   7.020   8.356   7.488 -0.8366 -0.0158 -0.4417
  360MOL    C8043878   7.005   8.150   7.505  0.3201 -0.2157 -0.4434
  360MOL   Cl8143879   6.992   8.144   7.331  0.1509  0.3168  0.7101
  360MOL   Cl8243880   6.827   8.155   7.572 -0.0267  0.3311 -0.2828
  360MOL    C8343881   7.081   8.027   7.563  0.1946  0.0546 -0.5506
  360MOL    H8443882   7.179   8.022   7.516  0.1718  1.6647 -0.7978
  360MOL    H8543883   7.103   8.036   7.669 -2.8195 -1.1439  0.2473
  360MOL    C8643884   7.031   7.889   7.547  0.0880  0.9688  0.0437
  360MOL   Cl8743885   6.883   7.854   7.646  0.3532  0.1743 -0.0849
  360MOL   Cl8843886   7.158   7.790   7.630  0.1845 -0.2814 -0.1633
  360MOL    C8943887   7.006   7.841   7.405  0.0027 -0.6338 -0.4225
  360MOL    H9043888   6.905   7.873   7.383  0.4868  0.1401 -1.5586
  360MOL    H9143889   7.067   7.889   7.328  1.0145 -0.2329  0.6102
  360MOL    C9243890   7.013   7.689   7.378  0.7027  0.2686  0.2365
  360MOL   Cl9343891   6.907   7.677   7.226 -0.0613  0.5691 -0.2273
  360MOL   Cl9443892   6.944   7.585   7.501 -0.2325 -0.0908 -0.0299
  360MOL    C9543893   7.157   7.625   7.350  0.0795  0.4059 -0.4895
  360MOL    H9643894   7.205   7.609   7.446  0.2764  0.1796 -0.6246
  360MOL    H9743895   7.142   7.526   7.307  1.2384 -0.5354  1.2166
  360MOL    C9843896   7.263   7.695   7.256 -0.4907  0.4389  0.4007
  360MOL   Cl9943897   7.318   7.858   7.307 -0.1308  0.1764  0.0598
  360MOL  Cl10043898   7.183   7.697   7.095  0.1431  0.1082  0.4582
  360MOL   C10143899   7.380   7.598   7.240  0.5977 -0.1613  0.5900
  360MOL   H10243900   7.423   7.568   7.336  0.7333  1.1336  0.9366
  360MOL   H10343901   7.333   7.508   7.199  2.3364 -0.9537  0.2785
  360MOL   C10443902   7.513   7.629   7.166 -0.1457 -0.0173 -0.5095
  360MOL  Cl10543903   7.598   7.473   7.159 -0.0697  0.2030 -0.0106
  360MOL  Cl10643904   7.611   7.737   7.269  0.3033 -0.0169  0.0765
  360MOL   C10743905   7.498   7.690   7.025  0.3283  0.4351 -0.1077
  360MOL   H10843906   7.410   7.645   6.978 -0.2981  1.7347 -0.1967
  360MOL   H10943907   7.460   7.791   7.037  0.4590  0.2374  2.1321
  360MOL   C11043908   7.621   7.683   6.924  0.3644 -0.8135  0.0906
  360MOL  Cl11143909   7.618   7.517   6.847  0.0545  0.0430  0.2514
  360MOL  Cl11243910   7.774   7.704   7.002 -0.1637  0.3629  0.1948
  360MOL   C11343911   7.588   7.782   6.806 -0.1103 -0.2574  0.1539
  360MOL   H11443912   7.673   7.773   6.738  0.1948 -0.8217  0.6059
  360MOL   H11543913   7.497   7.749   6.755 -1.3536  1.9587  0.8544
  360MOL   C11643914   7.580   7.936   6.823  0.1286 -0.3168 -0.5643
  360MOL  Cl11743915   7.414   7.977   6.861 -0.2197  0.3110 -0.5560
  360MOL  Cl11843916   7.602   8.020   6.663 -0.0236 -0.3102 -0.5976
  360MOL   C11943917   7.673   8.005   6.926  0.3191  0.1089  0.1998
  360MOL   H12043918   7.779   7.993   6.905  0.8169  3.3915  0.5029
  360MOL   H12143919   7.650   8.108   6.900 -0.9517 -0.6155 -1.6146
  360MOL   H12243920   7.637   7.977   7.026 -1.7277 -0.7450 -0.7370
  361MOL     C143921   2.379   1.961   6.294  0.2550  0.5686 -0.7392
  361MOL    Cl243922   2.536   1.880   6.303 -0.2197 -0.0107  0.2942
  361MOL    Cl343923   2.288   1.948   6.448 -0.3603  0.3323  0.6291
  361MOL     C443924   2.404   2.113   6.267 -0.0308  0.0474  0.0023
  361MOL     H543925   2.428   2.166   6.359 -0.0078  1.8439 -0.9985
  361MOL     H643926   2.494   2.113   6.205 -0.2748  0.2898 -0.3584
  361MOL     H743927   2.326   1.914   6.211 -2.1713  0.8686  0.5906
  361MOL     C843928   2.295   2.195   6.192  0.0507  0.5080  0.6497
  361MOL    Cl943929   2.151   2.203   6.298 -0.2561  0.1454 -0.6091
  361MOL   Cl1043930   2.245   2.100   6.053  0.0905 -0.2065 -0.5625
  361MOL    C1143931   2.338   2.331   6.137 -0.3931  0.2737 -0.4608
  361MOL    H1243932   2.390   2.381   6.219 -1.7015  1.7544 -0.5069
  361MOL    H1343933   2.416   2.325   6.061  1.2871  0.9056  1.1797
  361MOL    C1443934   2.226   2.435   6.088  0.0553 -0.2835  0.1238
  361MOL   Cl1543935   2.317   2.548   5.985  0.1667  0.0952 -0.4700
  361MOL   Cl1643936   2.164   2.525   6.234 -0.2624 -0.0405 -0.0629
  361MOL    C1743937   2.107   2.389   6.002 -0.2902 -0.2596 -0.8568
  361MOL    H1843938   2.148   2.354   5.907  0.9506 -1.0842 -0.0363
  361MOL    H1943939   2.080   2.295   6.051  1.8796  0.4783  1.8393
  361MOL    C2043940   1.969   2.468   5.985  0.1186 -0.2831  0.3003
  361MOL   Cl2143941   1.870   2.440   6.138 -0.0606  0.2484  0.1327
  361MOL   Cl2243942   1.896   2.404   5.837 -0.2877 -0.1389  0.0455
  361MOL    C2343943   1.991   2.619   5.951 -0.5514 -0.0693  0.0756
  361MOL    H2443944   2.062   2.659   6.024 -0.3524  0.3051 -0.3226
  361MOL    H2543945   2.050   2.634   5.861 -0.1287  0.7425  0.4744
  361MOL    C2643946   1.876   2.723   5.966 -0.3537  0.6414 -0.5516
  361MOL   Cl2743947   1.914   2.867   5.865 -0.2988  0.7186 -0.1589
  361MOL   Cl2843948   1.888   2.789   6.133  0.3217 -0.1859 -0.0904
  361MOL    C2943949   1.733   2.674   5.929 -0.3052  1.0579 -0.3634
  361MOL    H3043950   1.734   2.653   5.822  0.0820 -0.8779 -0.0034
  361MOL    H3143951   1.721   2.575   5.975  1.6698  0.4678 -1.0522
  361MOL    C3243952   1.597   2.750   5.946  0.3462  0.1835 -0.4702
  361MOL   Cl3343953   1.563   2.768   6.121  0.7907  0.0495  0.2073
  361MOL   Cl3443954   1.477   2.646   5.863  0.2597  0.0163  0.2838
  361MOL    C3543955   1.596   2.897   5.885  0.5091 -0.2042  0.5210
  361MOL    H3643956   1.650   2.963   5.953  1.2614 -3.6057  3.3737
  361MOL    H3743957   1.655   2.902   5.794 -0.3642 -1.6573 -0.1301
  361MOL    C3843958   1.462   2.979   5.846 -0.2688 -0.6876 -0.8518
  361MOL   Cl3943959   1.383   2.891   5.709  0.1022  0.1707  0.3158
  361MOL   Cl4043960   1.507   3.139   5.800  0.5464 -0.0674 -0.2622
  361MOL    C4143961   1.364   2.977   5.968 -0.1164  0.7109 -0.5332
  361MOL    H4243962   1.361   2.878   6.014  3.3372  1.8090  2.3454
  361MOL    H4343963   1.421   3.043   6.034  1.1345 -1.6840  0.8420
  361MOL    C4443964   1.224   3.034   5.965 -0.0642  0.3107  0.1749
  361MOL   Cl4543965   1.234   3.195   5.897  0.3061  0.0008 -0.2207
  361MOL   Cl4643966   1.169   3.049   6.128  0.1295 -0.1037  0.2189
  361MOL    C4743967   1.122   2.948   5.877  0.5193 -0.2076 -0.0402
  361MOL    H4843968   1.139   2.991   5.779  1.7214 -0.8608 -0.1231
  361MOL    H4943969   1.154   2.844   5.870  0.9207 -0.1340  0.6788
  361MOL    C5043970   0.971   2.940   5.911 -0.7036 -0.0119 -0.3731
  361MOL   Cl5143971   0.949   2.827   6.052  0.0032 -0.1271 -0.1480
  361MOL   Cl5243972   0.890   2.845   5.785  0.1575 -0.2402  0.0982
  361MOL    C5343973   0.913   3.079   5.922  0.0798  0.6184 -0.1414
  361MOL    H5443974   0.981   3.146   5.975 -2.6787  1.0710  2.9851
  361MOL    H5543975   0.919   3.121   5.822  1.3480  0.7537 -0.0180
  361MOL    C5643976   0.781   3.107   5.990  0.3988  0.1133  0.0032
  361MOL   Cl5743977   0.793   3.073   6.167 -0.1900 -0.1788  0.2675
  361MOL   Cl5843978   0.640   3.019   5.916  0.0296 -0.1335  0.0847
  361MOL    C5943979   0.746   3.263   5.985 -0.0256 -0.1860 -0.7652
  361MOL    H6043980   0.644   3.268   6.023  0.3037  0.6327  0.0439
  361MOL    H6143981   0.807   3.332   6.044  0.3618 -0.9944 -0.2125
  361MOL    C6243982   0.746   3.349   5.855  0.2197 -0.1339 -0.0931
  361MOL   Cl6343983   0.691   3.263   5.704 -0.3636 -0.5737 -0.1509
  361MOL   Cl6443984   0.918   3.395   5.834  0.1254 -0.4249 -0.0917
  361MOL    C6543985   0.670   3.485   5.864 -0.1224  0.0217  0.1200
  361MOL    H6643986   0.723   3.551   5.933 -0.8387  1.9569 -1.1482
  361MOL    H6743987   0.664   3.531   5.765  0.0217 -1.2357 -0.4799
  361MOL    C6843988   0.527   3.490   5.926  0.3931 -0.3009  0.4189
  361MOL   Cl6943989   0.541   3.507   6.103  0.0316  0.1477  0.0134
  361MOL   Cl7043990   0.440   3.344   5.876  0.1869  0.0871  0.1575
  361MOL    C7143991   0.438   3.604   5.867 -0.1831 -0.1447  0.1270
  361MOL    H7243992   0.403   3.582   5.766 -0.2469  0.5729 -0.0118
  361MOL    H7343993   0.347   3.613   5.927  0.5803  0.5567  1.2116
  361MOL    C7443994   0.493   3.748   5.852  0.2315 -0.3623 -0.5495
  361MOL   Cl7543995   0.572   3.758   5.696  0.0135 -0.0506  0.5798
  361MOL   Cl7643996   0.624   3.795   5.975 -0.5600  0.2384  0.2007
  361MOL    C7743997   0.382   3.866   5.854  0.4788  0.1590 -0.2927
  361MOL    H7843998   0.402   3.941   5.777  0.6891  0.1257 -0.2727
  361MOL    H7943999   0.292   3.827   5.807 -0.1849  0.3675  0.7943
  361MOL    C8044000   0.344   3.930   5.987  0.0746 -0.2887 -0.4816
  361MOL   Cl8144001   0.322   3.808   6.118 -0.5286  0.2550 -0.0460
  361MOL   Cl8244002   0.179   3.993   5.942 -0.2327 -0.3877 -0.0132
  361MOL    C8344003   0.435   4.039   6.044 -0.0246 -0.1724 -0.4436
  361MOL    H8444004   0.387   4.089   6.128  1.2474 -1.2749  0.9536
  361MOL    H8544005   0.520   3.990   6.091 -0.2276  0.5875  0.7298
  361MOL    C8644006   0.489   4.165   5.960 -0.6898 -0.1219 -1.3014
  361MOL   Cl8744007   0.363   4.251   5.875  0.1322 -0.3270  0.1981
  361MOL   Cl8844008   0.601   4.106   5.832 -0.0305 -0.1323  0.1834
  361MOL    C8944009   0.553   4.282   6.043 -0.2484 -0.1034 -0.0798
  361MOL    H9044010   0.598   4.336   5.959  0.9381 -2.3980 -0.9679
  361MOL    H9144011   0.470   4.344   6.076 -0.0824 -0.2733  0.6663
  361MOL    C9244012   0.657   4.254   6.159 -0.4803  0.6958 -0.3293
  361MOL   Cl9344013   0.765   4.394   6.161  0.2167 -0.1097  0.2171
  361MOL   Cl9444014   0.762   4.121   6.118 -0.4155  0.0395 -0.3072
  361MOL    C9544015   0.608   4.225   6.303  0.0062 -0.1911  0.1556
  361MOL    H9644016   0.531   4.149   6.288 -0.1428 -0.4781  2.1935
  361MOL    H9744017   0.685   4.178   6.364 -0.8349  0.3419  1.6662
  361MOL    C9844018   0.551   4.341   6.390 -0.0910  0.4368 -0.2078
  361MOL   Cl9944019   0.450   4.455   6.299 -0.0471  0.0915 -0.4320
  361MOL  Cl10044020   0.674   4.450   6.456 -0.0065  0.0191 -0.3377
  361MOL   C10144021   0.462   4.294   6.514  0.5482 -0.5213  0.1150
  361MOL   H10244022   0.440   4.383   6.573  2.0257 -1.0728  1.5191
  361MOL   H10344023   0.365   4.260   6.476 -0.2180 -0.2154  1.7252
  361MOL   C10444024   0.522   4.180   6.603 -0.8602 -0.7095  0.3347
  361MOL  Cl10544025   0.697   4.211   6.642 -0.3106 -0.0639  0.2857
  361MOL  Cl10644026   0.510   4.021   6.523  0.1100  0.0647 -0.3377
  361MOL   C10744027   0.440   4.179   6.731 -0.2804 -0.0588 -0.1759
  361MOL   H10844028   0.440   4.276   6.781  0.9968 -0.6053  0.9423
  361MOL   H10944029   0.338   4.189   6.695 -0.3028 -0.1209 -0.1287
  361MOL   C11044030   0.444   4.063   6.837  0.2097 -0.3358  0.3459
  361MOL  Cl11144031   0.383   4.124   6.996  0.4410  0.3078  0.1104
  361MOL  Cl11244032   0.607   4.006   6.869 -0.1631  0.1565  0.0746
  361MOL   C11344033   0.352   3.938   6.797  1.1487 -0.1513 -0.3977
  361MOL   H11444034   0.396   3.888   6.711  0.8955 -0.2191 -0.4886
  361MOL   H11544035   0.362   3.868   6.880  0.1214 -0.5935 -0.6394
  361MOL   C11644036   0.206   3.960   6.747  0.0682  0.2417 -0.2086
  361MOL  Cl11744037   0.185   4.026   6.581  0.1987  0.0708 -0.0439
  361MOL  Cl11844038   0.111   4.061   6.863 -0.3816 -0.0423 -0.5547
  361MOL   C11944039   0.145   3.825   6.744  0.5176  0.3290  0.5396
  361MOL   H12044040   0.043   3.833   6.707  0.3667 -0.0708  0.8633
  361MOL   H12144041   0.205   3.761   6.680  1.2546  3.5403 -2.0922
  361MOL   H12244042   0.132   3.775   6.841  0.4663 -0.1483  0.2899
  362MOL     C144043   2.950   1.818   8.270 -0.1804  0.1780  0.3528
  362MOL    Cl244044   3.017   1.924   8.390 -0.1256 -0.1860 -0.2512
  362MOL    Cl344045   3.065   1.789   8.139 -0.5497 -0.2342  0.4980
  362MOL     C444046   2.914   1.682   8.328  0.1451  0.7125  0.1949
  362MOL     H544047   2.920   1.613   8.245 -0.1272 -0.0723  0.8204
  362MOL     H644048   2.985   1.661   8.407  1.2012 -1.4253 -1.3052
  362MOL     H744049   2.867   1.876   8.229 -0.4316  0.4422  1.2277
  362MOL     C844050   2.772   1.671   8.380  0.6899 -0.0042  0.4809
  362MOL    Cl944051   2.763   1.507   8.430 -0.0733  0.3892  0.0020
  362MOL   Cl1044052   2.656   1.690   8.244  0.2106 -0.2012 -0.0407
  362MOL    C1144053   2.745   1.771   8.494  0.3597 -0.5356 -0.0222
  362MOL    H1244054   2.825   1.753   8.566  0.6445  2.8975  0.5798
  362MOL    H1344055   2.768   1.869   8.453 -1.5952 -0.0763 -0.1010
  362MOL    C1444056   2.615   1.755   8.581  0.9537 -0.5301  0.3544
  362MOL   Cl1544057   2.630   1.874   8.715 -0.2448 -0.0289  0.2408
  362MOL   Cl1644058   2.607   1.600   8.665  0.3376  0.0016 -0.0158
  362MOL    C1744059   2.485   1.775   8.498 -0.0390 -0.2570  0.2486
  362MOL    H1844060   2.518   1.844   8.420 -1.2824 -0.6324 -0.6098
  362MOL    H1944061   2.474   1.677   8.454  1.5499 -0.8685  1.1451
  362MOL    C2044062   2.351   1.825   8.553  0.1830 -0.3014 -0.1512
  362MOL   Cl2144063   2.300   1.719   8.687  0.3386 -0.4965  0.3455
  362MOL   Cl2244064   2.251   1.798   8.408 -0.3468  0.2507 -0.0935
  362MOL    C2344065   2.353   1.975   8.600  0.2471  0.8254 -0.2820
  362MOL    H2444066   2.384   1.974   8.704  0.8227  1.6744 -0.4413
  362MOL    H2544067   2.426   2.034   8.546  0.0572  0.4486 -0.9716
  362MOL    C2644068   2.225   2.056   8.603  0.4273  0.3665  0.6608
  362MOL   Cl2744069   2.186   2.106   8.434 -0.8582  0.1111  0.4329
  362MOL   Cl2844070   2.259   2.199   8.697 -0.4866  0.3898  0.1675
  362MOL    C2944071   2.106   1.975   8.660  0.4225 -0.2968  0.4747
  362MOL    H3044072   2.070   1.912   8.579 -0.5656  0.8096  0.0347
  362MOL    H3144073   2.129   1.906   8.741  1.2682 -0.0741  0.4259
  362MOL    C3244074   1.973   2.048   8.712  0.2133 -0.5642  0.4194
  362MOL   Cl3344075   1.855   1.912   8.726 -0.2019 -0.0867 -0.3303
  362MOL   Cl3444076   1.911   2.165   8.588  0.0430  0.3735  0.3475
  362MOL    C3544077   1.980   2.089   8.857  0.7754 -0.4379  0.3805
  362MOL    H3644078   1.967   2.001   8.921  0.8841 -0.7568 -0.0333
  362MOL    H3744079   2.085   2.115   8.874  0.9000 -0.0488 -0.9298
  362MOL    C3844080   1.888   2.196   8.929 -0.5033  0.9887  0.1896
  362MOL   Cl3944081   1.921   2.349   8.857 -0.1789  0.1607 -0.4728
  362MOL   Cl4044082   1.945   2.203   9.103  0.1584 -0.4090  0.0658
  362MOL    C4144083   1.741   2.147   8.917  0.1089  0.0316  0.4350
  362MOL    H4244084   1.707   2.146   8.813 -1.0630  2.5262  0.7535
  362MOL    H4344085   1.739   2.040   8.938 -1.4625 -0.0241  0.0648
  362MOL    C4444086   1.624   2.207   9.005 -0.5053 -0.4229  0.1298
  362MOL   Cl4544087   1.643   2.139   9.170  0.1153  0.1567 -0.4085
  362MOL   Cl4644088   1.468   2.141   8.951 -0.3631  0.1457 -0.1791
  362MOL    C4744089   1.619   2.361   8.991 -0.9987  0.5468 -0.6842
  362MOL    H4844090   1.721   2.394   9.014 -1.0294  2.0894 -2.6087
  362MOL    H4944091   1.595   2.388   8.888 -1.2919  0.4601 -0.6387
  362MOL    C5044092   1.539   2.449   9.096  0.0977  0.0063 -0.0557
  362MOL   Cl5144093   1.574   2.621   9.045  0.3182 -0.0253 -0.5808
  362MOL   Cl5244094   1.617   2.430   0.075  0.6324  0.0709 -0.4270
  362MOL    C5344095   1.386   2.416   9.095 -0.3447 -0.5101 -0.5252
  362MOL    H5444096   1.358   2.419   8.990 -1.4613 -1.3665 -0.2612
  362MOL    H5544097   1.376   2.317   9.138  0.4641 -1.1655 -1.8070
  362MOL    C5644098   1.276   2.508   9.160 -0.3874  0.8278 -0.3467
  362MOL   Cl5744099   1.244   2.643   9.052 -0.4340  0.3298 -0.1245
  362MOL   Cl5844100   1.343   2.570   0.132 -0.2234 -0.1430  0.2416
  362MOL    C5944101   1.159   2.429   0.030 -0.0030  0.4600  0.1759
  362MOL    H6044102   1.201   2.348   0.090  0.7007 -0.8300 -1.9899
  362MOL    H6144103   1.107   2.493   0.101 -1.7338 -0.1885 -0.4655
  362MOL    C6244104   1.046   2.370   9.114 -0.8281  0.4928 -0.2106
  362MOL   Cl6344105   0.922   2.290   0.035 -0.1394  0.0677  0.4065
  362MOL   Cl6444106   1.111   2.245   9.009 -0.1761 -0.0178  0.2336
  362MOL    C6544107   0.983   2.482   9.022 -0.6763  0.2289  0.0464
  362MOL    H6644108   0.983   2.581   9.068 -1.2088 -1.3133  3.5730
  362MOL    H6744109   1.063   2.487   8.948 -0.1315 -3.4739  0.2812
  362MOL    C6844110   0.844   2.480   8.955  0.1258  0.2317 -0.5932
  362MOL   Cl6944111   0.849   2.596   8.821  0.1192 -0.0359 -0.2036
  362MOL   Cl7044112   0.723   2.523   9.078 -0.2165  0.2956 -0.2767
  362MOL    C7144113   0.794   2.340   8.904 -0.6568  0.1087 -0.5749
  362MOL    H7244114   0.878   2.300   8.847 -0.7378  1.2219 -1.4989
  362MOL    H7344115   0.783   2.269   8.986 -0.0804 -0.4221 -0.9573
  362MOL    C7444116   0.671   2.327   8.802  0.2024 -0.6592 -0.1821
  362MOL   Cl7544117   0.713   2.381   8.639 -0.1322 -0.0002  0.2692
  362MOL   Cl7644118   0.537   2.428   8.858  0.1390  0.0394  0.2281
  362MOL    C7744119   0.629   2.180   8.786 -0.1173  0.0488 -0.6913
  362MOL    H7844120   0.717   2.116   8.778 -1.0443 -1.2803 -0.6328
  362MOL    H7944121   0.592   2.156   8.885  1.3947  1.9291  0.3472
  362MOL    C8044122   0.519   2.124   8.683  0.3980  0.6384 -0.5112
  362MOL   Cl8144123   0.475   1.962   8.746 -0.5452  0.1353  0.2954
  362MOL   Cl8244124   0.604   2.105   8.527  0.0249  0.2391  0.7158
  362MOL    C8344125   0.397   2.207   8.657  0.8532  0.2791 -0.1621
  362MOL    H8444126   0.423   2.312   8.673  3.5670 -0.3798 -0.0319
  362MOL    H8544127   0.364   2.198   8.553  1.2726  0.0691 -0.2789
  362MOL    C8644128   0.260   2.180   8.728 -0.2795 -0.4190  0.7015
  362MOL   Cl8744129   0.186   2.345   8.721 -0.0930  0.1773  0.0906
  362MOL   Cl8844130   0.275   2.150   8.899 -0.2932  0.0762 -0.2967
  362MOL    C8944131   0.171   2.073   8.654  0.3205 -0.2564  0.9409
  362MOL    H9044132   0.146   2.106   8.553  3.2038  1.3522  0.6957
  362MOL    H9144133   0.236   1.986   8.642  0.0571 -0.3613  0.2506
  362MOL    C9244134   0.047   2.017   8.722  0.4638 -0.3613  0.0613
  362MOL   Cl9344135   0.102   1.877   8.823  0.1675 -0.1573  0.1354
  362MOL   Cl9444136   9.137   1.935   8.590 -0.2035 -0.2831  0.3439
  362MOL    C9544137   9.143   2.119   8.803  0.0109 -0.0891  1.0984
  362MOL    H9644138   0.017   2.159   8.888  0.7570  2.9704 -0.7392
  362MOL    H9744139   9.147   2.203   8.734  0.3507 -0.8062  0.2227
  362MOL    C9844140   8.998   2.081   8.847 -0.7768  0.6043 -0.2764
  362MOL   Cl9944141   9.002   1.930   8.953 -0.4168 -0.0900  0.2719
  362MOL  Cl10044142   8.887   2.037   8.715  0.4763 -0.0450  0.1728
  362MOL   C10144143   8.929   2.199   8.928 -0.6660  0.5561 -0.6168
  362MOL   H10244144   8.825   2.171   8.913 -0.1269 -2.2933  0.7939
  362MOL   H10344145   8.966   2.193   9.030 -0.2645 -1.0494 -0.8550
  362MOL   C10444146   8.945   2.349   8.877  0.6853  0.2473  0.0386
  362MOL  Cl10544147   8.933   2.355   8.696 -0.1564 -0.2857 -0.1179
  362MOL  Cl10644148   9.100   2.414   8.929  0.0050 -0.3833 -0.4839
  362MOL   C10744149   8.832   2.444   8.929  0.7196  0.0170 -0.0748
  362MOL   H10844150   8.851   2.541   8.882  0.7180 -0.0696 -0.2548
  362MOL   H10944151   8.736   2.417   8.884  2.1056 -0.9932 -2.5633
  362MOL   C11044152   8.784   2.462   9.077 -0.0552 -0.1629 -0.2353
  362MOL  Cl11144153   8.925   2.478   0.004  0.0592  0.0940  0.0033
  362MOL  Cl11244154   8.713   2.306   9.126  0.2358  0.1462  0.1271
  362MOL   C11344155   8.689   2.586   9.102 -0.2965  0.4218  0.2038
  362MOL   H11444156   8.653   2.575   0.024  0.4615  2.3659  0.7133
  362MOL   H11544157   8.750   2.677   9.099  1.4122 -0.7750 -2.9985
  362MOL   C11644158   8.559   2.601   9.014 -0.0681 -0.8033 -0.3041
  362MOL  Cl11744159   8.463   2.448   9.004 -0.2946 -0.4236 -0.4733
  362MOL  Cl11844160   8.591   2.655   8.848 -0.2406  0.5110  0.3726
  362MOL   C11944161   8.465   2.702   9.075  0.4557 -0.5773  0.1593
  362MOL   H12044162   8.512   2.795   9.043  1.7427 -1.0286  0.7090
  362MOL   H12144163   8.365   2.709   9.033  0.5912  2.0118  0.2000
  362MOL   H12244164   8.448   2.688   0.002  0.6331  2.0005  0.5597
  363MOL     C144165   8.114   3.158   5.500 -0.2425  0.0543 -0.1590
  363MOL    Cl244166   8.217   3.307   5.496  0.4054 -0.1659  0.1230
  363MOL    Cl344167   8.214   3.042   5.589  0.3350 -0.0733  0.0886
  363MOL     C444168   7.975   3.184   5.563 -0.3370 -0.2078 -0.3641
  363MOL     H544169   7.940   3.080   5.566 -0.8029 -0.0428 -0.0728
  363MOL     H644170   7.995   3.232   5.659 -1.3901  0.2403 -0.3684
  363MOL     H744171   8.114   3.119   5.398  0.2837 -3.6044  1.2002
  363MOL     C844172   7.869   3.262   5.490  0.5535  0.3581 -0.1168
  363MOL    Cl944173   7.828   3.169   5.339  0.0149  0.1088 -0.5123
  363MOL   Cl1044174   7.925   3.417   5.428  0.0049  0.1153 -0.1984
  363MOL    C1144175   7.747   3.293   5.578  0.4476  0.0499  0.6003
  363MOL    H1244176   7.788   3.346   5.664  1.3489 -0.6481  0.6117
  363MOL    H1344177   7.680   3.366   5.533 -0.0263 -1.4246 -1.1184
  363MOL    C1444178   7.671   3.188   5.660 -0.4059  1.1090  0.3058
  363MOL   Cl1544179   7.772   3.118   5.787 -0.4607 -0.6611 -0.0506
  363MOL   Cl1644180   7.616   3.059   5.551  0.3118 -0.3987 -0.0406
  363MOL    C1744181   7.546   3.249   5.733  0.0040 -0.8018  0.0522
  363MOL    H1844182   7.459   3.256   5.666  0.3275  2.7692 -0.0944
  363MOL    H1944183   7.510   3.177   5.807 -0.7102  0.1028  0.6053
  363MOL    C2044184   7.557   3.382   5.815  0.3068 -0.0361  0.2807
  363MOL   Cl2144185   7.579   3.523   5.707  0.1482  0.4488  0.3622
  363MOL   Cl2244186   7.712   3.393   5.912  0.2135  0.0455  0.2705
  363MOL    C2344187   7.448   3.396   5.920  0.1847 -0.0692 -0.1287
  363MOL    H2444188   7.474   3.331   6.004 -1.2888 -2.5030 -1.4876
  363MOL    H2544189   7.465   3.495   5.961 -1.8407  1.0786 -1.9579
  363MOL    C2644190   7.295   3.380   5.884  0.0167  0.1150  0.0505
  363MOL   Cl2744191   7.252   3.206   5.858  0.2715 -0.1262 -0.1578
  363MOL   Cl2844192   7.260   3.469   5.727  0.2103  0.1661 -0.1540
  363MOL    C2944193   7.199   3.437   5.990 -0.2718  0.1597  0.6506
  363MOL    H3044194   7.212   3.544   5.973 -0.1052  0.0158 -0.1664
  363MOL    H3144195   7.107   3.388   5.957  0.4403  0.6199 -2.1786
  363MOL    C3244196   7.217   3.421   6.138 -0.7900 -0.9484 -0.5614
  363MOL   Cl3344197   7.358   3.500   6.194  0.3557 -0.3269  0.1077
  363MOL   Cl3444198   7.236   3.243   6.159 -0.0117 -0.5790  0.0638
  363MOL    C3544199   7.099   3.472   6.229  0.4850  0.1124 -0.1840
  363MOL    H3644200   7.027   3.393   6.249  0.7650  0.3027  1.6384
  363MOL    H3744201   7.142   3.499   6.325  1.6800 -0.7876 -0.4549
  363MOL    C3844202   7.016   3.599   6.188  0.2273 -0.4407  0.3023
  363MOL   Cl3944203   6.892   3.606   6.318 -0.0709 -0.3035 -0.5064
  363MOL   Cl4044204   6.918   3.568   6.043 -0.4495 -0.4792 -0.0996
  363MOL    C4144205   7.091   3.738   6.186 -0.2238 -0.2106 -0.2276
  363MOL    H4244206   7.105   3.766   6.290 -0.1976 -1.3325  0.0796
  363MOL    H4344207   7.186   3.713   6.139  0.0163 -1.9654  1.1202
  363MOL    C4444208   7.035   3.868   6.124 -0.5613  0.3619  0.1851
  363MOL   Cl4544209   6.857   3.889   6.143 -0.4279  0.1103 -0.0188
  363MOL   Cl4644210   7.074   3.840   5.956  0.6622  0.2088  0.5883
  363MOL    C4744211   7.097   4.000   6.187  0.3577 -0.3403 -0.4564
  363MOL    H4844212   7.040   4.017   6.278  1.8625 -0.3224  0.5073
  363MOL    H4944213   7.193   3.974   6.232  0.0726 -2.7577 -1.1762
  363MOL    C5044214   7.110   4.134   6.108  0.0841 -0.5782 -0.1101
  363MOL   Cl5144215   6.981   4.154   5.984 -0.0656  0.0647 -0.1353
  363MOL   Cl5244216   7.260   4.110   6.017  0.0391 -0.1517 -0.1237
  363MOL    C5344217   7.127   4.266   6.192  0.5643 -0.0495 -0.6147
  363MOL    H5444218   7.209   4.247   6.261  0.2005 -0.7237 -0.3557
  363MOL    H5544219   7.155   4.332   6.111 -0.0508  0.7451 -0.1910
  363MOL    C5644220   7.008   4.335   6.266  0.0487  0.1846  0.6320
  363MOL   Cl5744221   7.091   4.476   6.354  0.3801 -0.0378  0.0755
  363MOL   Cl5844222   6.948   4.226   6.397 -0.2993  0.3991  0.2349
  363MOL    C5944223   6.896   4.389   6.169  0.6034  0.9164  0.1743
  363MOL    H6044224   6.942   4.425   6.077  0.1510  0.8974 -0.0618
  363MOL    H6144225   6.845   4.297   6.141  1.2950  0.8191 -0.7706
  363MOL    C6244226   6.790   4.493   6.212  0.2819 -0.0422  0.2984
  363MOL   Cl6344227   6.707   4.440   6.360  0.2087  0.2823 -0.3057
  363MOL   Cl6444228   6.664   4.484   6.088  0.1536 -0.1114  0.2664
  363MOL    C6544229   6.841   4.637   6.214  0.1371 -0.4694  0.0256
  363MOL    H6644230   6.897   4.639   6.307 -2.3907 -3.0857  1.7202
  363MOL    H6744231   6.914   4.650   6.135 -1.2493 -0.6416 -1.3121
  363MOL    C6844232   6.746   4.760   6.207  0.4909  0.1850  0.1104
  363MOL   Cl6944233   6.815   4.884   6.317  0.0293 -0.4923  0.0064
  363MOL   Cl7044234   6.585   4.727   6.281 -0.2153  0.0759  0.4290
  363MOL    C7144235   6.727   4.810   6.058  0.2219  0.2766  1.1149
  363MOL    H7244236   6.809   4.776   5.995 -1.7557 -0.0424 -1.4206
  363MOL    H7344237   6.646   4.758   6.006  2.7892 -1.2956 -1.4449
  363MOL    C7444238   6.701   4.961   6.027  0.1297 -0.1174 -0.0967
  363MOL   Cl7544239   6.543   5.001   6.101  0.0152 -0.5894 -0.0411
  363MOL   Cl7644240   6.659   4.967   5.853 -0.4880  0.2261  0.2727
  363MOL    C7744241   6.817   5.064   6.058 -0.3214  0.3213  0.2454
  363MOL    H7844242   6.785   5.162   6.023 -1.2335  0.1071  0.4532
  363MOL    H7944243   6.808   5.075   6.166  0.0070 -0.4203  0.3495
  363MOL    C8044244   6.965   5.051   5.997 -0.2068 -0.0224  0.4456
  363MOL   Cl8144245   6.969   5.026   5.822  0.0271  0.0439 -0.2925
  363MOL   Cl8244246   7.041   4.905   6.060 -0.3598 -0.1295  0.1936
  363MOL    C8344247   7.061   5.173   6.028  0.4342  1.1754 -0.2086
  363MOL    H8444248   7.154   5.167   5.972  0.1553 -0.4285 -0.5313
  363MOL    H8544249   7.006   5.254   5.979 -2.7753  0.6155  2.2933
  363MOL    C8644250   7.095   5.225   6.176 -0.1560 -0.0847 -0.2224
  363MOL   Cl8744251   6.944   5.285   6.251  0.4978  0.1308 -0.1972
  363MOL   Cl8844252   7.200   5.360   6.153  0.1928  0.1399  0.2877
  363MOL    C8944253   7.161   5.111   6.269 -0.0729 -0.0697  0.9583
  363MOL    H9044254   7.077   5.045   6.294  0.9034 -1.2122  1.2434
  363MOL    H9144255   7.239   5.063   6.210  0.1659 -0.1287  1.3274
  363MOL    C9244256   7.226   5.147   6.404 -0.1214  0.7517 -0.2929
  363MOL   Cl9344257   7.141   5.278   6.488 -0.2106  0.5302 -0.1279
  363MOL   Cl9444258   7.388   5.215   6.366 -0.2033 -0.1893 -0.2801
  363MOL    C9544259   7.244   5.030   6.496 -0.6216  0.4994 -0.4950
  363MOL    H9644260   7.303   5.068   6.579 -1.4363  1.7893 -0.5050
  363MOL    H9744261   7.150   5.006   6.545  0.5742 -0.0991  1.5296
  363MOL    C9844262   7.306   4.889   6.450  0.6136  0.3861 -0.0177
  363MOL   Cl9944263   7.462   4.913   6.370 -0.1891 -0.1948 -0.2140
  363MOL  Cl10044264   7.199   4.814   6.326  0.4505  0.2628 -0.0660
  363MOL   C10144265   7.317   4.784   6.566 -0.4402  0.5687 -0.2625
  363MOL   H10244266   7.221   4.743   6.598  0.1742  0.0512  0.9200
  363MOL   H10344267   7.379   4.710   6.516 -0.6676  0.8628 -0.9871
  363MOL   C10444268   7.387   4.821   6.697  0.2297 -1.2574  0.6465
  363MOL  Cl10544269   7.268   4.905   6.803 -0.0556  0.2856 -0.1188
  363MOL  Cl10644270   7.531   4.932   6.684  0.4820 -0.0821 -0.2397
  363MOL   C10744271   7.438   4.693   6.773  0.1734  0.3717  0.0489
  363MOL   H10844272   7.533   4.660   6.731 -0.8171 -0.6311 -1.4505
  363MOL   H10944273   7.465   4.728   6.872 -0.9380  1.1882  0.0716
  363MOL   C11044274   7.353   4.566   6.785 -0.2295 -0.4635 -0.1833
  363MOL  Cl11144275   7.328   4.495   6.627  0.6906 -0.1800 -0.0211
  363MOL  Cl11244276   7.191   4.607   6.862 -0.1877  0.2464 -0.2184
  363MOL   C11344277   7.428   4.465   6.868 -0.6982 -0.1458 -0.7672
  363MOL   H11444278   7.513   4.439   6.805 -0.1717 -1.6251  0.5200
  363MOL   H11544279   7.487   4.498   6.954 -0.7518 -0.9228 -0.4269
  363MOL   C11644280   7.368   4.326   6.919 -0.9541  0.0834  0.3721
  363MOL  Cl11744281   7.247   4.343   7.049  0.8591 -0.3669  0.3527
  363MOL  Cl11844282   7.504   4.237   6.984  0.1181  0.3945 -0.0275
  363MOL   C11944283   7.310   4.234   6.814  0.4900  0.9251  0.4490
  363MOL   H12044284   7.256   4.149   6.854 -1.8898  0.7812 -2.8724
  363MOL   H12144285   7.233   4.294   6.766  0.0841 -1.4047 -1.9069
  363MOL   H12244286   7.377   4.196   6.737 -0.6291 -1.0580  0.4436
  364MOL     C144287   1.526   2.445   0.766 -0.2821 -0.2789  0.2735
  364MOL    Cl244288   1.691   2.427   0.695 -0.0800 -0.0151  0.1162
  364MOL    Cl344289   1.537   2.537   0.918 -0.3633 -0.0850 -0.3288
  364MOL     C444290   1.442   2.520   0.667  0.6382 -0.4150 -0.3292
  364MOL     H544291   1.344   2.537   0.712  0.8673 -0.7881  0.3145
  364MOL     H644292   1.490   2.616   0.650 -1.2591  1.1238  2.5869
  364MOL     H744293   1.466   2.355   0.777 -1.0564  0.0855 -0.8806
  364MOL     C844294   1.400   2.442   0.534 -0.1732  0.9607  0.5889
  364MOL    Cl944295   1.345   2.275   0.562  0.0963  0.2274 -0.0843
  364MOL   Cl1044296   1.542   2.431   0.422  0.3590  0.2089  0.5059
  364MOL    C1144297   1.287   2.505   0.455 -0.3654 -0.0820  0.3873
  364MOL    H1244298   1.319   2.603   0.421 -0.8972  0.3126  1.0377
  364MOL    H1344299   1.268   2.436   0.372 -0.1149 -0.8770  0.9858
  364MOL    C1444300   1.151   2.559   0.518  0.8296  1.4062 -0.2032
  364MOL   Cl1544301   1.054   2.617   0.388 -0.1191  0.0334  0.1717
  364MOL   Cl1644302   1.184   2.709   0.620 -0.0233 -0.0270 -0.1674
  364MOL    C1744303   1.083   2.444   0.607 -0.4499 -0.2612  0.8821
  364MOL    H1844304   1.097   2.358   0.542  1.9314  0.4875  0.3279
  364MOL    H1944305   1.156   2.431   0.687  0.5769 -1.2856 -0.2052
  364MOL    C2044306   0.935   2.455   0.658 -0.5640  0.2910  0.3459
  364MOL   Cl2144307   0.840   2.379   0.528 -0.0982 -0.4024 -0.4635
  364MOL   Cl2244308   0.894   2.627   0.693  0.2279  0.3515 -0.0832
  364MOL    C2344309   0.904   2.379   0.786  0.4850  0.2769 -0.5608
  364MOL    H2444310   0.800   2.390   0.818  0.9814 -0.0550  1.1873
  364MOL    H2544311   0.918   2.277   0.748  0.9416 -0.1170  0.6637
  364MOL    C2644312   0.996   2.373   0.912  0.6773  0.0547 -0.4192
  364MOL   Cl2744313   1.079   2.529   0.939 -0.3569  0.0229  0.0245
  364MOL   Cl2844314   1.133   2.255   0.891  0.1202 -0.1050 -0.3239
  364MOL    C2944315   0.920   2.339   1.050  0.0851 -0.0648  0.2892
  364MOL    H3044316   0.993   2.354   1.130  0.5554  1.0206 -0.3324
  364MOL    H3144317   0.847   2.418   1.067  0.1700  0.6009 -2.2929
  364MOL    C3244318   0.851   2.201   1.072  0.6912  0.3718  0.0561
  364MOL   Cl3344319   0.966   2.065   1.074  0.0124 -0.0847 -0.0431
  364MOL   Cl3444320   0.733   2.178   0.941 -0.0271 -0.3220 -0.1080
  364MOL    C3544321   0.782   2.195   1.212 -0.5661  0.3228 -0.1242
  364MOL    H3644322   0.854   2.181   1.293 -1.9338 -0.5002  0.9725
  364MOL    H3744323   0.752   2.298   1.232 -0.6774  0.5507 -1.3970
  364MOL    C3844324   0.655   2.104   1.251  0.2476 -0.3080 -0.2552
  364MOL   Cl3944325   0.512   2.154   1.160  0.4876 -0.1165  0.6723
  364MOL   Cl4044326   0.617   2.150   1.422  0.1086  0.3148  0.1408
  364MOL    C4144327   0.694   1.957   1.239 -0.0813  0.2158 -0.2158
  364MOL    H4244328   0.719   1.939   1.135 -2.8599  0.2175 -0.9251
  364MOL    H4344329   0.791   1.953   1.289 -0.1432  0.8425 -0.0438
  364MOL    C4444330   0.603   1.846   1.294 -0.9462  0.5338 -0.8615
  364MOL   Cl4544331   0.643   1.836   1.469 -0.1672  0.1958  0.1269
  364MOL   Cl4644332   0.677   1.702   1.225  0.2875 -0.1732 -0.3156
  364MOL    C4744333   0.452   1.855   1.270 -0.1966 -1.0673 -0.3819
  364MOL    H4844334   0.409   1.932   1.333 -1.2261 -0.9454 -1.2159
  364MOL    H4944335   0.430   1.880   1.166 -1.2104  2.0828  0.5487
  364MOL    C5044336   0.366   1.731   1.299  0.9296 -0.1151 -0.4369
  364MOL   Cl5144337   0.395   1.595   1.176  0.3772  0.1329  0.2485
  364MOL   Cl5244338   0.195   1.796   1.255 -0.1366  0.3421  0.7540
  364MOL    C5344339   0.372   1.671   1.444  0.6078 -0.0843 -0.2567
  364MOL    H5444340   0.479   1.650   1.452  1.0049  2.0053  0.3804
  364MOL    H5544341   0.354   1.749   1.518  1.0506 -1.9650  1.9156
  364MOL    C5644342   0.297   1.533   1.478  0.2598  0.3574  0.0890
  364MOL   Cl5744343   0.282   1.514   1.654 -0.0783  0.1961  0.5190
  364MOL   Cl5844344   0.403   1.402   1.422  0.1974 -0.4138  0.0712
  364MOL    C5944345   0.158   1.509   1.414  0.3650 -0.3963  0.2495
  364MOL    H6044346   0.168   1.517   1.305  2.1593 -0.2479  0.4175
  364MOL    H6144347   0.136   1.403   1.412  1.7953 -0.7045  0.5215
  364MOL    C6244348   0.026   1.577   1.478 -0.0240  0.9822  0.0038
  364MOL   Cl6344349   0.071   1.737   1.545 -0.0287 -0.0427  0.4626
  364MOL   Cl6444350   9.143   1.458   1.607  0.2251 -0.0251  0.3794
  364MOL    C6544351   9.115   1.595   1.357 -0.5877  0.3122  0.2354
  364MOL    H6644352   9.142   1.682   1.297 -1.2706 -0.2876 -0.9632
  364MOL    H6744353   9.125   1.505   1.297 -0.7077 -0.8432  1.9099
  364MOL    C6844354   8.958   1.607   1.367 -0.2883  0.1247  0.5713
  364MOL   Cl6944355   8.888   1.454   1.411 -0.1986  0.0645  0.5258
  364MOL   Cl7044356   8.910   1.662   1.197  0.0786 -0.1789 -0.1076
  364MOL    C7144357   8.909   1.715   1.473 -1.1881  0.4228  0.1505
  364MOL    H7244358   8.924   1.673   1.572  2.2219  1.2409  0.0405
  364MOL    H7344359   8.986   1.791   1.469  1.2786 -1.9225  1.4762
  364MOL    C7444360   8.766   1.771   1.483  0.1418 -0.1881 -0.0719
  364MOL   Cl7544361   8.757   1.900   1.360  0.4228  0.2711 -0.4885
  364MOL   Cl7644362   8.750   1.849   1.641 -0.2259 -0.0580 -0.2827
  364MOL    C7744363   8.657   1.665   1.458  0.4904 -0.4994  0.1477
  364MOL    H7844364   8.678   1.609   1.366 -1.2249 -2.6617  1.0385
  364MOL    H7944365   8.658   1.595   1.541 -2.3997 -0.8845 -0.0831
  364MOL    C8044366   8.510   1.710   1.433  0.2034 -0.0783 -0.2866
  364MOL   Cl8144367   8.411   1.569   1.463  0.2652  0.2994 -0.2378
  364MOL   Cl8244368   8.497   1.749   1.261 -0.0469 -0.1298  0.2567
  364MOL    C8344369   8.464   1.822   1.526 -0.2081 -0.1780  0.1266
  364MOL    H8444370   8.504   1.794   1.624  3.0820 -2.6291 -1.8174
  364MOL    H8544371   8.515   1.910   1.486 -0.1626  0.2451  1.0840
  364MOL    C8644372   8.318   1.859   1.548 -0.0168 -0.1036  0.3820
  364MOL   Cl8744373   8.238   1.888   1.390  0.7005  0.1691  0.1786
  364MOL   Cl8844374   8.328   2.022   1.614 -0.0482 -0.0095  0.2922
  364MOL    C8944375   8.244   1.778   1.652  0.5282  0.3436 -0.2107
  364MOL    H9044376   8.237   1.679   1.606 -1.7301  0.7484 -0.7962
  364MOL    H9144377   8.315   1.769   1.734 -0.2260  1.6408  0.5851
  364MOL    C9244378   8.103   1.803   1.702 -0.0906 -0.0064 -0.1894
  364MOL   Cl9344379   7.986   1.830   1.565 -0.0450  0.1027 -0.0943
  364MOL   Cl9444380   8.085   1.957   1.801 -0.0686 -0.3052  0.0349
  364MOL    C9544381   8.042   1.681   1.787  0.3327 -0.8507  0.4690
  364MOL    H9644382   8.082   1.676   1.889  0.8462  0.8795  0.3654
  364MOL    H9744383   7.939   1.713   1.807 -0.0803 -0.9828 -1.3611
  364MOL    C9844384   8.031   1.532   1.737  0.0336  0.0294 -0.6373
  364MOL   Cl9944385   7.908   1.458   1.846  0.0522 -0.6427  0.1603
  364MOL  Cl10044386   8.194   1.467   1.770  0.1078 -0.0123  0.0390
  364MOL   C10144387   8.004   1.504   1.587  0.1178 -0.0389 -0.0698
  364MOL   H10244388   8.074   1.565   1.530 -2.6005  2.7748 -0.5040
  364MOL   H10344389   8.046   1.406   1.564  0.0840 -0.2837  0.8909
  364MOL   C10444390   7.866   1.500   1.521  0.1877 -0.2609  0.4028
  364MOL  Cl10544391   7.743   1.606   1.590  0.0782  0.3870  0.3064
  364MOL  Cl10644392   7.810   1.330   1.539  0.2620 -0.3196  0.3426
  364MOL   C10744393   7.877   1.548   1.367  0.0126  0.4093  0.4575
  364MOL   H10844394   7.775   1.535   1.332 -0.2769  2.7874  0.3278
  364MOL   H10944395   7.880   1.657   1.369  2.0562  0.3977 -0.7548
  364MOL   C11044396   7.973   1.485   1.264 -0.4740  0.2175 -0.3360
  364MOL  Cl11144397   7.984   1.311   1.304  0.5649  0.1864 -0.1618
  364MOL  Cl11244398   8.142   1.541   1.282  0.0392  0.1663 -0.3039
  364MOL   C11344399   7.926   1.498   1.122  0.3660 -0.8312 -0.4855
  364MOL   H11444400   8.006   1.465   1.056  0.8672  4.1193 -2.6248
  364MOL   H11544401   7.859   1.413   1.111 -3.0906  1.7522 -0.4636
  364MOL   C11644402   7.877   1.632   1.061  0.4443  0.0394 -0.5835
  364MOL  Cl11744403   7.705   1.646   1.086 -0.3243 -0.2586 -0.0555
  364MOL  Cl11844404   7.900   1.619   0.886 -0.0515  0.1289  0.0614
  364MOL   C11944405   7.944   1.763   1.117 -0.4277  0.6399  0.0975
  364MOL   H12044406   8.045   1.773   1.079 -0.4744 -2.2145 -0.9275
  364MOL   H12144407   7.891   1.847   1.072 -2.7961  0.0342  1.6717
  364MOL   H12244408   7.940   1.782   1.224 -2.8672  0.2646  0.0986
  365MOL     C144409   1.909   1.050   0.911  0.0448 -0.0082 -0.6272
  365MOL    Cl244410   1.812   1.061   0.763 -0.0966  0.1242 -0.0172
  365MOL    Cl344411   1.849   0.923   1.017  0.0391 -0.0976  0.2253
  365MOL     C444412   2.056   1.013   0.864 -0.6929  0.2865 -0.3670
  365MOL     H544413   2.060   0.906   0.844 -1.0762  0.4602 -1.4225
  365MOL     H644414   2.077   1.062   0.769 -0.3647  2.0646  0.5873
  365MOL     H744415   1.904   1.146   0.962  1.0069 -0.2819 -0.0140
  365MOL     C844416   2.178   1.052   0.955 -0.1576  0.0161 -0.7163
  365MOL    Cl944417   2.157   0.979   1.118 -0.1899 -0.1525  0.0268
  365MOL   Cl1044418   2.191   1.231   0.970  0.1831  0.1238  0.1951
  365MOL    C1144419   2.313   1.003   0.906 -0.3462 -0.3093 -0.1111
  365MOL    H1244420   2.397   1.052   0.956 -0.2861  0.5684 -1.0456
  365MOL    H1344421   2.310   0.902   0.945 -1.5686  0.0911  0.8719
  365MOL    C1444422   2.364   1.010   0.753 -0.5307 -0.1330 -0.5876
  365MOL   Cl1544423   2.329   1.176   0.699 -0.6523 -0.0531  0.1066
  365MOL   Cl1644424   2.274   0.901   0.654  0.2658  0.0822  0.1818
  365MOL    C1744425   2.520   0.982   0.744  0.0017 -0.2401 -0.2173
  365MOL    H1844426   2.570   1.032   0.826  0.0860 -0.8930  0.1323
  365MOL    H1944427   2.521   0.875   0.768 -0.6470 -0.5977 -1.7044
  365MOL    C2044428   2.600   1.009   0.617 -0.1625  0.8035  0.3225
  365MOL   Cl2144429   2.756   0.911   0.623  0.4277 -0.4662  0.4709
  365MOL   Cl2244430   2.654   1.184   0.636  0.2153  0.0253  0.0356
  365MOL    C2344431   2.539   0.995   0.473 -0.3893 -0.0699 -0.2676
  365MOL    H2444432   2.445   1.050   0.487 -0.2612  0.1347 -0.2130
  365MOL    H2544433   2.583   1.066   0.404  1.2629 -1.0498 -0.2444
  365MOL    C2644434   2.526   0.859   0.390  0.0665 -0.0348 -0.1766
  365MOL   Cl2744435   2.499   0.717   0.497 -0.4905  0.2409 -0.0105
  365MOL   Cl2844436   2.682   0.837   0.312 -0.0012 -0.1755  0.2605
  365MOL    C2944437   2.403   0.848   0.293 -0.9375 -0.1870 -0.0710
  365MOL    H3044438   2.394   0.747   0.252 -2.1496 -0.1249  0.0252
  365MOL    H3144439   2.315   0.865   0.355 -1.6466 -0.3803 -1.0095
  365MOL    C3244440   2.389   0.939   0.159 -0.6993  0.3119  0.6123
  365MOL   Cl3344441   2.382   1.115   0.210 -0.0881  0.1436  0.0678
  365MOL   Cl3444442   2.225   0.901   0.101  0.0279  0.1194  0.1675
  365MOL    C3544443   2.509   0.909   0.067 -0.4522  0.0974 -0.4133
  365MOL    H3644444   2.588   0.972   0.107 -0.3025 -0.5255  0.2802
  365MOL    H3744445   2.551   0.809   0.080  1.0299  0.7436 -0.1719
  365MOL    C3844446   2.501   0.937   9.092 -0.2547 -0.6182  0.6086
  365MOL   Cl3944447   2.384   1.065   9.062 -0.0122  0.1984 -0.3471
  365MOL   Cl4044448   2.433   0.790   9.012  0.4843  0.0375 -0.1407
  365MOL    C4144449   2.630   0.978   9.017  0.1691  0.1175  1.4567
  365MOL    H4244450   2.684   0.891   8.982 -0.5164  0.8918 -1.6444
  365MOL    H4344451   2.594   1.015   8.921  0.2225  1.9154  2.1058
  365MOL    C4444452   2.723   1.084   9.079  0.2064  0.3590 -0.1776
  365MOL   Cl4544453   2.852   1.001   9.175 -0.3796 -0.0257 -0.1539
  365MOL   Cl4644454   2.636   1.204   0.010  0.2223  0.1765 -0.1593
  365MOL    C4744455   2.803   1.162   8.966  0.3984  1.0345 -0.2141
  365MOL    H4844456   2.848   1.244   9.023  0.8551 -0.0601  1.0098
  365MOL    H4944457   2.891   1.102   8.943  1.0811  1.5661  0.9617
  365MOL    C5044458   2.739   1.228   8.842  0.6150  1.1035 -0.5031
  365MOL   Cl5144459   2.566   1.273   8.882 -0.0590 -0.1157 -0.1417
  365MOL   Cl5244460   2.739   1.108   8.715  0.4945 -0.0607 -0.1233
  365MOL    C5344461   2.812   1.352   8.794 -0.3228 -0.9535 -0.0844
  365MOL    H5444462   2.751   1.379   8.708 -1.4272 -2.6560  0.1508
  365MOL    H5544463   2.811   1.423   8.876  3.1410  1.1501 -1.7308
  365MOL    C5644464   2.963   1.358   8.746 -0.2276 -0.5545 -0.1074
  365MOL   Cl5744465   3.057   1.359   8.899  0.1061  0.2533 -0.0907
  365MOL   Cl5844466   2.995   1.529   8.698  0.0452 -0.3444  0.0364
  365MOL    C5944467   3.020   1.248   8.650 -0.3786  0.5549 -0.2548
  365MOL    H6044468   3.046   1.168   8.720 -1.5580  0.0808 -0.3495
  365MOL    H6144469   2.939   1.218   8.583  0.9727 -1.7427 -0.9580
  365MOL    C6244470   3.153   1.281   8.573  0.4374 -0.0459 -0.3497
  365MOL   Cl6344471   3.279   1.372   8.665 -0.2358 -0.0876 -0.3484
  365MOL   Cl6444472   3.114   1.399   8.443 -0.1821  0.3065 -0.1528
  365MOL    C6544473   3.219   1.154   8.519 -0.6993 -0.2535  0.2238
  365MOL    H6644474   3.288   1.207   8.454 -0.2780  0.9127  1.5970
  365MOL    H6744475   3.265   1.128   8.614  0.5256  2.7117  0.4917
  365MOL    C6844476   3.147   1.038   8.447  0.2866 -0.0675  0.1505
  365MOL   Cl6944477   3.026   1.098   8.328  0.1804  0.5909  0.2849
  365MOL   Cl7044478   3.053   0.944   8.562 -0.1887 -0.3674  0.2732
  365MOL    C7144479   3.232   0.931   8.368 -0.3092  0.3997 -0.3068
  365MOL    H7244480   3.158   0.857   8.337  0.4519 -0.0807 -1.0067
  365MOL    H7344481   3.264   0.971   8.271 -0.9384  0.4232 -0.5075
  365MOL    C7444482   3.363   0.861   8.424 -0.1632 -0.1146 -0.1966
  365MOL   Cl7544483   3.348   0.799   8.591 -0.0368 -0.2674 -0.2583
  365MOL   Cl7644484   3.490   0.994   8.432 -0.1475 -0.1327  0.0052
  365MOL    C7744485   3.415   0.750   8.320 -0.3028 -0.3371 -0.2612
  365MOL    H7844486   3.330   0.696   8.279  0.7923 -1.2938 -1.3238
  365MOL    H7944487   3.449   0.813   8.238 -0.7955  1.6416  1.0074
  365MOL    C8044488   3.524   0.647   8.355  0.0052  0.7343  0.1961
  365MOL   Cl8144489   3.660   0.729   8.446 -0.0248 -0.3640 -0.7512
  365MOL   Cl8244490   3.596   0.593   8.198 -0.1810 -0.3585 -0.0301
  365MOL    C8344491   3.457   0.520   8.428 -0.1428  0.5125  0.2095
  365MOL    H8444492   3.393   0.553   8.509 -2.3581  0.5241 -1.5012
  365MOL    H8544493   3.379   0.482   8.362 -0.9571 -0.0230  1.4723
  365MOL    C8644494   3.552   0.406   8.490 -0.0659 -0.1395 -0.8779
  365MOL   Cl8744495   3.638   0.317   8.366 -0.0893  0.2270 -0.2056
  365MOL   Cl8844496   3.430   0.295   8.547  0.0450 -0.2109  0.4276
  365MOL    C8944497   3.634   0.461   8.605  0.6975 -0.1018 -0.1694
  365MOL    H9044498   3.718   0.506   8.551  1.8875 -1.1710  0.7669
  365MOL    H9144499   3.580   0.541   8.654  0.5851 -1.0393  1.2592
  365MOL    C9244500   3.698   0.371   8.716  0.3264  0.1406 -0.0034
  365MOL   Cl9344501   3.583   0.354   8.849  0.1063 -0.3030 -0.0808
  365MOL   Cl9444502   3.825   0.486   8.774  0.2910  0.1022  0.0030
  365MOL    C9544503   3.748   0.232   8.667 -0.8982  0.4305 -0.3594
  365MOL    H9644504   3.657   0.188   8.626 -1.1494  3.4288 -3.2112
  365MOL    H9744505   3.816   0.252   8.584  2.3024  1.2796  2.3449
  365MOL    C9844506   3.824   0.127   8.755 -0.1978  0.1164 -0.4832
  365MOL   Cl9944507   3.703   0.046   8.854  0.1377  0.4436 -0.0746
  365MOL  Cl10044508   3.936   0.196   8.873  0.2980 -0.0443  0.0612
  365MOL   C10144509   3.884   0.024   8.660  0.1420 -0.6064 -0.1978
  365MOL   H10244510   3.904   9.116   8.720 -0.3232 -0.4367  0.2073
  365MOL   H10344511   3.804   9.171   8.594 -0.3256 -1.5081  0.8174
  365MOL   C10444512   4.014   0.053   8.573  0.0591 -0.1890  0.0532
  365MOL  Cl10544513   4.157   0.024   8.677 -0.1367  0.4553 -0.3632
  365MOL  Cl10644514   4.047   0.226   8.525 -0.0184 -0.1056  0.4362
  365MOL   C10744515   4.040   9.143   8.451 -0.7723  0.4536 -0.5875
  365MOL   H10844516   4.138   9.174   8.414 -1.1882  2.6762  0.0944
  365MOL   H10944517   4.062   9.042   8.486 -1.7666  0.1030 -0.9733
  365MOL   C11044518   3.953   9.137   8.320 -0.6808 -0.5956  0.3295
  365MOL  Cl11144519   3.932   0.125   8.246 -0.4274  0.0291  0.0060
  365MOL  Cl11244520   3.794   9.062   8.353 -0.0635  0.0678 -0.1315
  365MOL   C11344521   4.039   9.057   8.213  0.9281 -0.6969 -0.2899
  365MOL   H11444522   4.123   9.115   8.174  0.3844 -1.0861 -2.0972
  365MOL   H11544523   4.086   8.968   8.255 -0.7093 -1.0855  0.7635
  365MOL   C11644524   3.970   8.991   8.092 -1.0181 -0.7728 -0.1699
  365MOL  Cl11744525   3.881   8.839   8.135 -0.2725  0.3412  0.5226
  365MOL  Cl11844526   4.087   8.943   7.973 -0.1097  0.1022 -0.0845
  365MOL   C11944527   3.870   9.080   8.020 -0.5270  0.0673  0.0829
  365MOL   H12044528   3.926   9.168   7.987  1.0014 -1.1570 -0.6541
  365MOL   H12144529   3.833   9.023   7.934  0.0848 -1.1321  0.6014
  365MOL   H12244530   3.796   9.129   8.083  1.9942  0.4602  2.8921
  366MOL     C144531   3.607   3.394   0.757  0.7589 -0.7403  0.1267
  366MOL    Cl244532   3.545   3.564   0.746 -0.0377  0.1204 -0.0224
  366MOL    Cl344533   3.782   3.402   0.777  0.1686 -0.2993  0.3071
  366MOL     C444534   3.547   3.309   0.870  0.1076 -0.6767  0.4021
  366MOL     H544535   3.596   3.213   0.856 -0.1347 -0.6592 -0.6199
  366MOL     H644536   3.571   3.349   0.968  1.7130  1.5339 -0.8441
  366MOL     H744537   3.591   3.343   0.662 -1.5282 -0.4450  0.3238
  366MOL     C844538   3.396   3.275   0.853 -0.9402 -0.7518  0.5304
  366MOL    Cl944539   3.374   3.116   0.930  0.0244  0.2792  0.2866
  366MOL   Cl1044540   3.361   3.244   0.678 -0.4909  0.0079 -0.1744
  366MOL    C1144541   3.308   3.389   0.903 -0.0219 -0.0712  0.2208
  366MOL    H1244542   3.348   3.418   1.000  0.9263 -1.3204  0.2214
  366MOL    H1344543   3.330   3.473   0.837 -0.1353  1.0184  1.5387
  366MOL    C1444544   3.153   3.365   0.938  0.8295 -0.1769 -0.1630
  366MOL   Cl1544545   3.085   3.522   0.964  0.0529  0.4123  0.1480
  366MOL   Cl1644546   3.132   3.274   1.089  0.5617  0.2006 -0.0052
  366MOL    C1744547   3.077   3.294   0.816 -0.2824 -0.0782  0.2607
  366MOL    H1844548   3.084   3.362   0.731  1.0308  0.5190  0.8322
  366MOL    H1944549   3.135   3.204   0.798 -0.3375  0.0000 -0.3127
  366MOL    C2044550   2.933   3.236   0.825  0.9961  0.7957 -0.3292
  366MOL   Cl2144551   2.829   3.328   0.938 -0.6556 -0.0608 -0.4659
  366MOL   Cl2244552   2.945   3.077   0.909 -0.3313 -0.3091  0.1870
  366MOL    C2344553   2.871   3.226   0.682  1.0473  0.1418  0.0903
  366MOL    H2444554   2.777   3.171   0.692 -0.1028  1.9920 -0.1462
  366MOL    H2544555   2.836   3.325   0.652 -2.6720 -0.8244  0.9508
  366MOL    C2644556   2.942   3.157   0.563 -0.7850 -0.3790 -0.1530
  366MOL   Cl2744557   3.015   2.999   0.608  0.0758 -0.0483 -0.2520
  366MOL   Cl2844558   3.083   3.261   0.506 -0.0623  0.1033 -0.4107
  366MOL    C2944559   2.860   3.134   0.429 -0.2344  0.1624 -0.1069
  366MOL    H3044560   2.934   3.120   0.351 -0.8576 -0.4069 -0.5957
  366MOL    H3144561   2.804   3.042   0.444 -1.8886  1.1123 -0.2569
  366MOL    C3244562   2.757   3.234   0.379 -0.0630 -0.9377  0.0694
  366MOL   Cl3344563   2.818   3.400   0.373  0.1182 -0.3427 -0.1948
  366MOL   Cl3444564   2.616   3.252   0.483  0.4697 -0.2094  0.0411
  366MOL    C3544565   2.697   3.196   0.240  0.0765 -0.4377  0.0681
  366MOL    H3644566   2.629   3.113   0.257 -1.6602  0.4027 -2.5140
  366MOL    H3744567   2.632   3.281   0.219  1.0464  0.3989  0.4125
  366MOL    C3844568   2.779   3.172   0.102  0.3936 -0.0907 -0.0113
  366MOL   Cl3944569   2.842   3.015   0.129  0.4299  0.0958  0.1093
  366MOL   Cl4044570   2.929   3.284   0.089 -0.2586  0.1829  0.0866
  366MOL    C4144571   2.683   3.191   9.159  0.3402  0.0587 -0.2337
  366MOL    H4244572   2.584   3.153   0.005  0.9344 -0.7524  0.8751
  366MOL    H4344573   2.674   3.299   9.149 -0.0675  0.0540  0.0869
  366MOL    C4444574   2.709   3.125   9.020  0.8565  0.3526  0.2538
  366MOL   Cl4544575   2.595   3.195   8.907 -0.0818  0.0100 -0.1440
  366MOL   Cl4644576   2.677   2.952   9.038  0.0366 -0.2092 -0.0027
  366MOL    C4744577   2.855   3.133   8.972 -1.0258  0.6395 -0.4594
  366MOL    H4844578   2.881   3.236   8.949  0.7212 -0.0500 -1.6632
  366MOL    H4944579   2.932   3.100   9.042 -0.6005  0.8058 -0.8455
  366MOL    C5044580   2.898   3.041   8.851  0.3228 -1.1575 -0.0786
  366MOL   Cl5144581   3.038   3.143   8.789 -0.0390 -0.0005  0.2682
  366MOL   Cl5244582   2.777   3.018   8.716 -0.1864 -0.1179  0.0070
  366MOL    C5344583   2.951   2.899   8.890 -0.2239  0.2660 -0.7444
  366MOL    H5444584   2.996   2.901   8.989  0.5177 -1.0112 -1.0386
  366MOL    H5544585   2.859   2.844   8.910  0.4130 -0.7040 -0.4607
  366MOL    C5644586   3.047   2.809   8.805 -0.3386  0.0410  0.9902
  366MOL   Cl5744587   2.995   2.815   8.633 -0.0427 -0.4618 -0.2335
  366MOL   Cl5844588   3.027   2.641   8.845  0.1178  0.2552 -0.2144
  366MOL    C5944589   3.202   2.840   8.809  0.0945 -0.1289  0.0973
  366MOL    H6044590   3.205   2.948   8.797 -2.1437 -0.0221  0.2113
  366MOL    H6144591   3.216   2.821   8.915 -0.9111  1.8811  0.6110
  366MOL    C6244592   3.314   2.758   8.736  0.5255 -0.2794 -0.5088
  366MOL   Cl6344593   3.371   2.629   8.842  0.0525 -0.1731 -0.4913
  366MOL   Cl6444594   3.447   2.873   8.733  0.4475 -0.0252  0.0898
  366MOL    C6544595   3.280   2.727   8.587  0.0332 -0.2485 -0.7571
  366MOL    H6644596   3.197   2.657   8.599  0.0699  0.0023  1.0117
  366MOL    H6744597   3.240   2.824   8.556 -2.7947 -0.1593  2.8609
  366MOL    C6844598   3.384   2.672   8.485 -0.2585 -0.3868 -0.0015
  366MOL   Cl6944599   3.446   2.521   8.549  0.3338  0.0844  0.0705
  366MOL   Cl7044600   3.530   2.775   8.448 -0.1163 -0.3240 -0.2332
  366MOL    C7144601   3.318   2.631   8.347  0.3224 -0.2691 -0.0338
  366MOL    H7244602   3.395   2.577   8.291  2.6500  2.5136  0.3728
  366MOL    H7344603   3.242   2.553   8.347  0.4065 -0.3515 -0.4629
  366MOL    C7444604   3.235   2.741   8.262 -0.3608  0.4408 -0.0642
  366MOL   Cl7544605   3.295   2.903   8.291 -0.2863 -0.0270 -0.0538
  366MOL   Cl7644606   3.068   2.734   8.313 -0.0769 -0.2731  0.0933
  366MOL    C7744607   3.242   2.699   8.109 -0.2625  0.4669 -0.7642
  366MOL    H7844608   3.334   2.647   8.085 -0.8082 -0.6405 -0.5182
  366MOL    H7944609   3.174   2.614   8.096 -1.9725  1.6658  0.1148
  366MOL    C8044610   3.228   2.810   7.999  0.0813  0.0948 -0.0612
  366MOL   Cl8144611   3.223   2.717   7.847  0.0009  0.0750  0.1193
  366MOL   Cl8244612   3.368   2.921   7.997 -0.3310 -0.5823  0.0662
  366MOL    C8344613   3.092   2.882   8.004 -0.7549 -0.4343 -0.0831
  366MOL    H8444614   3.019   2.811   7.965 -0.4293 -1.2730  0.8228
  366MOL    H8544615   3.059   2.905   8.105 -0.5001 -1.1479  0.1621
  366MOL    C8644616   3.072   3.015   7.928  0.2791  0.0495 -0.0560
  366MOL   Cl8744617   3.120   3.001   7.754  0.1904 -0.1861  0.0244
  366MOL   Cl8844618   3.168   3.150   7.991 -0.0947 -0.1081  0.3176
  366MOL    C8944619   2.921   3.064   7.927 -0.1243  0.0016  0.5714
  366MOL    H9044620   2.889   3.109   8.021 -0.3821  0.0537  0.4593
  366MOL    H9144621   2.924   3.155   7.867  1.4515 -0.3901  0.0193
  366MOL    C9244622   2.799   2.971   7.893 -0.1105 -0.5881  0.1409
  366MOL   Cl9344623   2.762   2.861   8.036  0.3289  0.8464  0.0689
  366MOL   Cl9444624   2.833   2.867   7.754 -0.2660  0.1209 -0.2278
  366MOL    C9544625   2.677   3.049   7.843 -0.6429 -0.1873 -0.0263
  366MOL    H9644626   2.700   3.105   7.752 -0.7758  0.4597  0.3329
  366MOL    H9744627   2.599   2.977   7.817 -2.1564  1.2322  0.4865
  366MOL    C9844628   2.611   3.162   7.930  0.7035  0.0859  0.0948
  366MOL   Cl9944629   2.701   3.313   7.930 -0.1730 -0.1405  0.1346
  366MOL  Cl10044630   2.592   3.112   8.099  0.0507 -0.3170  0.4363
  366MOL   C10144631   2.459   3.179   7.875 -0.3584  0.1539 -0.1434
  366MOL   H10244632   2.417   3.081   7.893 -0.3520  0.4620  1.5592
  366MOL   H10344633   2.414   3.259   7.934  2.0600  1.5680 -0.1200
  366MOL   C10444634   2.426   3.219   7.722  0.3138 -0.6479  0.3499
  366MOL  Cl10544635   2.460   3.087   7.609  0.5173 -0.3281 -0.0028
  366MOL  Cl10644636   2.531   3.364   7.669 -0.2501 -0.1026 -0.2353
  366MOL   C10744637   2.277   3.251   7.697 -0.4492 -0.5458 -0.1453
  366MOL   H10844638   2.263   3.356   7.721 -1.1616 -0.5073 -0.7166
  366MOL   H10944639   2.269   3.242   7.589 -1.6397  0.5270 -0.1533
  366MOL   C11044640   2.159   3.167   7.752 -0.6423  0.1957 -0.2700
  366MOL  Cl11144641   2.109   3.189   7.925 -0.0762  0.1778 -0.0600
  366MOL  Cl11244642   2.194   2.996   7.730  0.3472 -0.2199  0.0226
  366MOL   C11344643   2.027   3.194   7.667 -0.9023  0.5519 -0.0037
  366MOL   H11444644   2.040   3.150   7.568 -1.5443  0.9174 -0.2519
  366MOL   H11544645   1.944   3.138   7.712 -1.7104  2.5264  1.0639
  366MOL   C11644646   1.977   3.337   7.655  0.4247 -0.1560 -0.6874
  366MOL  Cl11744647   1.819   3.330   7.562 -0.0197 -0.4194 -0.0424
  366MOL  Cl11844648   2.080   3.441   7.557  0.4280 -0.0013 -0.2946
  366MOL   C11944649   1.937   3.414   7.785  0.0212 -0.7484  0.3522
  366MOL   H12044650   2.031   3.444   7.831 -1.0942  0.6083  1.7810
  366MOL   H12144651   1.881   3.502   7.753  2.9825  1.4876  1.0624
  366MOL   H12244652   1.877   3.362   7.859 -2.0064 -0.6829 -1.1963
  367MOL     C144653   7.302   2.157   5.114  0.1970 -0.0153 -0.4520
  367MOL    Cl244654   7.200   2.028   5.043  0.2264 -0.0601 -0.2311
  367MOL    Cl344655   7.348   2.274   4.986 -0.1104 -0.6126  0.4249
  367MOL     C444656   7.232   2.221   5.237  0.6937 -0.0608 -0.4357
  367MOL     H544657   7.273   2.319   5.258 -0.6339 -0.1505  2.8388
  367MOL     H644658   7.126   2.241   5.223  0.5654  1.1179  2.0483
  367MOL     H744659   7.392   2.108   5.152 -0.5020  0.4248  1.8622
  367MOL     C844660   7.243   2.146   5.373  0.2980 -0.5346  0.1236
  367MOL    Cl944661   7.167   2.248   5.494  0.0300  0.1242 -0.1378
  367MOL   Cl1044662   7.422   2.134   5.413  0.3332 -0.2177 -0.1413
  367MOL    C1144663   7.173   2.000   5.363  0.0681  0.2705  0.6657
  367MOL    H1244664   7.084   2.016   5.303 -0.8291  1.9482  2.3878
  367MOL    H1344665   7.249   1.944   5.309  0.0064  1.5589 -0.8019
  367MOL    C1444666   7.137   1.921   5.496  0.6313  0.1198  0.2616
  367MOL   Cl1544667   7.114   1.754   5.438  0.4133  0.0722  0.1097
  367MOL   Cl1644668   6.974   1.979   5.561  0.1880 -0.2363  0.1601
  367MOL    C1744669   7.250   1.909   5.604 -0.2396 -0.3683 -0.1989
  367MOL    H1844670   7.344   1.886   5.552  0.2172  0.1932  0.3734
  367MOL    H1944671   7.259   2.010   5.645 -0.7678 -0.3554 -0.1207
  367MOL    C2044672   7.242   1.822   5.740 -0.0067 -0.1509  0.3436
  367MOL   Cl2144673   7.236   1.648   5.695 -0.2585 -0.3151  0.1844
  367MOL   Cl2244674   7.097   1.860   5.834  0.4437 -0.4429  0.3416
  367MOL    C2344675   7.367   1.831   5.839  0.2969  0.5592  0.3029
  367MOL    H2444676   7.343   1.766   5.923  0.0899  0.6592  0.3212
  367MOL    H2544677   7.440   1.769   5.786 -1.8737 -2.4755  0.7126
  367MOL    C2644678   7.425   1.972   5.873  0.2825  0.1434  0.6755
  367MOL   Cl2744679   7.298   2.093   5.888  0.1006  0.0761  0.3723
  367MOL   Cl2844680   7.519   2.023   5.735 -0.2460 -0.0794 -0.1179
  367MOL    C2944681   7.516   1.958   5.991 -0.7995  0.0385 -0.6297
  367MOL    H3044682   7.612   1.918   5.957 -0.3996 -0.1655  0.7065
  367MOL    H3144683   7.537   2.063   6.014  1.4764 -1.0245  2.4022
  367MOL    C3244684   7.479   1.899   6.131 -0.7438  0.9414 -0.5736
  367MOL   Cl3344685   7.605   1.950   6.253 -0.0120 -0.2019  0.2102
  367MOL   Cl3444686   7.493   1.717   6.120  0.2532 -0.2793  0.1351
  367MOL    C3544687   7.342   1.955   6.185 -0.3696  0.4740  0.0316
  367MOL    H3644688   7.353   2.062   6.202 -1.2380  0.0246  4.0132
  367MOL    H3744689   7.273   1.941   6.102  0.2422  0.2945 -0.4457
  367MOL    C3844690   7.257   1.888   6.302 -0.0850  0.6784 -0.2069
  367MOL   Cl3944691   7.192   1.735   6.239 -0.1533 -0.1635  0.0738
  367MOL   Cl4044692   7.122   1.997   6.350 -0.3602 -0.1102 -0.1541
  367MOL    C4144693   7.353   1.859   6.418 -0.3020  0.3469 -0.4545
  367MOL    H4244694   7.429   1.790   6.381 -2.4090 -2.6358  0.5304
  367MOL    H4344695   7.412   1.946   6.447 -2.5814  1.6590  0.3822
  367MOL    C4444696   7.309   1.812   6.565 -0.4120  0.7270  0.3393
  367MOL   Cl4544697   7.244   1.951   6.659  0.2479  0.3690  0.3110
  367MOL   Cl4644698   7.471   1.784   6.637 -0.0018 -0.0564  0.0979
  367MOL    C4744699   7.225   1.684   6.560 -0.8704 -0.5165  0.8846
  367MOL    H4844700   7.131   1.712   6.512  0.0841  2.2710  0.5264
  367MOL    H4944701   7.272   1.619   6.487 -0.8216 -1.2498  1.5601
  367MOL    C5044702   7.199   1.598   6.683  0.2521 -0.1111  0.2326
  367MOL   Cl5144703   7.091   1.683   6.799 -0.2565 -0.0621 -0.0821
  367MOL   Cl5244704   7.342   1.551   6.778 -0.0692  0.1814 -0.1366
  367MOL    C5344705   7.145   1.456   6.644 -0.4696 -0.0380  0.0493
  367MOL    H5444706   7.228   1.406   6.594 -1.4546  0.1420 -1.7906
  367MOL    H5544707   7.138   1.404   6.740 -2.4124 -0.0275 -0.0596
  367MOL    C5644708   7.012   1.419   6.570 -0.0661  0.2719 -0.2518
  367MOL   Cl5744709   7.011   1.477   6.405  0.2233  0.0394 -0.1336
  367MOL   Cl5844710   6.872   1.498   6.659  0.0169 -0.1702  0.1798
  367MOL    C5944711   6.970   1.267   6.571  0.3023  0.0123  0.7651
  367MOL    H6044712   6.914   1.247   6.662 -1.6665 -1.7947 -0.8005
  367MOL    H6144713   6.899   1.248   6.490  0.1848 -1.3704  1.1838
  367MOL    C6244714   7.074   1.152   6.552  0.3558 -0.1864 -0.1612
  367MOL   Cl6344715   7.149   1.182   6.392 -0.0194 -0.0702  0.0758
  367MOL   Cl6444716   6.977   1.006   6.523 -0.0185  0.0099  0.0205
  367MOL    C6544717   7.168   1.124   6.672 -0.6485  0.3089  0.6153
  367MOL    H6644718   7.256   1.187   6.664  1.7644 -2.8151  1.6413
  367MOL    H6744719   7.125   1.161   6.765  0.4442 -0.8488  1.5922
  367MOL    C6844720   7.226   0.983   6.697 -0.6740 -0.2059 -0.3223
  367MOL   Cl6944721   7.355   0.989   6.825  0.2107  0.1025  0.3721
  367MOL   Cl7044722   7.315   0.929   6.544 -0.5148  0.0332  0.2378
  367MOL    C7144723   7.130   0.857   6.733 -0.2318  0.0101  0.2688
  367MOL    H7244724   7.078   0.826   6.642  3.3335 -0.4043 -1.6885
  367MOL    H7344725   7.205   0.782   6.755 -1.0258 -1.1303 -0.7892
  367MOL    C7444726   7.035   0.858   6.853  0.0043  0.0369  0.4216
  367MOL   Cl7544727   6.929   1.000   6.845 -0.1109  0.2626 -0.1819
  367MOL   Cl7644728   7.125   0.859   7.010  0.0627  0.2810  0.2465
  367MOL    C7744729   6.948   0.731   6.856  0.3367 -0.3422 -0.1312
  367MOL    H7844730   6.912   0.708   6.755  0.5045 -2.8608  0.3446
  367MOL    H7944731   7.015   0.651   6.887  1.9311  0.3096 -1.7788
  367MOL    C8044732   6.819   0.713   6.947 -0.5831 -0.9762 -0.3566
  367MOL   Cl8144733   6.679   0.805   6.876 -0.0197  0.0026 -0.0035
  367MOL   Cl8244734   6.838   0.800   7.104 -0.0931 -0.0497  0.4061
  367MOL    C8344735   6.781   0.564   6.981  0.3390  0.0200 -0.2969
  367MOL    H8444736   6.869   0.519   7.029 -0.9553 -1.6016  0.6309
  367MOL    H8544737   6.705   0.558   7.059  0.6798  1.9960  0.2036
  367MOL    C8644738   6.727   0.466   6.878  0.3488  0.1329  0.0815
  367MOL   Cl8744739   6.839   0.455   6.740 -0.2650  0.4770  0.0888
  367MOL   Cl8844740   6.571   0.524   6.805 -0.0701  0.0332  0.2556
  367MOL    C8944741   6.716   0.328   6.943  0.4642  0.1419  0.8671
  367MOL    H9044742   6.816   0.292   6.968  0.0519 -2.0025 -0.4025
  367MOL    H9144743   6.666   0.337   7.039 -4.3105  2.1018 -1.6356
  367MOL    C9244744   6.647   0.205   6.873 -0.3824  0.2054  1.0429
  367MOL   Cl9344745   6.715   0.162   6.712 -0.2415 -0.1925 -0.4230
  367MOL   Cl9444746   6.472   0.232   6.852 -0.4011 -0.0055 -0.0698
  367MOL    C9544747   6.669   0.074   6.948 -0.3479 -0.5075 -0.0123
  367MOL    H9644748   6.614   9.176   6.895 -1.7369  0.4933 -0.0848
  367MOL    H9744749   6.770   0.035   6.938  0.7718  2.1215  0.8107
  367MOL    C9844750   6.631   0.061   7.100 -0.0705 -0.3783  0.2654
  367MOL   Cl9944751   6.472   0.125   7.142  0.1244  0.1345 -0.0539
  367MOL  Cl10044752   6.756   0.149   7.195  0.1056  0.2632 -0.0131
  367MOL   C10144753   6.649   9.093   7.144 -0.4106  0.3653 -0.2027
  367MOL   H10244754   6.751   9.056   7.127 -0.2652  0.8437 -0.3891
  367MOL   H10344755   6.641   9.101   7.252 -0.6638 -1.9102 -0.0301
  367MOL   C10444756   6.543   8.975   7.120  0.6059  0.1586 -0.7656
  367MOL  Cl10544757   6.474   8.972   6.958  0.6530 -0.2873  0.4887
  367MOL  Cl10644758   6.401   9.016   7.227  0.2341 -0.0317 -0.4777
  367MOL   C10744759   6.579   8.826   7.167 -0.1060  0.4143  0.5985
  367MOL   H10844760   6.571   8.819   7.275 -0.6518  0.0191  0.5308
  367MOL   H10944761   6.492   8.768   7.138 -0.2807  1.0334 -0.1394
  367MOL   C11044762   6.721   8.768   7.137  0.0939  0.7503  0.4655
  367MOL  Cl11144763   6.847   8.841   7.243 -0.0681  0.0101 -0.3134
  367MOL  Cl11244764   6.772   8.817   6.975 -0.1053 -0.4735 -0.1105
  367MOL   C11344765   6.713   8.613   7.148 -0.1692  0.4256  0.5510
  367MOL   H11444766   6.662   8.590   7.241 -1.1237  0.7341  0.1065
  367MOL   H11544767   6.640   8.585   7.072  2.9290 -0.4763 -2.2025
  367MOL   C11644768   6.841   8.528   7.138 -0.0497 -0.0326 -0.1966
  367MOL  Cl11744769   6.785   8.362   7.091  0.1140 -0.0680  0.0780
  367MOL  Cl11844770   6.916   8.519   7.298 -0.4966  0.0719 -0.4980
  367MOL   C11944771   6.955   8.572   7.046  0.4309  0.8811  0.2527
  367MOL   H12044772   7.008   8.667   7.059  0.6642  0.6527  0.9904
  367MOL   H12144773   7.036   8.500   7.049 -1.7197 -1.5801  0.4193
  367MOL   H12244774   6.929   8.567   6.941 -0.5253  1.8072  0.4311
  368MOL     C144775   8.270   4.067   3.970 -0.4149  0.7888 -0.4822
  368MOL    Cl244776   8.419   3.990   3.906 -0.2275  0.1458  0.0436
  368MOL    Cl344777   8.281   4.081   4.149  0.0757 -0.0703  0.3150
  368MOL     C444778   8.244   4.212   3.912 -0.0165 -0.2044 -0.4597
  368MOL     H544779   8.323   4.286   3.932 -0.9596  0.5396  0.6242
  368MOL     H644780   8.273   4.194   3.809 -0.4386 -0.4619 -0.5311
  368MOL     H744781   8.184   4.009   3.936 -0.1193  0.1026 -0.0812
  368MOL     C844782   8.106   4.272   3.931  0.4856  0.2993  0.7465
  368MOL    Cl944783   7.974   4.156   3.890  0.0167  0.0663 -0.4173
  368MOL   Cl1044784   8.075   4.392   3.812 -0.0548 -0.4260  0.0188
  368MOL    C1144785   8.062   4.312   4.086 -0.0640  0.6425  0.2906
  368MOL    H1244786   7.953   4.310   4.086 -0.0375 -1.2366 -0.9704
  368MOL    H1344787   8.067   4.227   4.154  0.3815  1.5603  1.4485
  368MOL    C1444788   8.122   4.436   4.158  0.0045 -1.0121  1.1989
  368MOL   Cl1544789   8.301   4.419   4.170 -0.0636 -0.3522 -0.0049
  368MOL   Cl1644790   8.068   4.434   4.332 -0.1997  0.6026  0.1886
  368MOL    C1744791   8.093   4.583   4.108 -1.0599  0.6164 -0.8763
  368MOL    H1844792   8.159   4.651   4.162  0.5381 -2.7590  1.6645
  368MOL    H1944793   8.129   4.588   4.005  1.7346 -0.4519 -0.0270
  368MOL    C2044794   7.949   4.639   4.092  0.5987  0.4751 -0.4256
  368MOL   Cl2144795   7.884   4.688   4.254 -0.3709  0.6316 -0.2813
  368MOL   Cl2244796   7.830   4.527   4.019  0.0575  0.0068 -0.1431
  368MOL    C2344797   7.955   4.773   4.017 -0.1267  0.3613  0.0416
  368MOL    H2444798   8.028   4.838   4.066 -0.5555 -0.7625  2.2156
  368MOL    H2544799   8.008   4.750   3.924 -1.5095  0.6298 -0.8284
  368MOL    C2644800   7.835   4.869   3.984  0.3446 -0.2753  0.2070
  368MOL   Cl2744801   7.724   4.782   3.874 -0.3095 -0.3360  0.0479
  368MOL   Cl2844802   7.906   5.004   3.890  0.3149  0.0452 -0.4030
  368MOL    C2944803   7.756   4.920   4.109  0.9223 -0.0871  0.9934
  368MOL    H3044804   7.689   4.840   4.142  0.7582 -0.2262  0.3417
  368MOL    H3144805   7.828   4.945   4.187  1.5236  2.3180 -0.2933
  368MOL    C3244806   7.678   5.058   4.103  1.1652  0.5376 -0.3617
  368MOL   Cl3344807   7.793   5.199   4.091 -0.7747 -0.0123 -0.1682
  368MOL   Cl3444808   7.602   5.062   4.265 -0.1147 -0.2549  0.0152
  368MOL    C3544809   7.567   5.064   3.987  0.2953 -0.3035  0.2738
  368MOL    H3644810   7.624   5.031   3.900 -1.4554 -1.3813 -0.4815
  368MOL    H3744811   7.502   4.977   3.994  0.8987 -0.8088 -0.3274
  368MOL    C3844812   7.500   5.201   3.954 -0.2438 -0.2428 -0.6027
  368MOL   Cl3944813   7.340   5.161   3.875 -0.3532  0.0194 -0.2043
  368MOL   Cl4044814   7.600   5.297   3.838 -0.3551  0.0120  0.0793
  368MOL    C4144815   7.466   5.291   4.081 -0.2803 -0.8395  0.0497
  368MOL    H4244816   7.406   5.219   4.137 -0.7828  0.3883  1.0995
  368MOL    H4344817   7.557   5.303   4.140 -0.9078 -1.0476  1.0753
  368MOL    C4444818   7.383   5.423   4.072 -0.5205 -0.3823  0.0386
  368MOL   Cl4544819   7.389   5.473   4.243  0.0163 -0.0157  0.0923
  368MOL   Cl4644820   7.215   5.381   4.044 -0.0614  0.4235  0.3440
  368MOL    C4744821   7.440   5.544   3.986  0.6034 -0.1503  0.4435
  368MOL    H4844822   7.451   5.628   4.053  3.2044  1.7034 -2.1599
  368MOL    H4944823   7.544   5.533   3.954  0.1547 -1.7412 -0.5397
  368MOL    C5044824   7.363   5.611   3.861 -0.0890  0.3035 -0.3805
  368MOL   Cl5144825   7.467   5.751   3.809  0.2345 -0.3421 -0.4233
  368MOL   Cl5244826   7.204   5.670   3.921 -0.3739 -0.0993  0.6974
  368MOL    C5344827   7.343   5.512   3.747  0.1758  0.1047  0.0577
  368MOL    H5444828   7.442   5.468   3.736  0.9323  2.1086 -1.4861
  368MOL    H5544829   7.265   5.441   3.775  0.7009 -0.6373 -0.3437
  368MOL    C5644830   7.297   5.539   3.600  1.1319 -0.1372  0.3744
  368MOL   Cl5744831   7.281   5.373   3.529  0.4506  0.4647 -0.0504
  368MOL   Cl5844832   7.431   5.609   3.524 -0.3265 -0.4390  0.1783
  368MOL    C5944833   7.171   5.629   3.588 -0.0291 -0.4234 -0.4165
  368MOL    H6044834   7.094   5.590   3.654 -0.8262  2.2507  0.3135
  368MOL    H6144835   7.205   5.720   3.637 -0.2719  0.8766 -2.6235
  368MOL    C6244836   7.100   5.660   3.454 -0.3615  0.5792 -0.0157
  368MOL   Cl6344837   7.017   5.508   3.406  0.1674  0.1391 -0.1541
  368MOL   Cl6444838   7.211   5.703   3.322 -0.1394 -0.6187 -0.0771
  368MOL    C6544839   7.004   5.780   3.459 -0.3918 -0.3231 -0.1452
  368MOL    H6644840   7.058   5.873   3.479  0.3538 -0.6209 -0.7664
  368MOL    H6744841   6.953   5.793   3.364 -0.8481  1.1184  0.2811
  368MOL    C6844842   6.891   5.795   3.563 -0.1830 -0.2393 -0.9705
  368MOL   Cl6944843   6.955   5.804   3.719 -0.0030  0.3252  0.1278
  368MOL   Cl7044844   6.779   5.655   3.557 -0.0278 -0.0181 -0.1004
  368MOL    C7144845   6.806   5.921   3.542  0.4671 -0.1727  0.2879
  368MOL    H7244846   6.740   5.903   3.457  1.6565  0.4174 -0.7886
  368MOL    H7344847   6.735   5.925   3.624 -0.3318  0.3959 -0.4190
  368MOL    C7444848   6.861   6.070   3.538  0.3316  0.3117 -0.0547
  368MOL   Cl7544849   6.711   6.155   3.481 -0.5135 -0.1776  0.1128
  368MOL   Cl7644850   6.971   6.101   3.403  0.2116  0.0424 -0.2124
  368MOL    C7744851   6.906   6.118   3.677 -0.4639 -0.3545 -0.7482
  368MOL    H7844852   6.841   6.075   3.754  0.3232  1.5509  1.0352
  368MOL    H7944853   7.003   6.070   3.690  0.3115  1.0960 -1.0712
  368MOL    C8044854   6.921   6.266   3.719 -0.0969  0.4059 -0.0652
  368MOL   Cl8144855   6.756   6.330   3.747 -0.2858  0.2554  0.1659
  368MOL   Cl8244856   6.996   6.370   3.589  0.1416 -0.2684  0.0374
  368MOL    C8344857   7.013   6.273   3.840  0.6484 -0.0828  0.5832
  368MOL    H8444858   6.988   6.192   3.908  0.4890 -0.7214 -0.2233
  368MOL    H8544859   7.114   6.243   3.814  0.0539  0.0340 -2.0498
  368MOL    C8644860   7.021   6.396   3.938 -0.5253 -0.7260 -0.2577
  368MOL   Cl8744861   7.178   6.385   4.012 -0.0185  0.0872 -0.5243
  368MOL   Cl8844862   6.909   6.373   4.074 -0.0623 -0.2762 -0.1893
  368MOL    C8944863   6.991   6.537   3.869 -0.4852  0.8122 -0.1550
  368MOL    H9044864   7.016   6.542   3.763  1.2850 -0.7412  0.1780
  368MOL    H9144865   6.882   6.534   3.874 -0.5964  0.7546 -2.2206
  368MOL    C9244866   7.035   6.672   3.936  0.3468 -0.3698  1.1052
  368MOL   Cl9344867   7.212   6.675   3.911 -0.0344  0.2969  0.0442
  368MOL   Cl9444868   6.994   6.671   4.106  0.5778  0.4423 -0.4949
  368MOL    C9544869   6.976   6.805   3.874  0.7621 -0.2184 -0.1564
  368MOL    H9644870   6.986   6.879   3.953  1.9430  0.5078 -0.9689
  368MOL    H9744871   7.034   6.834   3.786  0.7373 -0.7447 -0.3497
  368MOL    C9844872   6.823   6.806   3.824  0.8782  0.4333 -0.5549
  368MOL   Cl9944873   6.808   6.712   3.678 -0.3639  0.2820  0.0437
  368MOL  Cl10044874   6.788   6.969   3.781  0.6035  0.1128  0.1889
  368MOL   C10144875   6.719   6.770   3.932 -0.4939  0.1865  0.4623
  368MOL   H10244876   6.748   6.687   3.997  1.1904 -0.0192 -0.5143
  368MOL   H10344877   6.730   6.863   3.987 -1.5785  1.2204 -1.0090
  368MOL   C10444878   6.571   6.755   3.889  0.0607  0.7389  0.1456
  368MOL  Cl10544879   6.547   6.599   3.811 -0.1874 -0.3255  0.3332
  368MOL  Cl10644880   6.502   6.869   3.775 -0.2836 -0.3764 -0.1952
  368MOL   C10744881   6.478   6.770   4.014  0.4670 -0.4016  0.3405
  368MOL   H10844882   6.485   6.871   4.054  0.4956 -0.5766  0.7820
  368MOL   H10944883   6.375   6.769   3.979  0.2935 -0.2068  0.8407
  368MOL   C11044884   6.491   6.681   4.138  0.4339  0.2283 -0.1991
  368MOL  Cl11144885   6.339   6.716   4.235  0.1708 -0.1157 -0.1057
  368MOL  Cl11244886   6.632   6.731   4.240  0.0814 -0.5166 -0.1750
  368MOL   C11344887   6.497   6.528   4.102 -0.2557 -0.1340  0.1464
  368MOL   H11444888   6.407   6.509   4.045 -0.1405 -3.5734  1.0369
  368MOL   H11544889   6.588   6.513   4.044 -0.0360 -0.2956  0.5292
  368MOL   C11644890   6.511   6.424   4.213 -0.0569 -0.1177  0.1173
  368MOL  Cl11744891   6.672   6.423   4.277 -0.0952  0.2188 -0.0881
  368MOL  Cl11844892   6.486   6.269   4.138  0.1740 -0.2669  0.0153
  368MOL   C11944893   6.408   6.435   4.325 -0.2611  0.4073  0.5681
  368MOL   H12044894   6.432   6.523   4.385 -1.6779  0.6474  0.7966
  368MOL   H12144895   6.309   6.457   4.286 -0.5891  3.0228  2.7214
  368MOL   H12244896   6.403   6.341   4.380  0.1872 -0.1120 -0.2716
  369MOL     C144897   0.545   5.412   3.867 -0.4837  0.1815  0.2996
  369MOL    Cl244898   0.519   5.377   3.701  0.4541  0.1754  0.0115
  369MOL    Cl344899   0.566   5.590   3.879 -0.0252  0.0170  0.3147
  369MOL     C444900   0.423   5.385   3.956 -0.8378 -0.7624  0.3294
  369MOL     H544901   0.443   5.435   4.051 -0.8383 -1.8434  0.9026
  369MOL     H644902   0.350   5.456   3.917  1.0592 -0.7403 -3.4859
  369MOL     H744903   0.640   5.369   3.900  0.9962  2.2714 -1.1325
  369MOL     C844904   0.367   5.243   3.962  0.6637  0.2857  0.2550
  369MOL    Cl944905   0.502   5.142   3.990  0.1977 -0.0502 -0.3960
  369MOL   Cl1044906   0.295   5.203   3.813 -0.5631  0.4755  0.7231
  369MOL    C1144907   0.253   5.211   4.077 -0.3096 -0.4729  0.3444
  369MOL    H1244908   0.227   5.112   4.041  0.5816 -0.0819 -1.4313
  369MOL    H1344909   0.300   5.207   4.175  0.1751 -1.7782  0.0608
  369MOL    C1444910   0.127   5.309   4.091 -0.0919 -0.1097  0.4068
  369MOL   Cl1544911   0.043   5.348   3.944  0.2470  0.0962  0.1283
  369MOL   Cl1644912   0.196   5.465   4.153 -0.1257  0.1144 -0.0404
  369MOL    C1744913   0.022   5.253   4.194 -0.2482 -0.2728  0.0405
  369MOL    H1844914   9.166   5.163   4.143 -1.1873 -1.1882  2.2873
  369MOL    H1944915   0.074   5.220   4.283  1.5302 -0.3811 -1.0181
  369MOL    C2044916   9.075   5.338   4.247  0.5427 -0.3745 -0.2506
  369MOL   Cl2144917   8.972   5.413   4.120 -0.2604 -0.3886  0.1485
  369MOL   Cl2244918   9.129   5.473   4.357 -0.0777  0.0045  0.2944
  369MOL    C2344919   8.982   5.241   4.330 -0.1620 -0.3803 -0.4099
  369MOL    H2444920   8.888   5.293   4.347  0.7793  1.0280  0.5834
  369MOL    H2544921   8.936   5.172   4.259 -1.0422 -1.3753  1.0902
  369MOL    C2644922   9.034   5.152   4.444  0.1313 -0.4653 -0.1447
  369MOL   Cl2744923   9.160   5.227   4.544 -0.1505 -0.2747 -0.1586
  369MOL   Cl2844924   9.100   5.009   4.368 -0.2254  0.1227  0.2708
  369MOL    C2944925   8.922   5.095   4.537 -0.4954  0.0804  0.1193
  369MOL    H3044926   8.849   5.063   4.463  0.4262 -0.5343 -0.5452
  369MOL    H3144927   8.954   4.996   4.572 -0.7945 -0.2504 -0.5298
  369MOL    C3244928   8.852   5.182   4.649  0.0848  0.3034 -0.5395
  369MOL   Cl3344929   8.824   5.349   4.591  0.2110  0.2944  0.1301
  369MOL   Cl3444930   8.965   5.207   4.782 -0.1676  0.4690  0.5103
  369MOL    C3544931   8.724   5.117   4.692  0.9314 -0.2774  0.3385
  369MOL    H3644932   8.658   5.134   4.607  0.9910  3.3196  0.9070
  369MOL    H3744933   8.748   5.012   4.706 -4.7376 -1.8259 -0.3369
  369MOL    C3844934   8.648   5.154   4.823  1.0142  0.5626  0.7254
  369MOL   Cl3944935   8.732   5.077   4.966  0.4040 -0.3461  0.2349
  369MOL   Cl4044936   8.497   5.064   4.796 -0.3654  0.1923 -0.1213
  369MOL    C4144937   8.621   5.311   4.844 -0.6745  0.4763 -0.4019
  369MOL    H4244938   8.718   5.340   4.883 -1.1393 -0.9242  1.8831
  369MOL    H4344939   8.622   5.364   4.749  0.6139  1.1378 -0.0256
  369MOL    C4444940   8.503   5.356   4.940 -0.2080 -0.6151  0.2649
  369MOL   Cl4544941   8.500   5.265   5.091 -0.0455 -0.5857  0.3765
  369MOL   Cl4644942   8.342   5.325   4.862 -0.0214 -0.2730  0.2553
  369MOL    C4744943   8.504   5.513   4.959  0.6150 -0.1686  0.2532
  369MOL    H4844944   8.485   5.557   4.861 -1.2717  0.8766  1.0686
  369MOL    H4944945   8.408   5.540   5.002  1.2796  4.2054 -0.8104
  369MOL    C5044946   8.621   5.596   5.027 -0.3219 -1.0243 -0.0229
  369MOL   Cl5144947   8.544   5.758   5.053  0.2601  0.0500  0.1643
  369MOL   Cl5244948   8.753   5.610   4.910  0.3332  0.0120 -0.0398
  369MOL    C5344949   8.676   5.534   5.166  0.0752  0.2078  0.3332
  369MOL    H5444950   8.706   5.431   5.151  1.1633  0.1432  2.6710
  369MOL    H5544951   8.769   5.589   5.180 -0.7996  1.9641 -0.5724
  369MOL    C5644952   8.591   5.554   5.297 -0.0881 -0.8875 -0.0320
  369MOL   Cl5744953   8.410   5.535   5.273 -0.0874  0.0955 -0.5401
  369MOL   Cl5844954   8.621   5.713   5.368 -0.2447  0.1342 -0.3328
  369MOL    C5944955   8.626   5.442   5.393 -0.1415  0.0259  0.7097
  369MOL    H6044956   8.560   5.450   5.480  2.5692 -2.4352  3.1183
  369MOL    H6144957   8.589   5.348   5.352 -1.5162 -0.1445  2.2692
  369MOL    C6244958   8.769   5.408   5.458  0.7482 -0.6351  0.1109
  369MOL   Cl6344959   8.853   5.316   5.330 -0.3391  0.3417  0.1314
  369MOL   Cl6444960   8.724   5.287   5.592  0.1049 -0.1277 -0.1904
  369MOL    C6544961   8.847   5.534   5.498  0.1884  0.0934  0.1998
  369MOL    H6644962   8.885   5.571   5.403  0.2868 -1.0349 -0.2093
  369MOL    H6744963   8.763   5.590   5.541 -0.1108 -1.0681  1.1516
  369MOL    C6844964   8.956   5.520   5.611  0.5048 -0.1009 -0.7438
  369MOL   Cl6944965   9.049   5.371   5.581 -0.1230  0.1884  0.1136
  369MOL   Cl7044966   8.882   5.503   5.767 -0.0406  0.0764 -0.0069
  369MOL    C7144967   9.053   5.643   5.604  0.4001 -0.3302 -0.5311
  369MOL    H7244968   9.139   5.606   5.658  2.3202  4.5239  0.0240
  369MOL    H7344969   9.079   5.657   5.499 -0.4472 -4.2108 -1.3202
  369MOL    C7444970   9.014   5.783   5.659  0.1487 -0.1375 -0.0529
  369MOL   Cl7544971   8.853   5.823   5.602  0.0419 -0.4820 -0.0869
  369MOL   Cl7644972   9.105   5.907   5.569  0.1881  0.1995  0.1669
  369MOL    C7744973   9.045   5.793   5.813 -0.5456 -0.1740  0.4309
  369MOL    H7844974   9.017   5.698   5.860  0.4288 -0.2709  0.8276
  369MOL    H7944975   9.152   5.792   5.832 -0.4672 -0.2601 -0.0038
  369MOL    C8044976   8.964   5.902   5.883  0.2113 -0.5878 -0.9440
  369MOL   Cl8144977   9.033   5.923   6.048 -0.0674  0.0504 -0.3376
  369MOL   Cl8244978   8.803   5.824   5.909  0.0346  0.1106  0.0411
  369MOL    C8344979   8.955   6.041   5.820  0.4231 -0.4296 -0.5918
  369MOL    H8444980   9.049   6.094   5.837 -0.2221  0.3070  0.8026
  369MOL    H8544981   8.940   6.038   5.712 -1.9585  1.3906 -0.3679
  369MOL    C8644982   8.841   6.142   5.857 -0.4368 -0.5972 -0.1398
  369MOL   Cl8744983   8.675   6.081   5.813  0.3184 -0.1813 -0.0860
  369MOL   Cl8844984   8.868   6.282   5.750  0.0180 -0.0645 -0.1645
  369MOL    C8944985   8.852   6.186   6.010  1.0153  0.5639  0.3593
  369MOL    H9044986   8.824   6.094   6.062  0.0975  1.5861  1.6930
  369MOL    H9144987   8.955   6.212   6.035  1.4435 -2.5067  2.0317
  369MOL    C9244988   8.764   6.295   6.076  0.3607 -0.2899 -0.1426
  369MOL   Cl9344989   8.819   6.457   6.034  0.1955 -0.4436  0.1627
  369MOL   Cl9444990   8.794   6.268   6.246  0.0213  0.2757  0.1222
  369MOL    C9544991   8.611   6.281   6.044 -0.2395 -0.8130  0.0882
  369MOL    H9644992   8.603   6.311   5.939  0.9887  0.1484  0.2609
  369MOL    H9744993   8.591   6.174   6.047 -0.6478 -0.7090  1.2301
  369MOL    C9844994   8.500   6.361   6.123 -0.0341  0.3117 -0.6200
  369MOL   Cl9944995   8.542   6.532   6.133 -0.2497 -0.0461 -0.1814
  369MOL  Cl10044996   8.483   6.297   6.288  0.0222  0.4493  0.4007
  369MOL   C10144997   8.360   6.347   6.073 -0.7269 -0.3320  0.0632
  369MOL   H10244998   8.322   6.248   6.101  0.9461 -1.2390 -0.7931
  369MOL   H10344999   8.302   6.426   6.119 -0.5166  0.0429 -0.3142
  369MOL   C10445000   8.332   6.355   5.913 -0.0081 -0.2743 -0.3113
  369MOL  Cl10545001   8.377   6.197   5.846 -0.3127  0.2039  0.3119
  369MOL  Cl10645002   8.432   6.478   5.839  0.0582 -0.2851  0.3688
  369MOL   C10745003   8.173   6.369   5.887 -0.0945 -0.2785  0.1688
  369MOL   H10845004   8.140   6.266   5.885  0.5607 -0.4676 -2.2961
  369MOL   H10945005   8.127   6.426   5.968 -0.4928  1.3219 -1.1400
  369MOL   C11045006   8.126   6.442   5.756  0.0375  0.0597 -0.1726
  369MOL  Cl11145007   7.945   6.421   5.740 -0.0638  0.2279 -0.0983
  369MOL  Cl11245008   8.190   6.371   5.616  0.0377  0.0525  0.1978
  369MOL   C11345009   8.153   6.595   5.759  0.4070 -0.3913  0.3064
  369MOL   H11445010   8.249   6.610   5.711  0.3586 -1.1258 -0.0322
  369MOL   H11545011   8.090   6.635   5.679  1.0600 -0.6091 -0.3225
  369MOL   C11645012   8.137   6.689   5.885  0.3693 -0.1107  0.0534
  369MOL  Cl11745013   8.251   6.667   6.021  0.3185 -0.3710 -0.2257
  369MOL  Cl11845014   7.968   6.665   5.939 -0.2388  0.2642  0.2598
  369MOL   C11945015   8.150   6.840   5.852 -0.6697  1.3763  0.0400
  369MOL   H12045016   8.127   6.895   5.944 -1.8083  0.8596  0.0629
  369MOL   H12145017   8.253   6.864   5.823 -0.3270  0.1961  0.2690
  369MOL   H12245018   8.083   6.886   5.780 -1.6425 -3.1773 -2.0894
  370MOL     C145019   3.283   4.658   8.589  0.0849 -0.2819 -0.6226
  370MOL    Cl245020   3.131   4.609   8.664  0.2000 -0.1466 -0.2085
  370MOL    Cl345021   3.407   4.566   8.675  0.0738  0.6661 -0.0296
  370MOL     C445022   3.279   4.627   8.440 -0.0671 -0.5968 -0.4774
  370MOL     H545023   3.386   4.626   8.418  0.0218 -1.1405 -0.0539
  370MOL     H645024   3.242   4.525   8.429  0.9457 -0.9216 -0.9727
  370MOL     H745025   3.299   4.764   8.611  0.8285 -0.5784  0.2894
  370MOL     C845026   3.209   4.739   8.352  0.0924  0.1388  0.0936
  370MOL    Cl945027   3.294   4.898   8.370 -0.1314 -0.1566 -0.1637
  370MOL   Cl1045028   3.041   4.769   8.395  0.1091  0.3577  0.4360
  370MOL    C1145029   3.217   4.703   8.199  0.2294 -0.2907  0.2278
  370MOL    H1245030   3.164   4.795   8.175  1.0026  0.2071  0.4067
  370MOL    H1345031   3.320   4.710   8.165 -0.3059 -1.3561 -1.6765
  370MOL    C1445032   3.164   4.561   8.149 -0.0692  0.0071 -0.3074
  370MOL   Cl1545033   3.282   4.430   8.186 -0.1324  0.2358  0.4869
  370MOL   Cl1645034   3.173   4.587   7.969 -0.2274 -0.1834  0.4161
  370MOL    C1745035   3.020   4.512   8.191 -0.0076 -0.2302  0.5121
  370MOL    H1845036   3.038   4.476   8.292  1.6178  1.0640  0.7171
  370MOL    H1945037   2.958   4.600   8.207 -0.8903 -0.6627 -0.4903
  370MOL    C2045038   2.942   4.412   8.097 -0.3384  0.1839 -0.1416
  370MOL   Cl2145039   3.047   4.286   8.020  0.0065  0.0275  0.2222
  370MOL   Cl2245040   2.872   4.496   7.953  0.0768  0.0482  0.0541
  370MOL    C2345041   2.834   4.339   8.170  0.0741  0.0023 -0.6853
  370MOL    H2445042   2.778   4.294   8.089  0.9424 -2.1853 -0.0917
  370MOL    H2545043   2.886   4.265   8.230 -0.4308  1.2413  1.3486
  370MOL    C2645044   2.737   4.420   8.271  0.2743  0.0456 -0.1776
  370MOL   Cl2745045   2.675   4.575   8.201 -0.1839  0.3049 -0.0136
  370MOL   Cl2845046   2.805   4.466   8.426 -0.2952  0.1952 -0.4689
  370MOL    C2945047   2.607   4.346   8.314  0.5179  0.3218  0.2551
  370MOL    H3045048   2.556   4.404   8.391  0.4892 -1.4892  1.6363
  370MOL    H3145049   2.541   4.357   8.227 -1.3722 -1.5561  1.3916
  370MOL    C3245050   2.596   4.193   8.344 -0.4616 -0.3392  0.3460
  370MOL   Cl3345051   2.702   4.158   8.481 -0.2670  0.0119  0.2180
  370MOL   Cl3445052   2.628   4.084   8.211 -0.2340 -0.1829  0.1818
  370MOL    C3545053   2.445   4.168   8.379  0.2185 -1.0101 -0.4124
  370MOL    H3645054   2.423   4.225   8.468  1.7104  0.9046 -1.2525
  370MOL    H3745055   2.383   4.208   8.298  0.6957  1.3581  0.3632
  370MOL    C3845056   2.378   4.023   8.408 -0.3315 -0.2742 -0.2289
  370MOL   Cl3945057   2.487   3.898   8.471 -0.4442 -0.0769 -0.1415
  370MOL   Cl4045058   2.334   3.955   8.252  0.0481 -0.2547 -0.2441
  370MOL    C4145059   2.255   4.030   8.494  0.7753 -0.2916 -0.1341
  370MOL    H4245060   2.216   4.130   8.479  1.2438  0.1434  1.4217
  370MOL    H4345061   2.174   3.963   8.465  1.4504 -1.7459  1.2115
  370MOL    C4445062   2.268   4.016   8.652 -0.6858 -0.3446  0.5458
  370MOL   Cl4545063   2.413   4.095   8.713  0.4229  0.0527 -0.0308
  370MOL   Cl4645064   2.291   3.841   8.705 -0.1735 -0.2107 -0.2515
  370MOL    C4745065   2.158   4.082   8.749 -0.1476 -0.2700  0.1906
  370MOL    H4845066   2.201   4.072   8.848  2.2941 -1.9598 -1.0053
  370MOL    H4945067   2.165   4.191   8.746 -0.3055 -0.2620  0.0853
  370MOL    C5045068   2.008   4.047   8.749 -0.4948  0.3363  0.0367
  370MOL   Cl5145069   1.985   3.870   8.779 -0.2645  0.0349  0.0085
  370MOL   Cl5245070   1.939   4.089   8.594 -0.3137  0.1484 -0.0813
  370MOL    C5345071   1.932   4.129   8.858 -0.2677 -0.5630  0.2584
  370MOL    H5445072   1.953   4.232   8.830  1.0014 -0.4151  1.6827
  370MOL    H5545073   1.827   4.100   8.857 -0.5230  0.3950 -1.6536
  370MOL    C5645074   1.973   4.130   9.008  0.3024 -0.2337  0.2835
  370MOL   Cl5745075   2.104   4.249   9.030  0.3494 -0.0138  0.2778
  370MOL   Cl5845076   2.026   3.968   9.076 -0.0117 -0.3953  0.3202
  370MOL    C5945077   1.853   4.176   9.097  0.4349  0.1915 -0.3065
  370MOL    H6045078   1.785   4.091   9.091  0.5402  0.1166 -0.4303
  370MOL    H6145079   1.895   4.177   0.017 -2.1162 -0.6939  0.8145
  370MOL    C6245080   1.763   4.303   9.074  0.7099 -0.4233 -0.0323
  370MOL   Cl6345081   1.662   4.286   8.932  0.1503  0.0245  0.1445
  370MOL   Cl6445082   1.870   4.443   9.060 -0.0378  0.5037  0.0513
  370MOL    C6545083   1.670   4.319   0.016 -0.1550 -0.0666  0.1139
  370MOL    H6645084   1.603   4.233   0.024 -0.5929  0.1007 -1.5666
  370MOL    H6745085   1.729   4.300   0.106 -0.1968 -0.8220 -0.0115
  370MOL    C6845086   1.577   4.442   0.046  0.3555  0.5713 -0.1512
  370MOL   Cl6945087   1.476   4.482   9.080  0.1965 -0.2202  0.3366
  370MOL   Cl7045088   1.670   4.587   0.075 -0.0575  0.0020  0.0383
  370MOL    C7145089   1.475   4.438   0.171  1.1069 -0.5843 -0.2734
  370MOL    H7245090   1.536   4.466   0.256  1.1904  2.4358 -1.2650
  370MOL    H7345091   1.405   4.517   0.145 -1.0843 -2.4738 -0.2417
  370MOL    C7445092   1.406   4.304   0.211  0.2753  0.2028  0.7461
  370MOL   Cl7545093   1.531   4.182   0.251  0.2742  0.2546 -0.0097
  370MOL   Cl7645094   1.313   4.237   0.074  0.1967 -0.1031 -0.1753
  370MOL    C7745095   1.308   4.321   0.333  0.3333  0.1243 -0.1469
  370MOL    H7845096   1.256   4.229   0.359  1.9185 -0.5372  0.7522
  370MOL    H7945097   1.378   4.338   0.416 -0.4152  2.1795  0.0994
  370MOL    C8045098   1.201   4.432   0.351 -0.1424 -0.6764 -0.9236
  370MOL   Cl8145099   1.080   4.435   0.217 -0.1980 -0.5045 -0.2195
  370MOL   Cl8245100   1.271   4.598   0.378  0.0654 -0.2903  0.1331
  370MOL    C8345101   1.102   4.404   0.478 -0.2703  0.4097  0.2650
  370MOL    H8445102   1.044   4.496   0.491 -1.0095 -0.0292  0.0819
  370MOL    H8545103   1.029   4.333   0.441 -0.2106 -0.2033  1.3140
  370MOL    C8645104   1.156   4.367   0.622  0.2428 -0.2268 -0.1354
  370MOL   Cl8745105   1.301   4.455   0.664  0.1976  0.2450  0.1952
  370MOL   Cl8845106   1.204   4.191   0.616  0.1523 -0.3341  0.1191
  370MOL    C8945107   1.061   4.392   0.739  0.3297 -0.1884  0.3035
  370MOL    H9045108   1.112   4.374   0.834 -1.3521  2.6513  1.8172
  370MOL    H9145109   1.051   4.500   0.738  0.6690 -0.1657 -1.1980
  370MOL    C9245110   0.911   4.336   0.753 -0.0947 -0.5141 -0.1392
  370MOL   Cl9345111   0.907   4.155   0.788 -0.3485  0.2501  0.3087
  370MOL   Cl9445112   0.813   4.357   0.608 -0.0775  0.0236  0.3761
  370MOL    C9545113   0.835   4.402   0.870  0.1703  0.9846  0.6185
  370MOL    H9645114   0.732   4.371   0.850  0.1751  1.1265  0.3635
  370MOL    H9745115   0.864   4.352   0.962  2.4212  0.7490 -0.2047
  370MOL    C9845116   0.838   4.561   0.882  1.2313  0.2415 -0.2736
  370MOL   Cl9945117   0.826   4.646   0.724 -0.0281 -0.1414  0.1445
  370MOL  Cl10045118   0.996   4.607   0.961  0.4530  0.1657 -0.2423
  370MOL   C10145119   0.729   4.626   0.971 -0.3643  0.2236  0.5263
  370MOL   H10245120   0.771   4.634   1.071 -0.6194  0.0430  0.6500
  370MOL   H10345121   0.715   4.729   0.940 -1.4352  0.7628  2.6656
  370MOL   C10445122   0.583   4.578   0.974  0.0430  0.0244  0.0418
  370MOL  Cl10545123   0.579   4.425   1.067 -0.0472  0.3514 -0.0142
  370MOL  Cl10645124   0.535   4.547   0.811 -0.1566 -0.2096 -0.2330
  370MOL   C10745125   0.478   4.684   1.014  0.2613 -0.0178  0.5075
  370MOL   H10845126   0.506   4.774   0.960 -1.8620 -0.3133 -1.1443
  370MOL   H10945127   0.379   4.658   0.977  0.4376 -0.1743  0.1467
  370MOL   C11045128   0.465   4.736   1.159  0.1283 -0.1699  0.1658
  370MOL  Cl11145129   0.630   4.818   1.203  0.5982  0.5352 -0.2573
  370MOL  Cl11245130   0.434   4.608   1.271 -0.1056 -0.1101  0.4073
  370MOL   C11345131   0.345   4.837   1.176 -0.0910  0.0735 -0.2769
  370MOL   H11445132   0.252   4.780   1.182 -2.3492  3.6954  0.5507
  370MOL   H11545133   0.355   4.880   1.276  1.8254 -2.4918  0.6893
  370MOL   C11645134   0.323   4.959   1.075 -0.0586 -0.1649 -0.6805
  370MOL  Cl11745135   0.181   5.050   1.131  0.0282  0.1276  0.0526
  370MOL  Cl11845136   0.293   4.913   0.903 -0.1915 -0.0363 -0.2113
  370MOL   C11945137   0.433   5.059   1.078  0.4622 -0.6230 -0.0939
  370MOL   H12045138   0.392   5.152   1.039  1.6130 -1.0887 -2.5873
  370MOL   H12145139   0.477   5.087   1.174  0.5182 -1.7473  0.2098
  370MOL   H12245140   0.515   5.024   1.015 -0.3417 -0.4085 -1.2791
  371MOL     C145141   2.133   4.193   2.967 -0.2970 -0.1302  0.0389
  371MOL    Cl245142   2.253   4.282   2.863 -0.0774  0.3938  0.1130
  371MOL    Cl345143   2.083   4.289   3.103 -0.0014 -0.2801  0.1541
  371MOL     C445144   2.014   4.148   2.888  0.6895 -0.8553 -0.2901
  371MOL     H545145   1.940   4.228   2.898  0.2223 -1.1959 -0.9799
  371MOL     H645146   2.040   4.153   2.782  0.7446 -0.7355 -0.2715
  371MOL     H745147   2.193   4.119   3.020  0.6476  1.2444  0.9287
  371MOL     C845148   1.950   4.012   2.928 -0.4570 -0.3316 -0.7574
  371MOL    Cl945149   1.885   4.027   3.097 -0.3856  0.1309  0.2437
  371MOL   Cl1045150   2.076   3.887   2.934 -0.3365 -0.1923  0.1202
  371MOL    C1145151   1.843   3.971   2.832 -0.0248  0.1050  0.2511
  371MOL    H1245152   1.753   4.030   2.848 -0.2632  0.4959 -2.3175
  371MOL    H1345153   1.872   4.009   2.734  1.8008 -1.4182  0.1826
  371MOL    C1445154   1.775   3.828   2.832 -0.0969  0.3907  0.7252
  371MOL   Cl1545155   1.893   3.699   2.782 -0.3241  0.3078 -0.4089
  371MOL   Cl1645156   1.667   3.826   2.698 -0.6903 -0.1420  0.0746
  371MOL    C1745157   1.707   3.786   2.963 -0.4513 -0.0914 -0.1700
  371MOL    H1845158   1.789   3.763   3.031 -2.1368 -2.0762  1.2115
  371MOL    H1945159   1.663   3.877   3.004  0.3569  0.1323  0.2085
  371MOL    C2045160   1.599   3.677   2.970  0.1200 -0.7886 -0.8722
  371MOL   Cl2145161   1.637   3.542   2.861  0.3171 -0.3685 -0.0245
  371MOL   Cl2245162   1.446   3.751   2.918  0.0479 -0.4750  0.0501
  371MOL    C2345163   1.569   3.629   3.116 -0.0304 -0.5098 -0.4953
  371MOL    H2445164   1.516   3.707   3.171  0.6065  0.1401 -0.8011
  371MOL    H2545165   1.502   3.543   3.105 -2.2092  1.1690 -0.7333
  371MOL    C2645166   1.680   3.588   3.218  0.1874 -0.5470  0.5430
  371MOL   Cl2745167   1.786   3.719   3.287 -0.3097 -0.0136  0.1600
  371MOL   Cl2845168   1.789   3.469   3.136 -0.1828  0.1484  0.2839
  371MOL    C2945169   1.637   3.502   3.347  0.2455  0.6992 -0.2668
  371MOL    H3045170   1.575   3.421   3.310 -0.5080  0.8602  0.6352
  371MOL    H3145171   1.725   3.447   3.381  0.5825 -0.3183 -2.7224
  371MOL    C3245172   1.550   3.549   3.463  0.9249 -0.6222 -0.0157
  371MOL   Cl3345173   1.537   3.414   3.575  0.1026 -0.0282  0.1005
  371MOL   Cl3445174   1.384   3.565   3.395  0.3507  0.2132  0.1858
  371MOL    C3545175   1.605   3.677   3.534  0.5846  0.2582 -0.7921
  371MOL    H3645176   1.709   3.656   3.556  0.3460 -1.1937 -0.9512
  371MOL    H3745177   1.600   3.756   3.460 -2.3537  1.7254  0.8844
  371MOL    C3845178   1.539   3.725   3.668 -0.1285  0.4657 -0.0648
  371MOL   Cl3945179   1.611   3.635   3.807  0.3492  0.2835  0.0793
  371MOL   Cl4045180   1.374   3.680   3.670 -0.0790  0.1573 -0.0798
  371MOL    C4145181   1.535   3.879   3.695  0.0864  0.0202  0.1234
  371MOL    H4245182   1.507   3.923   3.600  0.1399 -1.6354 -0.6836
  371MOL    H4345183   1.449   3.897   3.760 -1.0306  0.4093 -1.4432
  371MOL    C4445184   1.660   3.955   3.746 -0.2750  0.3802 -0.5973
  371MOL   Cl4545185   1.799   3.906   3.650  0.2171 -0.0322 -0.2144
  371MOL   Cl4645186   1.702   3.913   3.914 -0.2065 -0.0247 -0.4965
  371MOL    C4745187   1.629   4.111   3.736 -0.3853 -0.3410  0.3858
  371MOL    H4845188   1.564   4.126   3.822 -1.2682  0.4662 -0.4074
  371MOL    H4945189   1.720   4.163   3.765 -0.4596  0.6485 -1.0631
  371MOL    C5045190   1.579   4.183   3.602  0.2178  0.2359  0.0515
  371MOL   Cl5145191   1.397   4.166   3.598 -0.0914  0.2071 -0.1491
  371MOL   Cl5245192   1.643   4.095   3.457 -0.1948  0.2647  0.1717
  371MOL    C5345193   1.605   4.331   3.585 -0.3018  0.2257 -0.8783
  371MOL    H5445194   1.709   4.336   3.554 -0.2505  1.0982 -0.5581
  371MOL    H5545195   1.540   4.373   3.509 -2.5058 -0.9487  0.3099
  371MOL    C5645196   1.589   4.427   3.703  0.3811 -0.0460 -0.6210
  371MOL   Cl5745197   1.717   4.400   3.822 -0.0017  0.4382 -0.2227
  371MOL   Cl5845198   1.434   4.410   3.796  0.0847 -0.0933 -0.0137
  371MOL    C5945199   1.600   4.582   3.660  0.0807 -0.3447  0.0142
  371MOL    H6045200   1.506   4.605   3.610 -0.1768 -0.0027  0.6459
  371MOL    H6145201   1.604   4.634   3.755  0.0598 -0.1590 -0.0874
  371MOL    C6245202   1.712   4.635   3.557  0.1887  0.1087 -0.0992
  371MOL   Cl6345203   1.667   4.805   3.520 -0.0165 -0.1971  0.2713
  371MOL   Cl6445204   1.685   4.549   3.405  0.0579  0.1623  0.1164
  371MOL    C6545205   1.862   4.627   3.591 -0.3730  0.6409 -0.2691
  371MOL    H6645206   1.876   4.521   3.614  2.1285  0.6257 -1.6891
  371MOL    H6745207   1.930   4.636   3.506  1.2511 -0.6171  0.8593
  371MOL    C6845208   1.925   4.730   3.685  0.7021 -0.3009 -0.6199
  371MOL   Cl6945209   1.807   4.791   3.813  0.1479  0.1637 -0.0780
  371MOL   Cl7045210   1.977   4.867   3.580 -0.0109  0.2999  0.0360
  371MOL    C7145211   2.052   4.693   3.763  0.1385  0.4699 -0.1326
  371MOL    H7245212   2.104   4.786   3.788  0.9576 -0.5060  1.8879
  371MOL    H7345213   2.028   4.669   3.867  2.4965 -1.0805  0.0880
  371MOL    C7445214   2.148   4.579   3.709 -0.4240 -0.1321 -0.5439
  371MOL   Cl7545215   2.185   4.597   3.536 -0.2904  0.3178  0.4873
  371MOL   Cl7645216   2.079   4.422   3.724  0.0670  0.2072  0.0908
  371MOL    C7745217   2.284   4.568   3.787 -0.3789 -0.3495 -0.3007
  371MOL    H7845218   2.251   4.517   3.878 -0.1476  0.6581  0.3587
  371MOL    H7945219   2.349   4.493   3.744  0.8960 -0.2633  1.4244
  371MOL    C8045220   2.372   4.698   3.827 -0.2637  0.2475  0.7096
  371MOL   Cl8145221   2.303   4.764   3.985  0.1759 -0.0167 -0.0041
  371MOL   Cl8245222   2.360   4.821   3.704 -0.3657  0.2590  0.0481
  371MOL    C8345223   2.520   4.673   3.863 -0.7549  0.1976 -0.3991
  371MOL    H8445224   2.561   4.770   3.889 -1.3589 -0.3012  2.6903
  371MOL    H8545225   2.509   4.615   3.955  1.0735  2.4229  1.2545
  371MOL    C8645226   2.623   4.598   3.777 -0.5894 -0.1734  0.1376
  371MOL   Cl8745227   2.588   4.636   3.610  0.1419 -0.8660  0.3495
  371MOL   Cl8845228   2.602   4.421   3.788 -0.1239  0.0094  0.0208
  371MOL    C8945229   2.765   4.653   3.805  0.3536  0.2749  0.2659
  371MOL    H9045230   2.832   4.599   3.739 -2.4717 -0.4512 -2.1395
  371MOL    H9145231   2.765   4.760   3.784 -0.3518 -0.2959 -2.9096
  371MOL    C9245232   2.836   4.630   3.939 -0.0582 -0.1640  0.3670
  371MOL   Cl9345233   2.850   4.456   3.980  0.6263  0.1775  0.3178
  371MOL   Cl9445234   2.753   4.718   4.067  0.3673  0.1364 -0.3668
  371MOL    C9545235   2.984   4.684   3.929 -0.9799  0.1122 -0.3236
  371MOL    H9645236   3.015   4.679   4.033 -2.6755 -0.2408  0.1913
  371MOL    H9745237   3.038   4.612   3.868 -0.0455 -0.3646  1.0565
  371MOL    C9845238   3.039   4.813   3.859  0.5352 -0.7235 -0.0710
  371MOL   Cl9945239   2.936   4.954   3.901  0.1585  0.5045 -0.3257
  371MOL  Cl10045240   3.026   4.770   3.680 -0.1916  0.1058  0.2663
  371MOL   C10145241   3.191   4.840   3.889 -0.4446  0.1497  0.3413
  371MOL   H10245242   3.210   4.809   3.992 -0.8832  1.0325  0.6963
  371MOL   H10345243   3.244   4.775   3.819 -0.7497  1.0002 -0.6869
  371MOL   C10445244   3.247   4.981   3.890  0.0717  0.1087  0.1799
  371MOL  Cl10545245   3.422   4.954   3.881 -0.1071  0.0543 -0.1640
  371MOL  Cl10645246   3.205   5.042   4.054 -0.0428  0.1095  0.6228
  371MOL   C10745247   3.195   5.061   3.771 -0.1011 -0.7209 -0.0692
  371MOL   H10845248   3.250   5.032   3.681  1.6742  0.6063  0.5518
  371MOL   H10945249   3.095   5.034   3.738 -0.4688 -1.5037  1.6609
  371MOL   C11045250   3.189   5.218   3.771  0.5908  0.1330  0.4945
  371MOL  Cl11145251   3.351   5.282   3.820 -0.1616  0.0872 -0.2616
  371MOL  Cl11245252   3.063   5.282   3.881 -0.0086  0.1930  0.2256
  371MOL   C11345253   3.166   5.274   3.629  0.3251  0.7049  0.2998
  371MOL   H11445254   3.170   5.383   3.640  1.3348  0.6814  0.2265
  371MOL   H11545255   3.260   5.270   3.573 -1.4042 -2.3719 -2.5680
  371MOL   C11645256   3.047   5.226   3.541 -0.1317  0.0786  0.0444
  371MOL  Cl11745257   3.070   5.070   3.461 -0.1792 -0.1102 -0.0048
  371MOL  Cl11845258   3.055   5.339   3.407 -0.3013 -0.1990 -0.4360
  371MOL   C11945259   2.905   5.235   3.611 -0.5994 -0.0939 -0.7994
  371MOL   H12045260   2.897   5.163   3.692  1.5113  0.7713  0.2242
  371MOL   H12145261   2.896   5.341   3.636 -1.5272 -0.8153  2.0910
  371MOL   H12245262   2.831   5.215   3.534 -1.0473 -0.6000 -0.2384
  372MOL     C145263   7.435   8.420   0.313 -0.5594 -0.0519  0.5953
  372MOL    Cl245264   7.434   8.579   0.226 -0.2357  0.1111  0.0689
  372MOL    Cl345265   7.327   8.431   0.452 -0.0260  0.3723  0.0120
  372MOL     C445266   7.399   8.306   0.214  0.9886 -0.2431 -0.6948
  372MOL     H545267   7.347   8.222   0.261 -0.7857  1.7373  1.0046
  372MOL     H645268   7.313   8.333   0.152 -0.5445  1.0258  1.8794
  372MOL     H745269   7.532   8.400   0.359  0.2192 -2.3574 -1.8979
  372MOL     C845270   7.508   8.252   0.122  0.7226 -0.3349 -0.2092
  372MOL    Cl945271   7.419   8.143   0.017  0.0864  0.0476 -0.3277
  372MOL   Cl1045272   7.625   8.163   0.229  0.2046 -0.0959 -0.1508
  372MOL    C1145273   7.580   8.358   0.040  0.2558  0.4604 -0.3614
  372MOL    H1245274   7.503   8.424   0.000 -0.7591 -0.5982 -0.1557
  372MOL    H1345275   7.646   8.408   0.111 -0.6912 -3.2297  3.3157
  372MOL    C1445276   7.665   8.314   9.097  0.0744  0.0789 -0.4967
  372MOL   Cl1545277   7.561   8.284   8.955  0.1207 -0.4573 -0.5303
  372MOL   Cl1645278   7.754   8.168   9.114 -0.1505 -0.1388  0.0429
  372MOL    C1745279   7.770   8.422   9.069  0.8204 -0.1507 -0.1011
  372MOL    H1845280   7.851   8.416   9.142  1.0864 -1.2302 -0.4881
  372MOL    H1945281   7.832   8.387   8.987  0.7788  0.8029 -0.5516
  372MOL    C2045282   7.746   8.570   9.041  0.6019  0.3947  0.1159
  372MOL   Cl2145283   7.655   8.577   8.886  0.1257 -0.0921 -0.3302
  372MOL   Cl2245284   7.904   8.633   8.993  0.0775  0.1300  0.3811
  372MOL    C2345285   7.688   8.665   9.149 -0.4963 -0.1554 -0.3296
  372MOL    H2445286   7.605   8.618   0.022 -1.3544  0.1508 -1.3614
  372MOL    H2545287   7.757   8.665   0.052  0.4920 -2.5476 -1.0988
  372MOL    C2645288   7.639   8.809   9.119 -0.2278  0.4985  0.4164
  372MOL   Cl2745289   7.607   8.877   0.097 -0.0565  0.3070 -0.3440
  372MOL   Cl2845290   7.483   8.790   9.035  0.2386 -0.1259  0.1219
  372MOL    C2945291   7.730   8.903   9.026  0.2314 -0.3945 -0.0339
  372MOL    H3045292   7.835   8.893   9.053  0.2958  0.7046  0.1339
  372MOL    H3145293   7.723   8.854   8.929  0.6360 -0.4161 -0.0506
  372MOL    C3245294   7.698   9.059   9.010  0.0368  0.3841 -0.3220
  372MOL   Cl3345295   7.800   9.110   8.872  0.2489 -0.3721 -0.2074
  372MOL   Cl3445296   7.775   9.130   9.153 -0.0411 -0.0336  0.0357
  372MOL    C3545297   7.552   9.100   8.994 -0.4018  0.2438 -0.0379
  372MOL    H3645298   7.500   9.026   8.933  0.0708  0.1934 -0.3780
  372MOL    H3745299   7.491   9.091   9.084  1.7064 -0.7107  1.3053
  372MOL    C3845300   7.514   0.068   8.932 -0.3599 -0.2875  0.1095
  372MOL   Cl3945301   7.336   0.072   8.926 -0.3156 -0.4991  0.1247
  372MOL   Cl4045302   7.572   0.084   8.763  0.2693  0.2580 -0.0220
  372MOL    C4145303   7.570   0.183   9.014 -0.4200 -0.4635 -0.6400
  372MOL    H4245304   7.573   0.163   9.121  0.6480 -0.2596 -0.6252
  372MOL    H4345305   7.676   0.180   8.990 -0.3129 -1.1344 -0.0925
  372MOL    C4445306   7.508   0.327   8.990 -0.7428 -0.4504  0.0357
  372MOL   Cl4545307   7.376   0.339   9.119 -0.5987  0.0598  0.4228
  372MOL   Cl4645308   7.438   0.367   8.824 -0.1857  0.2752  0.0378
  372MOL    C4745309   7.618   0.442   9.015  0.1981  0.5837  0.2231
  372MOL    H4845310   7.579   0.533   8.968  0.0407  0.1796 -0.4440
  372MOL    H4945311   7.622   0.461   9.122  2.1373 -0.7569  0.4173
  372MOL    C5045312   7.763   0.444   8.952  0.2001  0.3644  0.5618
  372MOL   Cl5145313   7.751   0.381   8.786  0.1566  0.1026 -0.0840
  372MOL   Cl5245314   7.870   0.332   9.043  0.0149 -0.1876  0.0093
  372MOL    C5345315   7.822   0.591   8.961  0.2259  0.6704  0.4345
  372MOL    H5445316   7.765   0.653   8.891 -0.7095  0.0170  0.6108
  372MOL    H5545317   7.799   0.626   9.061 -1.0724  1.2131 -0.0354
  372MOL    C5645318   7.973   0.621   8.943 -0.1710 -0.0833  0.2558
  372MOL   Cl5745319   8.060   0.579   9.096 -0.5542 -0.1113  0.4645
  372MOL   Cl5845320   7.991   0.797   8.938  0.0486 -0.0144  0.6409
  372MOL    C5945321   8.029   0.550   8.816  0.2931  0.7258  0.0996
  372MOL    H6045322   8.045   0.443   8.828 -3.2746 -0.2187 -2.6715
  372MOL    H6145323   7.962   0.547   8.730 -0.6742  2.5075  0.7623
  372MOL    C6245324   8.161   0.603   8.757 -0.6283  0.1868  0.0614
  372MOL   Cl6345325   8.130   0.761   8.666 -0.1773  0.2007 -0.2170
  372MOL   Cl6445326   8.199   0.471   8.644  0.3804 -0.1301 -0.1442
  372MOL    C6545327   8.274   0.625   8.864  0.5620 -0.5861 -0.2195
  372MOL    H6645328   8.234   0.690   8.942  1.6331 -0.1983  0.0215
  372MOL    H6745329   8.294   0.526   8.904  0.0825 -0.2187  0.9360
  372MOL    C6845330   8.416   0.686   8.835 -0.6531  0.7047 -0.8663
  372MOL   Cl6945331   8.487   0.693   9.003 -0.1421  0.0196  0.0982
  372MOL   Cl7045332   8.406   0.860   8.790 -0.5520  0.0106 -0.0541
  372MOL    C7145333   8.502   0.606   8.737 -0.0585  0.1896 -0.4452
  372MOL    H7245334   8.469   0.503   8.746 -0.6941  0.4103 -0.2399
  372MOL    H7345335   8.466   0.633   8.638  0.7377  1.1881 -0.4711
  372MOL    C7445336   8.664   0.607   8.743  0.3740  0.2726 -0.5279
  372MOL   Cl7545337   8.716   0.774   8.753  0.0695 -0.0710 -0.2886
  372MOL   Cl7645338   8.709   0.551   8.582  0.1116 -0.4456  0.7538
  372MOL    C7745339   8.740   0.519   8.854 -0.0280 -0.3850 -0.0544
  372MOL    H7845340   8.845   0.521   8.823  0.3869  0.7592  1.3300
  372MOL    H7945341   8.762   0.579   8.943  4.2666  0.7609 -1.7318
  372MOL    C8045342   8.692   0.377   8.892  1.0840  0.5348 -0.1642
  372MOL   Cl8145343   8.662   0.284   8.736 -0.3706 -0.2728  0.3513
  372MOL   Cl8245344   8.542   0.366   8.984  0.0363  0.2364  0.3804
  372MOL    C8345345   8.795   0.289   8.974  0.3299 -0.1357 -0.4436
  372MOL    H8445346   8.747   0.193   8.997  0.6347 -0.4948 -1.2834
  372MOL    H8545347   8.872   0.259   8.903 -0.3501 -2.0736 -0.3961
  372MOL    C8645348   8.866   0.344   9.103  0.0837  0.6231 -0.1231
  372MOL   Cl8745349   8.748   0.418   0.031  0.0283  0.3444 -0.2356
  372MOL   Cl8845350   8.989   0.467   9.054  0.0047 -0.0383  0.0283
  372MOL    C8945351   8.937   0.240   0.011  0.4847 -0.1501 -0.6583
  372MOL    H9045352   8.983   0.296   0.092 -1.7928  1.6254 -0.5271
  372MOL    H9145353   8.862   0.179   0.062 -2.0104  3.8076  0.7004
  372MOL    C9245354   9.047   0.142   9.134  0.2855 -0.3579  0.1373
  372MOL   Cl9345355   9.177   0.224   9.044 -0.5229  0.0514  0.5421
  372MOL   Cl9445356   8.969   0.037   9.022  0.2293  0.1909 -0.0354
  372MOL    C9545357   9.100   0.058   0.076 -0.6955 -0.2588 -0.4487
  372MOL    H9645358   9.094   0.120   0.165 -1.3291  1.5868 -1.7372
  372MOL    H9745359   9.028   9.161   0.102  0.9245 -1.5358  0.3592
  372MOL    C9845360   0.059   9.175   0.065  0.2001  0.7902 -0.2803
  372MOL   Cl9945361   0.083   9.101   9.084 -0.2145 -0.2845  0.2119
  372MOL  Cl10045362   0.080   9.048   0.185 -0.0261 -0.0380 -0.3723
  372MOL   C10145363   0.185   0.086   0.086 -0.2381 -0.2607  1.3267
  372MOL   H10245364   0.269   0.017   0.094  1.6149  1.6875 -0.5495
  372MOL   H10345365   0.206   0.138   9.173 -2.0556 -0.3337  0.8569
  372MOL   C10445366   0.200   0.192   0.195  0.8052 -0.5722  0.2459
  372MOL  Cl10545367   0.172   0.123   0.362  0.3234 -0.0642 -0.0786
  372MOL  Cl10645368   0.074   0.318   0.182  0.1296  0.1125  0.2575
  372MOL   C10745369   0.344   0.255   0.204 -0.7068  0.8656  0.3848
  372MOL   H10845370   0.343   0.344   0.267 -1.7923  1.1182  0.0361
  372MOL   H10945371   0.418   0.187   0.244  1.4320  3.1357  0.4090
  372MOL   C11045372   0.420   0.312   0.088  0.1903 -0.4820  0.0334
  372MOL  Cl11145373   0.476   0.186   9.151 -0.1444 -0.1919  0.0889
  372MOL  Cl11245374   0.578   0.352   0.161  0.2758 -0.2246  0.4324
  372MOL   C11345375   0.345   0.428   0.020  0.0006  0.2760 -0.4428
  372MOL   H11445376   0.244   0.390   0.007 -0.2135  0.1067  1.5410
  372MOL   H11545377   0.337   0.512   0.089  0.8937 -0.0102  0.0272
  372MOL   C11645378   0.395   0.483   9.064 -0.0264  0.4239 -0.1494
  372MOL  Cl11745379   0.317   0.642   9.039  0.1305  0.1712  0.3028
  372MOL  Cl11845380   0.337   0.376   8.926 -0.1741  0.6834  0.5392
  372MOL   C11945381   0.544   0.510   9.044 -0.1812 -0.0848  0.2713
  372MOL   H12045382   0.607   0.421   9.044 -0.0456 -0.0472 -2.4237
  372MOL   H12145383   0.549   0.563   8.949  0.1709  1.8064  1.3417
  372MOL   H12245384   0.589   0.580   9.113 -1.5777  0.0414  1.0612
  373MOL     C145385   4.041   5.584   7.303  0.7406 -0.3414 -0.0670
  373MOL    Cl245386   3.954   5.668   7.175  0.4363  0.4074  0.1042
  373MOL    Cl345387   4.089   5.420   7.241  0.0607  0.0422 -0.0986
  373MOL     C445388   4.158   5.671   7.344 -0.3168 -0.0589 -0.1138
  373MOL     H545389   4.230   5.679   7.262 -0.2725  0.2278 -0.0475
  373MOL     H645390   4.114   5.770   7.354 -0.9378 -0.3829  0.3741
  373MOL     H745391   3.959   5.575   7.375 -0.6379  1.9892 -1.2729
  373MOL     C845392   4.232   5.619   7.482 -0.3115  0.0405  0.3316
  373MOL    Cl945393   4.371   5.516   7.442  0.4359  0.1627 -0.3267
  373MOL   Cl1045394   4.121   5.517   7.578 -0.0759  0.4997  0.0817
  373MOL    C1145395   4.266   5.730   7.583  0.3504  0.1160  0.9921
  373MOL    H1245396   4.169   5.780   7.590 -0.3461 -0.9973 -0.3987
  373MOL    H1345397   4.293   5.675   7.673 -2.5456  0.2591  2.0182
  373MOL    C1445398   4.382   5.840   7.550  0.6204  0.1464 -0.5796
  373MOL   Cl1545399   4.379   5.899   7.382 -0.4111 -0.0522  0.1346
  373MOL   Cl1645400   4.543   5.770   7.577 -0.0019  0.0352 -0.0014
  373MOL    C1745401   4.378   5.964   7.647  0.6696 -0.1279 -0.2815
  373MOL    H1845402   4.422   5.935   7.742 -2.7874 -0.6935  1.2097
  373MOL    H1945403   4.454   6.022   7.595 -0.5425  1.4780 -0.2986
  373MOL    C2045404   4.255   6.053   7.673  0.7015  0.5819 -0.7082
  373MOL   Cl2145405   4.307   6.192   7.761  0.4966 -0.3257 -0.3194
  373MOL   Cl2245406   4.143   5.968   7.773 -0.1621  0.1695  0.0692
  373MOL    C2345407   4.182   6.100   7.539 -0.5883  0.2484  0.0960
  373MOL    H2445408   4.249   6.158   7.475  0.1394 -1.3778 -0.6387
  373MOL    H2545409   4.175   6.013   7.475  0.9304 -0.1188  0.4120
  373MOL    C2645410   4.044   6.172   7.541 -0.6930  0.1348  0.1049
  373MOL   Cl2745411   3.912   6.050   7.571 -0.4933  0.1218 -0.1832
  373MOL   Cl2845412   4.021   6.223   7.371 -0.3017  0.0926 -0.2900
  373MOL    C2945413   4.020   6.290   7.640 -0.3395  0.6179 -0.0384
  373MOL    H3045414   3.911   6.294   7.651 -0.4912  1.9971 -1.8269
  373MOL    H3145415   4.051   6.270   7.743 -1.4272 -2.2848 -0.2409
  373MOL    C3245416   4.074   6.435   7.614  0.5870 -0.1229  0.2415
  373MOL   Cl3345417   3.983   6.518   7.479 -0.2010 -0.2969  0.1216
  373MOL   Cl3445418   4.241   6.433   7.554  0.0853  0.1941  0.3764
  373MOL    C3545419   4.076   6.534   7.737 -0.6379  0.2604  0.8381
  373MOL    H3645420   4.153   6.485   7.797  0.4290  0.6920 -0.1479
  373MOL    H3745421   4.116   6.630   7.705 -2.4044  1.0868  1.0806
  373MOL    C3845422   3.943   6.555   7.820 -0.5319  0.3531  0.4259
  373MOL   Cl3945423   3.916   6.415   7.928 -0.0779  0.1522  0.1536
  373MOL   Cl4045424   3.786   6.571   7.724 -0.2847  0.1729  0.2131
  373MOL    C4145425   3.961   6.687   7.911 -0.1887 -0.0979 -0.1324
  373MOL    H4245426   3.976   6.771   7.843 -1.1476  0.4519  0.3239
  373MOL    H4345427   3.864   6.702   7.958 -0.2281  0.0281 -0.2552
  373MOL    C4445428   4.055   6.700   8.041  0.4046  0.1879  0.3633
  373MOL   Cl4545429   4.229   6.662   8.009 -0.1834 -0.1403  0.1508
  373MOL   Cl4645430   3.998   6.585   8.169  0.1988 -0.1180 -0.1231
  373MOL    C4745431   4.045   6.837   8.119  0.3210  1.0071  0.5945
  373MOL    H4845432   3.937   6.841   8.133  0.2119 -1.3129  0.7138
  373MOL    H4945433   4.090   6.838   8.218  1.1580  1.4026  0.2196
  373MOL    C5045434   4.071   6.982   8.052 -1.1361  0.1617 -0.2373
  373MOL   Cl5145435   4.041   7.102   8.180 -0.1136 -0.0966 -0.0800
  373MOL   Cl5245436   3.959   7.020   7.923  0.2185 -0.2661  0.4192
  373MOL    C5345437   4.218   6.995   8.010 -0.3209 -0.2116  0.5723
  373MOL    H5445438   4.271   6.952   8.095  1.0904 -1.9816 -1.1397
  373MOL    H5545439   4.229   6.929   7.924 -1.6291  1.7297 -1.1250
  373MOL    C5645440   4.293   7.128   7.965  0.0292  0.9803 -0.0430
  373MOL   Cl5745441   4.269   7.265   8.079  0.5482  0.2439  0.1828
  373MOL   Cl5845442   4.248   7.172   7.795  0.0384 -0.0182 -0.1527
  373MOL    C5945443   4.445   7.107   7.955 -0.4048  0.2451  0.3482
  373MOL    H6045444   4.468   7.066   7.857 -1.7136 -0.6297  0.4011
  373MOL    H6145445   4.480   7.209   7.938 -0.0150 -0.1248 -1.1672
  373MOL    C6245446   4.539   7.045   8.058 -0.0519 -0.2813 -0.3098
  373MOL   Cl6345447   4.514   6.874   8.034 -0.2174 -0.1065  0.1149
  373MOL   Cl6445448   4.493   7.078   8.230 -0.2155  0.0944  0.5901
  373MOL    C6545449   4.697   7.076   8.024  0.8070  0.8184  0.0233
  373MOL    H6645450   4.725   7.055   7.921  1.4821  0.2264  0.3228
  373MOL    H6745451   4.710   7.183   8.038 -1.1964  1.5020 -3.0409
  373MOL    C6845452   4.811   7.015   8.116  0.1756  0.5525  0.3673
  373MOL   Cl6945453   4.809   7.099   8.271  0.4879  0.0355  0.6676
  373MOL   Cl7045454   4.963   7.047   8.028 -0.0003  0.3072  0.1745
  373MOL    C7145455   4.795   6.863   8.136 -0.3588  0.1993 -0.0817
  373MOL    H7245456   4.705   6.852   8.197  0.6266  0.9649  1.5280
  373MOL    H7345457   4.780   6.825   8.034 -0.6069 -0.8110  0.3283
  373MOL    C7445458   4.906   6.776   8.203 -0.1577 -0.1252 -0.1787
  373MOL   Cl7545459   5.021   6.732   8.074  0.2800 -0.1301 -0.4358
  373MOL   Cl7645460   4.817   6.621   8.245 -0.2016 -0.1316 -0.1850
  373MOL    C7745461   4.977   6.826   8.333 -0.2180  0.1340 -0.4750
  373MOL    H7845462   4.999   6.928   8.303  0.5444  0.0152 -0.3450
  373MOL    H7945463   4.896   6.825   8.406  1.3370  1.6806  1.3256
  373MOL    C8045464   5.099   6.761   8.406  0.8517 -0.1153 -0.6826
  373MOL   Cl8145465   5.145   6.869   8.541  0.0175 -0.0624 -0.1547
  373MOL   Cl8245466   5.231   6.766   8.296 -0.0523 -0.4540 -0.4455
  373MOL    C8345467   5.072   6.617   8.461  0.4834 -0.7413 -0.7126
  373MOL    H8445468   4.988   6.618   8.530  1.2239 -1.2698  0.2072
  373MOL    H8545469   5.032   6.564   8.375  0.3033  0.6543 -1.4986
  373MOL    C8645470   5.181   6.523   8.519  1.2464 -0.0742  0.2115
  373MOL   Cl8745471   5.277   6.604   8.640  0.3396 -0.0987  0.6498
  373MOL   Cl8845472   5.295   6.466   8.395 -0.0734  0.0781 -0.0447
  373MOL    C8945473   5.121   6.401   8.588  0.7684  0.5620 -0.1386
  373MOL    H9045474   5.198   6.343   8.638  0.1454  0.1102  0.2960
  373MOL    H9145475   5.064   6.436   8.674 -1.2885 -0.8047 -0.9142
  373MOL    C9245476   5.028   6.288   8.521  0.0910  0.7600  0.0793
  373MOL   Cl9345477   5.126   6.170   8.428  0.0471  0.2794  0.3606
  373MOL   Cl9445478   4.907   6.349   8.409 -0.5422  0.2019  0.3967
  373MOL    C9545479   4.943   6.190   8.620  0.0249  0.7075 -0.2076
  373MOL    H9645480   4.893   6.258   8.689  0.9585 -1.8593  3.1869
  373MOL    H9745481   4.877   6.129   8.559  1.7331 -1.4215  0.0055
  373MOL    C9845482   5.015   6.099   8.733  0.1926 -0.4182  0.1601
  373MOL   Cl9945483   5.107   6.199   8.844 -0.2251 -0.1122 -0.1092
  373MOL  Cl10045484   5.117   5.977   8.661 -0.3939 -0.6258 -0.0729
  373MOL   C10145485   4.909   6.027   8.832 -0.2777 -0.3967  0.0831
  373MOL   H10245486   4.969   5.957   8.892 -1.3524 -2.5141 -1.2652
  373MOL   H10345487   4.870   6.100   8.903  0.2708  0.1611 -0.1776
  373MOL   C10445488   4.787   5.947   8.782 -0.6041 -0.6524 -0.3402
  373MOL  Cl10545489   4.838   5.812   8.667  0.1315  0.4093 -0.0637
  373MOL  Cl10645490   4.674   6.052   8.697  0.5047  0.0957  0.6066
  373MOL   C10745491   4.701   5.882   8.890 -0.2445  0.0492 -0.2313
  373MOL   H10845492   4.640   5.959   8.935  2.4323  1.7301  0.6591
  373MOL   H10945493   4.636   5.807   8.845 -0.1639 -0.3727  0.3463
  373MOL   C11045494   4.765   5.819   9.021 -0.1401 -0.0686  0.0897
  373MOL  Cl11145495   4.830   5.947   9.132  0.0169  0.3563 -0.1014
  373MOL  Cl11245496   4.891   5.708   8.978 -0.1642  0.0806  0.3566
  373MOL   C11345497   4.660   5.728   9.089 -0.2974 -0.4832 -0.1237
  373MOL   H11445498   4.577   5.794   9.115  0.5140 -0.1625  1.7765
  373MOL   H11545499   4.623   5.660   9.013  0.8318 -1.3499  0.0914
  373MOL   C11645500   4.683   5.660   0.042 -0.2271  0.3604  0.2438
  373MOL  Cl11745501   4.780   5.516   0.016 -0.3773  0.1173 -0.0661
  373MOL  Cl11845502   4.509   5.615   0.089  0.2873  0.1586  0.0569
  373MOL   C11945503   4.747   5.733   0.161  0.0208 -0.4012 -0.7418
  373MOL   H12045504   4.854   5.749   0.149  0.0144  0.8000  0.6482
  373MOL   H12145505   4.696   5.818   0.206  0.6824 -1.0203  1.2148
  373MOL   H12245506   4.735   5.664   0.244 -2.8689  1.1074  0.1684
  374MOL     C145507   3.940   6.716   0.320 -0.5134 -0.7922 -0.1419
  374MOL    Cl245508   4.053   6.779   0.200  0.0504 -0.4169 -0.1993
  374MOL    Cl345509   3.880   6.856   0.415  0.3559 -0.0804 -0.4443
  374MOL     C445510   3.840   6.616   0.261  0.0076  0.6361  0.4031
  374MOL     H545511   3.759   6.682   0.227  0.6898  1.1046 -0.3220
  374MOL     H645512   3.889   6.560   0.181  2.3640 -0.2528  2.4099
  374MOL     H745513   4.000   6.668   0.397 -0.4133  1.2949  1.1310
  374MOL     C845514   3.782   6.505   0.361 -0.2035 -0.3768 -0.0370
  374MOL    Cl945515   3.725   6.585   0.513  0.1061  0.3542 -0.4553
  374MOL   Cl1045516   3.933   6.415   0.409  0.3425 -0.0486  0.4218
  374MOL    C1145517   3.675   6.402   0.318  0.6018  0.0633 -0.0343
  374MOL    H1245518   3.711   6.343   0.233  2.4863  1.6644 -0.3801
  374MOL    H1345519   3.685   6.320   0.390  2.5023 -0.7887 -1.2275
  374MOL    C1445520   3.522   6.448   0.309 -0.1735  0.3326  0.3742
  374MOL   Cl1545521   3.520   6.610   0.233  0.3532  0.2490 -0.7268
  374MOL   Cl1645522   3.445   6.453   0.470  0.3880 -0.4595 -0.3720
  374MOL    C1745523   3.438   6.339   0.231 -1.1395 -0.3123 -0.4931
  374MOL    H1845524   3.498   6.329   0.141 -2.9185  1.6441 -1.9556
  374MOL    H1945525   3.451   6.255   0.300 -0.3118 -0.0128 -0.2845
  374MOL    C2045526   3.286   6.344   0.195  0.1362 -0.2305  0.0409
  374MOL   Cl2145527   3.264   6.198   0.099  0.1693  0.5505 -0.3248
  374MOL   Cl2245528   3.265   6.477   0.076  0.2933 -0.0052 -0.3234
  374MOL    C2345529   3.194   6.345   0.320  1.2115 -0.5568 -0.9736
  374MOL    H2445530   3.240   6.273   0.388  2.5288 -0.1379 -1.4104
  374MOL    H2545531   3.194   6.439   0.375 -2.0625 -1.4085  0.6415
  374MOL    C2645532   3.042   6.313   0.308  0.0239 -0.4022 -0.2426
  374MOL   Cl2745533   2.976   6.346   0.471  0.0019 -0.0515  0.1479
  374MOL   Cl2845534   3.018   6.145   0.269 -0.3018  0.2659 -0.0583
  374MOL    C2945535   2.966   6.415   0.226 -0.0977  0.2678  0.8080
  374MOL    H3045536   2.971   6.509   0.281 -0.8938  0.4880  0.5133
  374MOL    H3145537   3.022   6.431   0.134 -0.9918 -0.1601  0.1818
  374MOL    C3245538   2.813   6.390   0.183  0.3003 -0.1436  0.1181
  374MOL   Cl3345539   2.805   6.268   0.053 -0.1985  0.1792  0.5199
  374MOL   Cl3445540   2.764   6.538   0.096  0.2670  0.1344 -0.0978
  374MOL    C3545541   2.714   6.362   0.298 -0.0866  0.3914 -0.6277
  374MOL    H3645542   2.746   6.261   0.325 -1.8241 -0.0088 -0.0465
  374MOL    H3745543   2.746   6.434   0.374  0.4058 -0.4710 -0.0128
  374MOL    C3845544   2.559   6.349   0.283  0.0658  0.4120  0.3228
  374MOL   Cl3945545   2.512   6.245   0.148 -0.0613 -0.1394 -0.2261
  374MOL   Cl4045546   2.495   6.511   0.260  0.2474  0.0127  0.1623
  374MOL    C4145547   2.510   6.296   0.420 -0.2593 -0.4346  0.0233
  374MOL    H4245548   2.531   6.372   0.496 -0.3966  0.3261 -0.6962
  374MOL    H4345549   2.402   6.287   0.417 -0.1444 -1.9308 -0.0532
  374MOL    C4445550   2.534   6.152   0.482  0.8948  0.0026 -0.8461
  374MOL   Cl4545551   2.433   6.141   0.630  0.5769  0.4646 -0.2784
  374MOL   Cl4645552   2.704   6.129   0.539  0.4033  0.4373  0.2800
  374MOL    C4745553   2.496   6.036   0.389  1.0380 -0.5692 -0.1682
  374MOL    H4845554   2.406   6.076   0.342  0.6563 -0.6001  0.5290
  374MOL    H4945555   2.578   6.031   0.318  1.2012  1.7773 -0.1801
  374MOL    C5045556   2.454   5.896   0.443  0.1548  1.0339 -0.0125
  374MOL   Cl5145557   2.290   5.892   0.519 -0.1534  0.1899 -0.3560
  374MOL   Cl5245558   2.572   5.830   0.557 -0.1445  0.3491 -0.7220
  374MOL    C5345559   2.446   5.786   0.328 -0.3328 -0.2377 -0.1453
  374MOL    H5445560   2.545   5.749   0.303  0.4895  1.9272 -0.2033
  374MOL    H5545561   2.398   5.699   0.374 -0.4358 -0.4827 -0.7044
  374MOL    C5645562   2.361   5.816   0.196 -0.0056 -1.1098 -0.2971
  374MOL   Cl5745563   2.478   5.917   0.101  0.3434 -0.2690 -0.1186
  374MOL   Cl5845564   2.211   5.910   0.226 -0.2143 -0.0408  0.0004
  374MOL    C5945565   2.328   5.683   0.129  0.0372  0.1782  0.0728
  374MOL    H6045566   2.423   5.630   0.118  0.4776  1.6580 -4.1227
  374MOL    H6145567   2.262   5.636   0.202  1.3666 -2.0482 -0.0979
  374MOL    C6245568   2.253   5.668   9.174  0.5261  0.4211  0.3005
  374MOL   Cl6345569   2.351   5.744   9.048  0.3800 -0.3457 -0.1917
  374MOL   Cl6445570   2.105   5.758   9.166 -0.1863  0.1285 -0.3726
  374MOL    C6545571   2.212   5.527   9.140 -0.0622  0.3719 -0.5068
  374MOL    H6645572   2.140   5.487   0.031 -1.4131  0.0271 -2.0421
  374MOL    H6745573   2.155   5.539   9.048 -1.0692  2.1554  0.3174
  374MOL    C6845574   2.325   5.415   9.140  1.4423  0.9272 -0.2243
  374MOL   Cl6945575   2.375   5.377   0.125  0.2081 -0.0703 -0.1759
  374MOL   Cl7045576   2.461   5.458   9.040  0.1292  0.1105 -0.3904
  374MOL    C7145577   2.273   5.277   9.084  0.3885 -0.1216  0.5583
  374MOL    H7245578   2.363   5.216   9.085  0.9793  0.7544  1.6164
  374MOL    H7345579   2.210   5.238   9.163  0.3082  0.4975  0.7994
  374MOL    C7445580   2.199   5.273   8.941  0.0689 -0.3713 -0.3402
  374MOL   Cl7545581   2.252   5.401   8.832  0.4442  0.4162  0.2127
  374MOL   Cl7645582   2.020   5.294   8.980 -0.3500 -0.4949 -0.2440
  374MOL    C7745583   2.209   5.132   8.873  0.6917  0.0269 -0.1783
  374MOL    H7845584   2.307   5.095   8.907  0.5866  0.5136  0.6675
  374MOL    H7945585   2.142   5.069   8.932  0.0665  0.3551 -0.5381
  374MOL    C8045586   2.177   5.097   8.726 -0.1468  0.0203  0.6489
  374MOL   Cl8145587   2.284   5.180   8.611 -0.1400 -0.2789  0.2669
  374MOL   Cl8245588   2.010   5.145   8.684  0.1514  0.2217  0.2695
  374MOL    C8345589   2.177   4.943   8.697 -0.6060  0.5099 -0.2444
  374MOL    H8445590   2.083   4.904   8.737 -0.9623  2.1009  0.4964
  374MOL    H8545591   2.168   4.922   8.590  2.5118  2.2457 -0.8976
  374MOL    C8645592   2.287   4.845   8.752 -0.2727 -0.6851 -0.4905
  374MOL   Cl8745593   2.265   4.815   8.926 -0.4527  0.4185  0.3445
  374MOL   Cl8845594   2.452   4.916   8.731 -0.1808 -0.1343 -0.0673
  374MOL    C8945595   2.274   4.709   8.678  0.3269  0.1891  0.5075
  374MOL    H9045596   2.182   4.665   8.716  1.1798 -2.1123  0.0107
  374MOL    H9145597   2.274   4.725   8.570  0.5529 -0.0084  0.4770
  374MOL    C9245598   2.385   4.591   8.682  0.5579 -0.0642  0.2584
  374MOL   Cl9345599   2.518   4.627   8.563 -0.0426 -0.1300 -0.3525
  374MOL   Cl9445600   2.317   4.437   8.623  0.0314  0.4793  0.0701
  374MOL    C9545601   2.457   4.576   8.822  0.4507 -0.3006  0.3619
  374MOL    H9645602   2.505   4.672   8.841 -0.3941  0.0625  0.6620
  374MOL    H9745603   2.375   4.580   8.894  0.6353  1.4949  0.5137
  374MOL    C9845604   2.533   4.454   8.879 -0.1220 -0.3934  0.6588
  374MOL   Cl9945605   2.618   4.365   8.746  0.2374 -0.3501 -0.1916
  374MOL  Cl10045606   2.417   4.350   8.950  0.0575  0.0253  0.1940
  374MOL   C10145607   2.624   4.495   8.997 -0.1322  0.1234 -0.4715
  374MOL   H10245608   2.565   4.563   9.059  1.2871  3.1193 -2.2958
  374MOL   H10345609   2.642   4.415   9.069  4.2284  0.5332 -0.9860
  374MOL   C10445610   2.762   4.560   8.976  0.0105 -0.0191  0.0770
  374MOL  Cl10545611   2.767   4.700   8.860  0.3285 -0.3081 -0.3457
  374MOL  Cl10645612   2.883   4.454   8.894 -0.6676  0.0846 -0.1446
  374MOL   C10745613   2.829   4.609   9.106 -0.1542 -0.0559  0.2830
  374MOL   H10845614   2.928   4.644   9.076  0.5757 -2.4537 -0.1887
  374MOL   H10945615   2.789   4.705   9.138 -0.0257 -0.6437  2.3197
  374MOL   C11045616   2.859   4.523   0.054  0.3998 -1.0846 -0.1549
  374MOL  Cl11145617   2.710   4.480   0.140  0.3601  0.1776  0.1319
  374MOL  Cl11245618   2.937   4.629   0.173  0.0265  0.2685  0.1030
  374MOL   C11345619   2.932   4.389   0.032 -0.5509  0.6618 -0.9452
  374MOL   H11445620   2.910   4.325   0.117 -1.0637  1.4419 -0.4856
  374MOL   H11545621   2.895   4.345   9.119  0.8756 -2.7111  0.0204
  374MOL   C11645622   3.090   4.383   0.022  0.2267  0.1811  0.2863
  374MOL  Cl11745623   3.157   4.407   0.183 -0.3504  0.0090  0.6698
  374MOL  Cl11845624   3.149   4.504   9.092  0.3588 -0.1189  0.7268
  374MOL   C11945625   3.135   4.248   9.149  0.0772  0.4594 -0.0762
  374MOL   H12045626   3.104   4.230   9.046 -2.7396 -0.5147  0.8973
  374MOL   H12145627   3.242   4.230   9.159 -0.3882 -2.5584 -0.1758
  374MOL   H12245628   3.087   4.166   0.021 -3.6911  2.3610 -0.3861
  375MOL     C145629   2.841   6.857   2.658  0.2442  1.0612  0.6172
  375MOL    Cl245630   2.959   6.928   2.768  0.3443  0.1693  0.2980
  375MOL    Cl345631   2.790   6.983   2.547 -0.5084 -0.3522  0.0286
  375MOL     C445632   2.895   6.742   2.560  0.2872 -0.2162 -0.0871
  375MOL     H545633   2.813   6.712   2.495  0.0335  1.1094 -0.3791
  375MOL     H645634   2.971   6.789   2.498  3.1302 -2.0457  1.8510
  375MOL     H745635   2.753   6.839   2.720  0.7448  0.9878  1.3159
  375MOL     C845636   2.953   6.613   2.620  0.7585 -0.0724  0.0003
  375MOL    Cl945637   2.836   6.551   2.737  0.1670 -0.5236  0.1145
  375MOL   Cl1045638   3.087   6.651   2.727  0.1378 -0.2204  0.0026
  375MOL    C1145639   2.979   6.506   2.512  0.2614 -0.0179 -0.7493
  375MOL    H1245640   2.974   6.417   2.574 -1.5274 -0.4692 -1.5153
  375MOL    H1345641   2.888   6.484   2.457 -0.0714 -2.1625  0.6084
  375MOL    C1445642   3.115   6.512   2.425 -0.3385 -0.0567  0.1058
  375MOL   Cl1545643   3.250   6.458   2.529 -0.4098  0.0035  0.0513
  375MOL   Cl1645644   3.164   6.673   2.365 -0.0142  0.0424 -0.2444
  375MOL    C1745645   3.109   6.409   2.307  0.3581 -0.5252 -0.3219
  375MOL    H1845646   3.215   6.391   2.288  0.6487 -2.8137  3.0998
  375MOL    H1945647   3.082   6.310   2.341 -0.4124 -0.0341  0.5032
  375MOL    C2045648   3.027   6.446   2.175  0.5869 -0.5965  0.5147
  375MOL   Cl2145649   3.113   6.575   2.084  0.0191 -0.4588 -0.0351
  375MOL   Cl2245650   2.860   6.498   2.204 -0.2413  0.0548  0.1155
  375MOL    C2345651   3.016   6.325   2.080 -0.4824 -0.3266  0.0377
  375MOL    H2445652   2.952   6.252   2.130  0.1649 -0.5454  0.5464
  375MOL    H2545653   2.949   6.352   1.998  1.5453  0.6564 -1.3200
  375MOL    C2645654   3.133   6.239   2.013  0.6022 -0.6189  0.0917
  375MOL   Cl2745655   3.216   6.166   2.146 -0.6624  0.0191 -0.1832
  375MOL   Cl2845656   3.251   6.347   1.931  0.2519 -0.4288  0.3812
  375MOL    C2945657   3.086   6.119   1.926 -0.5868  0.0082  0.9606
  375MOL    H3045658   3.171   6.055   1.904 -1.7767 -1.9261  1.8835
  375MOL    H3145659   3.015   6.066   1.989 -1.0060  1.5949  1.8418
  375MOL    C3245660   3.025   6.126   1.786  0.9314 -0.2675  0.1574
  375MOL   Cl3345661   2.866   6.205   1.800  0.4718  0.3827  0.2680
  375MOL   Cl3445662   3.003   5.958   1.732  0.1439 -0.0614  0.2860
  375MOL    C3545663   3.116   6.203   1.685  0.3705 -0.2768 -1.1410
  375MOL    H3645664   3.087   6.305   1.710  1.5144  0.0380 -1.0864
  375MOL    H3745665   3.221   6.197   1.711  0.0071  0.4727  0.5371
  375MOL    C3845666   3.112   6.186   1.531  0.4506 -0.5513  0.0727
  375MOL   Cl3945667   2.941   6.180   1.477 -0.1821  0.3333 -0.4041
  375MOL   Cl4045668   3.195   6.039   1.484 -0.1927  0.4509 -0.2987
  375MOL    C4145669   3.177   6.301   1.449  0.2855 -0.9695 -0.0175
  375MOL    H4245670   3.138   6.276   1.350  3.6464 -2.5644 -1.0194
  375MOL    H4345671   3.120   6.390   1.473  0.8099 -0.4331 -0.7181
  375MOL    C4445672   3.332   6.340   1.443 -1.2141 -0.0169  0.3584
  375MOL   Cl4545673   3.414   6.230   1.332 -0.0165  0.4041  0.0251
  375MOL   Cl4645674   3.401   6.352   1.603 -0.0876  0.0482 -0.2403
  375MOL    C4745675   3.333   6.482   1.368  0.2204  0.8377  0.4831
  375MOL    H4845676   3.265   6.470   1.283 -0.2665  0.8901  0.8641
  375MOL    H4945677   3.272   6.544   1.433  2.4916  1.0019  2.5155
  375MOL    C5045678   3.453   6.573   1.341 -0.7926  0.0293  0.3059
  375MOL   Cl5145679   3.584   6.493   1.256  0.4860  0.2738 -0.2849
  375MOL   Cl5245680   3.529   6.629   1.497 -0.2341 -0.3871 -0.2546
  375MOL    C5345681   3.415   6.700   1.257  0.1208 -0.2039 -0.3094
  375MOL    H5445682   3.492   6.776   1.269 -0.0182 -0.0739 -0.2448
  375MOL    H5545683   3.423   6.687   1.149 -1.0957 -0.0105 -0.4275
  375MOL    C5645684   3.288   6.780   1.287 -0.2465 -0.0560  0.4935
  375MOL   Cl5745685   3.257   6.809   1.466 -0.1056 -0.2439  0.0253
  375MOL   Cl5845686   3.156   6.685   1.203 -0.3475  0.1173 -0.2426
  375MOL    C5945687   3.297   6.928   1.222 -0.4324 -0.2854 -0.1852
  375MOL    H6045688   3.369   6.973   1.290  0.1400 -1.3437 -0.0825
  375MOL    H6145689   3.355   6.935   1.130  3.1272 -1.1614  1.8910
  375MOL    C6245690   3.181   7.033   1.192  0.1551  0.3831  0.7506
  375MOL   Cl6345691   3.091   6.979   1.051  0.4410  0.3900 -0.2849
  375MOL   Cl6445692   3.278   7.170   1.137  0.1080  0.1533 -0.1783
  375MOL    C6545693   3.090   7.076   1.318  0.1046 -0.9221  0.3364
  375MOL    H6645694   3.053   6.983   1.362 -2.0489  0.3878  1.3617
  375MOL    H6745695   3.162   7.109   1.393 -1.6880 -0.6424  1.9695
  375MOL    C6845696   2.971   7.186   1.299 -0.0585 -0.3841 -0.0382
  375MOL   Cl6945697   2.928   7.225   1.461  0.5198  0.3691  0.5070
  375MOL   Cl7045698   2.834   7.109   1.217  0.3106  0.0136  0.0876
  375MOL    C7145699   3.012   7.315   1.225  0.2007 -0.0694 -0.2489
  375MOL    H7245700   3.117   7.334   1.245  0.3774 -2.5990  1.4719
  375MOL    H7345701   3.013   7.297   1.118 -0.4711  2.9492 -0.8270
  375MOL    C7445702   2.930   7.444   1.246  0.1306 -0.3200  0.1933
  375MOL   Cl7545703   2.984   7.557   1.118 -0.2124  0.2750 -0.0144
  375MOL   Cl7645704   3.009   7.522   1.383  0.2655 -0.2093 -0.5185
  375MOL    C7745705   2.771   7.429   1.256 -0.0939  0.1201 -0.2493
  375MOL    H7845706   2.736   7.414   1.154  0.7003 -0.6087 -0.4211
  375MOL    H7945707   2.752   7.335   1.308  0.3683 -0.3740 -0.9649
  375MOL    C8045708   2.672   7.525   1.322 -0.5900 -0.2965 -0.7153
  375MOL   Cl8145709   2.509   7.496   1.263  0.0720 -0.7236  0.0149
  375MOL   Cl8245710   2.730   7.683   1.264 -0.1897 -0.1409 -0.0715
  375MOL    C8345711   2.677   7.498   1.481  0.0843 -0.7526  0.5742
  375MOL    H8445712   2.617   7.410   1.503 -1.7772  0.9948  2.8155
  375MOL    H8545713   2.773   7.459   1.515 -0.2785 -0.4495  2.0062
  375MOL    C8645714   2.645   7.611   1.585  0.2219  0.0425 -0.0366
  375MOL   Cl8745715   2.488   7.693   1.541  0.1541  0.2010 -0.2018
  375MOL   Cl8845716   2.766   7.738   1.572  0.1199 -0.0235 -0.3223
  375MOL    C8945717   2.631   7.545   1.725  1.1184 -0.0803  0.4676
  375MOL    H9045718   2.597   7.620   1.797  2.8574  0.3446  0.8567
  375MOL    H9145719   2.551   7.471   1.717  1.3978 -0.4087  0.7166
  375MOL    C9245720   2.738   7.465   1.797  0.3233  0.0541 -0.7576
  375MOL   Cl9345721   2.742   7.307   1.735 -0.4472  0.2628 -0.3263
  375MOL   Cl9445722   2.666   7.461   1.960  0.1960  0.0767 -0.0369
  375MOL    C9545723   2.883   7.526   1.815  0.1907 -0.2096  0.0751
  375MOL    H9645724   2.917   7.556   1.716 -0.6173 -0.1839 -0.1928
  375MOL    H9745725   2.875   7.620   1.868 -0.5299 -0.6473  0.7541
  375MOL    C9845726   3.001   7.438   1.870  0.4838  0.5041 -0.6513
  375MOL   Cl9945727   3.126   7.560   1.892 -0.3007  0.2961 -0.3334
  375MOL  Cl10045728   3.060   7.334   1.747  0.0839  0.1520  0.1536
  375MOL   C10145729   2.990   7.375   2.007  0.7286 -0.2880 -0.0001
  375MOL   H10245730   2.990   7.455   2.080  0.9832 -0.2296 -0.0632
  375MOL   H10345731   2.886   7.344   2.012  0.4374  0.5399 -0.8854
  375MOL   C10445732   3.076   7.258   2.055 -0.6388 -0.3180  0.0434
  375MOL  Cl10545733   3.042   7.247   2.223 -0.1100  0.3305  0.2052
  375MOL  Cl10645734   3.245   7.297   2.049 -0.1073  0.1455 -0.0553
  375MOL   C10745735   3.041   7.121   1.982 -0.4344 -0.3286 -0.2190
  375MOL   H10845736   2.946   7.138   1.931 -0.3433  1.0447  0.0510
  375MOL   H10945737   3.117   7.114   1.905 -0.4299 -0.1031 -0.2346
  375MOL   C11045738   3.043   6.989   2.058  0.0501  0.0534 -0.3398
  375MOL  Cl11145739   3.197   6.973   2.151  0.0835  0.0597  0.3711
  375MOL  Cl11245740   3.045   6.849   1.936  0.5603 -0.1542  0.2728
  375MOL   C11345741   2.921   6.953   2.149 -0.4696 -1.1521 -0.0517
  375MOL   H11445742   2.940   6.850   2.179  0.5934 -0.8075  0.4816
  375MOL   H11545743   2.927   7.017   2.238 -0.3917  0.2432 -1.0369
  375MOL   C11645744   2.777   6.965   2.094  0.2007 -0.3902  0.1167
  375MOL  Cl11745745   2.715   7.134   2.086 -0.3192  0.6809 -0.3049
  375MOL  Cl11845746   2.671   6.876   2.208  0.0408 -0.3282 -0.2658
  375MOL   C11945747   2.738   6.909   1.961 -0.4909  0.4553 -0.5845
  375MOL   H12045748   2.793   6.958   1.880 -1.5732 -1.6171 -2.6379
  375MOL   H12145749   2.771   6.805   1.957 -0.5415  0.4848 -2.7338
  375MOL   H12245750   2.633   6.926   1.935 -0.7478 -2.2019 -1.4148
  376MOL     C145751   8.267   4.316   8.426 -0.2431  0.2969 -0.5310
  376MOL    Cl245752   8.173   4.311   8.273 -0.0450 -0.1790  0.5248
  376MOL    Cl345753   8.415   4.225   8.407 -0.0347  0.1510 -0.1667
  376MOL     C445754   8.281   4.465   8.466 -0.0943  0.0849  0.5693
  376MOL     H545755   8.331   4.516   8.384  0.7500 -0.6325  0.6298
  376MOL     H645756   8.181   4.506   8.478 -1.1866 -2.2309 -0.3144
  376MOL     H745757   8.209   4.279   8.511 -0.6824 -2.2880 -1.8938
  376MOL     C845758   8.355   4.500   8.596  0.4871 -0.0128 -0.3332
  376MOL    Cl945759   8.533   4.468   8.594  0.3736 -0.1580  0.1550
  376MOL   Cl1045760   8.302   4.389   8.725  0.0541  0.0574  0.4010
  376MOL    C1145761   8.330   4.638   8.660 -0.0875 -0.2342 -0.0456
  376MOL    H1245762   8.236   4.639   8.715 -0.3437  1.5488 -0.4846
  376MOL    H1345763   8.411   4.648   8.732  2.1797  0.3446 -2.6214
  376MOL    C1445764   8.322   4.762   8.568 -0.3329 -1.1171 -0.0928
  376MOL   Cl1545765   8.164   4.757   8.481  0.6296 -0.1809  0.0160
  376MOL   Cl1645766   8.453   4.762   8.442 -0.2378 -0.1509 -0.1367
  376MOL    C1745767   8.342   4.892   8.662  0.1551  0.1147  0.2655
  376MOL    H1845768   8.259   4.902   8.732  0.0116 -0.0007  0.1099
  376MOL    H1945769   8.424   4.885   8.734  1.7819  0.2064 -1.5465
  376MOL    C2045770   8.347   5.033   8.595 -0.3143 -0.4772  0.2896
  376MOL   Cl2145771   8.506   5.070   8.519 -0.3000  0.0812  0.0785
  376MOL   Cl2245772   8.315   5.146   8.736 -0.1345  0.4388 -0.2885
  376MOL    C2345773   8.231   5.060   8.489  1.0827 -0.7763  0.5197
  376MOL    H2445774   8.257   5.009   8.396 -1.1174 -0.2965 -0.3820
  376MOL    H2545775   8.144   5.012   8.533  0.8535 -0.0768  0.8304
  376MOL    C2645776   8.180   5.206   8.450  0.7403  0.1206  0.2497
  376MOL   Cl2745777   8.321   5.292   8.376 -0.2560  0.1916  0.3287
  376MOL   Cl2845778   8.109   5.312   8.577  0.9557 -0.0837  0.1358
  376MOL    C2945779   8.079   5.208   8.324 -0.5011  0.2282 -0.5074
  376MOL    H3045780   8.049   5.312   8.316  2.0641  1.0970  0.6675
  376MOL    H3145781   8.135   5.194   8.231  2.2349 -1.5061  1.3429
  376MOL    C3245782   7.953   5.115   8.310 -0.2818  0.1240 -0.3960
  376MOL   Cl3345783   7.878   5.104   8.466  0.2300  0.0814 -0.5375
  376MOL   Cl3445784   7.997   4.949   8.261 -0.2235  0.3737 -0.0618
  376MOL    C3545785   7.834   5.156   8.214 -0.0772  0.0815 -0.0541
  376MOL    H3645786   7.772   5.067   8.223 -0.8332  0.5608 -0.4125
  376MOL    H3745787   7.775   5.237   8.257 -1.3290  0.8692 -3.1590
  376MOL    C3845788   7.858   5.185   8.062 -0.5192  0.1007  0.2875
  376MOL   Cl3945789   7.968   5.324   8.049 -0.4997  0.1544  0.1500
  376MOL   Cl4045790   7.702   5.243   8.005 -0.1184  0.2989  0.2521
  376MOL    C4145791   7.912   5.074   7.976  0.5240 -0.4751 -0.6112
  376MOL    H4245792   8.012   5.052   8.011 -0.8697 -1.7650  2.7204
  376MOL    H4345793   7.847   4.988   7.991  2.7058 -1.9362  0.7501
  376MOL    C4445794   7.924   5.078   7.815 -0.3398 -0.5186  0.3969
  376MOL   Cl4545795   7.955   5.237   7.753 -0.2814  0.0809  0.2270
  376MOL   Cl4645796   7.758   5.035   7.741  0.0285  0.8066  0.3719
  376MOL    C4745797   8.027   4.987   7.748 -0.0313 -0.0974  0.2898
  376MOL    H4845798   7.972   4.898   7.718  1.4898 -1.6214  1.8695
  376MOL    H4945799   8.033   5.031   7.649 -2.2372 -0.6526 -0.1109
  376MOL    C5045800   8.170   4.955   7.785  0.0659 -0.8920 -0.1456
  376MOL   Cl5145801   8.246   5.106   7.814  0.3479  0.3625  0.0292
  376MOL   Cl5245802   8.246   4.884   7.641 -0.3296 -0.0986  0.3431
  376MOL    C5345803   8.188   4.859   7.904 -0.0357  0.4225 -0.7162
  376MOL    H5445804   8.103   4.853   7.973  0.9438  1.0305  0.5690
  376MOL    H5545805   8.195   4.761   7.858  1.5211  0.3386 -0.3277
  376MOL    C5645806   8.310   4.874   8.010  0.6691  0.7187 -0.4379
  376MOL   Cl5745807   8.314   4.718   8.099  0.1280  0.2247 -0.3547
  376MOL   Cl5845808   8.263   5.004   8.114 -0.4317  0.6763  0.0539
  376MOL    C5945809   8.451   4.887   7.941  0.4555  0.0723  0.1334
  376MOL    H6045810   8.468   4.793   7.889  0.3754 -0.9128  1.8813
  376MOL    H6145811   8.457   4.963   7.862  1.5129 -0.4956 -0.3388
  376MOL    C6245812   8.588   4.910   8.015  0.5350  0.0460  0.1248
  376MOL   Cl6345813   8.622   4.786   8.125  0.2688 -0.2480 -0.2638
  376MOL   Cl6445814   8.578   5.056   8.124 -0.0256  0.2295  0.2345
  376MOL    C6545815   8.712   4.928   7.942 -0.2783 -0.0876  0.5999
  376MOL    H6645816   8.717   5.033   7.914  2.1314 -0.2002  0.5379
  376MOL    H6745817   8.797   4.915   8.009 -1.7331  0.5129  2.6025
  376MOL    C6845818   8.752   4.842   7.813  0.9016 -0.4532 -0.1273
  376MOL   Cl6945819   8.638   4.867   7.679 -0.0531  0.0826  0.1113
  376MOL   Cl7045820   8.739   4.676   7.853  0.0301 -0.0661  0.0722
  376MOL    C7145821   8.889   4.885   7.752 -0.1406  0.1239 -0.2860
  376MOL    H7245822   8.893   4.980   7.697  0.7289  0.4650  0.3601
  376MOL    H7345823   8.947   4.920   7.837  0.1728 -3.6578  1.1472
  376MOL    C7445824   8.988   4.783   7.683 -0.1496 -0.4005 -0.1076
  376MOL   Cl7545825   9.062   4.684   7.811  0.2759  0.0079 -0.0186
  376MOL   Cl7645826   9.122   4.886   7.623 -0.0539 -0.0611  0.1517
  376MOL    C7745827   8.924   4.706   7.564  0.1037  0.4703 -0.3673
  376MOL    H7845828   8.820   4.675   7.578  0.4709 -0.4265  0.4555
  376MOL    H7945829   8.934   4.779   7.484  3.0881 -1.1004 -1.4955
  376MOL    C8045830   8.985   4.575   7.508 -0.2411  0.1652 -0.2904
  376MOL   Cl8145831   8.915   4.441   7.609  0.3673 -0.1865  0.0016
  376MOL   Cl8245832   9.164   4.588   7.531 -0.2557  0.3146 -0.1079
  376MOL    C8345833   8.961   4.541   7.353 -0.0005  0.5983  0.1055
  376MOL    H8445834   9.026   4.609   7.297  1.4990 -0.3949  0.6150
  376MOL    H8545835   9.013   4.445   7.349 -2.3443 -0.8791  3.0626
  376MOL    C8645836   8.818   4.536   7.290  0.8622  0.2865 -0.6741
  376MOL   Cl8745837   8.735   4.690   7.311  0.1263 -0.0009 -0.1167
  376MOL   Cl8845838   8.714   4.415   7.370 -0.0931  0.4694 -0.1175
  376MOL    C8945839   8.831   4.490   7.143  0.1009  0.6297 -0.1440
  376MOL    H9045840   8.832   4.381   7.145 -0.4262  0.6329  2.7406
  376MOL    H9145841   8.738   4.520   7.095 -0.8105 -2.6268 -0.5464
  376MOL    C9245842   8.942   4.543   7.045 -0.3455  0.1694  0.1138
  376MOL   Cl9345843   9.093   4.461   7.094 -0.1389 -0.1780 -0.1338
  376MOL   Cl9445844   8.957   4.720   7.055 -0.2477  0.1790 -0.0814
  376MOL    C9545845   8.912   4.497   6.900  1.0660 -0.1259 -0.2055
  376MOL    H9645846   8.861   4.402   6.908  0.3174  0.4627  2.3153
  376MOL    H9745847   8.842   4.574   6.868  0.5719 -0.1945  0.7238
  376MOL    C9845848   9.020   4.488   6.787  0.0842  1.0980 -0.9212
  376MOL   Cl9945849   8.926   4.485   6.636  0.1285  0.1277  0.1674
  376MOL  Cl10045850   9.089   4.322   6.797  0.2089  0.3578  0.5276
  376MOL   C10145851   9.133   4.603   6.788  0.3456  0.4273 -0.4082
  376MOL   H10245852   9.085   4.696   6.756 -0.4420  0.2562  0.2708
  376MOL   H10345853   9.161   4.632   6.889  0.4083 -0.4751 -0.1688
  376MOL   C10445854   0.088   4.605   6.714  0.4122  0.9109  0.1383
  376MOL  Cl10545855   0.064   4.562   6.537 -0.2834 -0.5438 -0.4801
  376MOL  Cl10645856   0.198   4.482   6.779 -0.2987  0.2337 -0.0868
  376MOL   C10745857   0.169   4.737   6.720 -0.4087 -0.9714  0.4793
  376MOL   H10845858   0.219   4.759   6.814 -2.0427 -1.3773  1.4747
  376MOL   H10945859   0.246   4.716   6.647 -0.1580  0.2516  0.3841
  376MOL   C11045860   0.091   4.874   6.678 -0.2200  0.2970 -0.3787
  376MOL  Cl11145861   9.175   4.919   6.822  0.0180  0.0238 -0.1145
  376MOL  Cl11245862   9.156   4.861   6.538 -0.4064  0.2913  0.0125
  376MOL   C11345863   0.185   5.002   6.662 -0.3016  0.0825 -0.6804
  376MOL   H11445864   0.124   5.085   6.629 -1.4659  0.1623  1.5831
  376MOL   H11545865   0.228   5.027   6.759  0.7121 -1.9204 -0.5829
  376MOL   C11645866   0.312   4.993   6.559 -0.5124  0.0734 -0.3744
  376MOL  Cl11745867   0.435   4.896   6.658  0.5763 -0.2287  0.5852
  376MOL  Cl11845868   0.372   5.153   6.527 -0.1845  0.3331  0.2480
  376MOL   C11945869   0.291   4.921   6.423  0.3987  0.3667  0.3012
  376MOL   H12045870   0.261   4.818   6.441  0.9476  0.6692  3.1031
  376MOL   H12145871   0.213   4.979   6.373 -0.3756 -0.2803  0.7353
  376MOL   H12245872   0.375   4.918   6.354  0.4290 -1.0142  0.3846
  377MOL     C145873   7.935   6.443   0.527  0.1955  0.4892  0.8100
  377MOL    Cl245874   7.838   6.432   0.675 -0.0299  0.1407  0.3189
  377MOL    Cl345875   7.823   6.467   0.380 -0.2271  0.2538  0.1472
  377MOL     C445876   8.037   6.557   0.529  0.3030  0.8467 -0.6028
  377MOL     H545877   8.040   6.586   0.424 -2.0505  0.9822 -0.6745
  377MOL     H645878   7.996   6.638   0.589  0.3863 -0.8699  1.8194
  377MOL     H745879   7.994   6.353   0.514 -0.2871  0.2697  0.1257
  377MOL     C845880   8.174   6.527   0.581  1.1521  0.3410 -0.0151
  377MOL    Cl945881   8.259   6.682   0.550  0.1989  0.0755 -0.1183
  377MOL   Cl1045882   8.254   6.416   0.476 -0.0092  0.1796 -0.0725
  377MOL    C1145883   8.178   6.471   0.732 -0.0782  0.0431 -0.3718
  377MOL    H1245884   8.128   6.551   0.786 -0.5297  0.1773 -0.9967
  377MOL    H1345885   8.120   6.379   0.731 -1.4538  0.8963  0.2665
  377MOL    C1445886   8.312   6.422   0.798  0.1072 -0.7663 -0.7583
  377MOL   Cl1545887   8.352   6.259   0.729  0.1061 -0.0818 -0.1769
  377MOL   Cl1645888   8.272   6.394   0.966  0.3320 -0.2591 -0.1872
  377MOL    C1745889   8.434   6.511   0.792  0.0838 -0.2754  0.0666
  377MOL    H1845890   8.442   6.543   0.688  4.4574 -0.9022  0.1296
  377MOL    H1945891   8.409   6.599   0.852  0.7004  0.3221 -0.5463
  377MOL    C2045892   8.583   6.464   0.831  0.7544  0.2187 -0.4194
  377MOL   Cl2145893   8.671   6.608   0.874 -0.2448  0.4199 -0.1858
  377MOL   Cl2245894   8.659   6.401   0.679 -0.3386 -0.0611  0.3394
  377MOL    C2345895   8.582   6.361   0.947 -0.5170 -0.0076 -0.3077
  377MOL    H2445896   8.554   6.421   1.034  0.0870 -0.3144  0.0996
  377MOL    H2545897   8.504   6.285   0.946 -0.6954  0.1672  0.0152
  377MOL    C2645898   8.699   6.275   0.986  0.8337 -0.6391 -0.4849
  377MOL   Cl2745899   8.853   6.362   0.994 -0.2323 -0.1675  0.3164
  377MOL   Cl2845900   8.735   6.152   0.867  0.4027 -0.1189  0.0341
  377MOL    C2945901   8.698   6.211   1.127  0.1622  0.6561  0.4023
  377MOL    H3045902   8.772   6.132   1.110  1.3029  1.8264 -0.1603
  377MOL    H3145903   8.745   6.273   1.203  1.2982  0.4736 -0.1349
  377MOL    C3245904   8.577   6.142   1.194  0.3449 -0.1039 -0.0563
  377MOL   Cl3345905   8.502   6.010   1.094  0.3693 -0.1651 -0.0600
  377MOL   Cl3445906   8.455   6.268   1.222 -0.2225 -0.2195 -0.1819
  377MOL    C3545907   8.609   6.086   1.334 -0.5268 -0.1055 -0.4804
  377MOL    H3645908   8.636   6.168   1.400  2.1988 -0.4155 -1.1331
  377MOL    H3745909   8.513   6.039   1.357 -0.3325  0.2882  1.1880
  377MOL    C3845910   8.714   5.968   1.367  0.9682 -0.3151  0.7248
  377MOL   Cl3945911   8.875   6.022   1.348 -0.4175 -0.0355  0.1430
  377MOL   Cl4045912   8.685   5.835   1.250 -0.5366 -0.0832  0.0043
  377MOL    C4145913   8.712   5.912   1.507  0.4697 -0.5427 -0.6486
  377MOL    H4245914   8.769   5.819   1.506  0.8559 -0.3496  1.3324
  377MOL    H4345915   8.758   5.980   1.579  1.6529 -0.8263 -1.1217
  377MOL    C4445916   8.579   5.871   1.581  1.1875  0.3250 -0.7589
  377MOL   Cl4545917   8.495   6.016   1.618  0.0972  0.4630 -0.0164
  377MOL   Cl4645918   8.622   5.795   1.734 -0.0564  0.4568  0.0881
  377MOL    C4745919   8.491   5.767   1.493 -0.0627  0.4726  0.5398
  377MOL    H4845920   8.443   5.810   1.405 -1.5708 -2.3287 -0.0907
  377MOL    H4945921   8.554   5.687   1.456 -1.5573 -0.9237  0.9439
  377MOL    C5045922   8.376   5.689   1.558  0.0538 -0.9129  0.7463
  377MOL   Cl5145923   8.256   5.639   1.435  0.0329  0.0211 -0.3197
  377MOL   Cl5245924   8.277   5.794   1.663  0.2342  0.0930  0.0211
  377MOL    C5345925   8.412   5.559   1.632  0.7031 -0.5607  0.1804
  377MOL    H5445926   8.460   5.594   1.723 -0.8492  0.6291  0.5596
  377MOL    H5545927   8.317   5.513   1.661 -0.7515  1.2894 -1.5196
  377MOL    C5645928   8.501   5.445   1.574  0.7040  0.2879 -0.9860
  377MOL   Cl5745929   8.667   5.493   1.589 -0.1370 -0.2602  0.2302
  377MOL   Cl5845930   8.466   5.420   1.398 -0.6310 -0.4703  0.4357
  377MOL    C5945931   8.464   5.308   1.633  0.2363 -0.4611 -0.0883
  377MOL    H6045932   8.356   5.295   1.627  0.4164 -1.8345 -0.3831
  377MOL    H6145933   8.513   5.230   1.575  2.0922  0.3060  0.4050
  377MOL    C6245934   8.494   5.266   1.777 -0.2187  0.0003  0.6610
  377MOL   Cl6345935   8.441   5.386   1.900  0.3371 -0.0886  0.0458
  377MOL   Cl6445936   8.670   5.246   1.803 -0.2847  0.3263 -0.0510
  377MOL    C6545937   8.426   5.130   1.808 -0.0820 -0.0880  0.5885
  377MOL    H6645938   8.498   5.055   1.774 -0.6718  0.9702 -3.2082
  377MOL    H6745939   8.429   5.131   1.917 -3.1339  1.3586  0.6955
  377MOL    C6845940   8.277   5.091   1.771 -0.1133 -0.4665  0.2902
  377MOL   Cl6945941   8.272   5.044   1.597  0.4473 -0.1580  0.1013
  377MOL   Cl7045942   8.167   5.227   1.807 -0.1688  0.5278  0.4185
  377MOL    C7145943   8.241   4.958   1.850 -0.0119 -0.4523  0.3566
  377MOL    H7245944   8.290   4.874   1.800 -0.2599 -0.0589 -0.5438
  377MOL    H7345945   8.288   4.975   1.947 -0.8043  0.7504  0.5307
  377MOL    C7445946   8.095   4.926   1.882 -0.7187  0.2059  0.1689
  377MOL   Cl7545947   8.032   5.036   2.003 -0.0210  0.4144 -0.1129
  377MOL   Cl7645948   8.103   4.767   1.983 -0.3160  0.1441 -0.2061
  377MOL    C7745949   8.020   4.895   1.751  0.4279 -0.2094 -0.2207
  377MOL    H7845950   8.021   4.996   1.710 -1.2025 -0.4670 -0.9226
  377MOL    H7945951   8.089   4.841   1.686  2.6633  0.1735  1.7656
  377MOL    C8045952   7.874   4.842   1.747  0.8793 -0.1946  0.5384
  377MOL   Cl8145953   7.836   4.866   1.574  0.1713  0.0517 -0.1913
  377MOL   Cl8245954   7.768   4.953   1.831 -0.3106 -0.0195  0.1317
  377MOL    C8345955   7.845   4.694   1.796 -0.7959 -0.6283 -0.5222
  377MOL    H8445956   7.865   4.703   1.903  0.3800  0.7678 -0.8538
  377MOL    H8545957   7.737   4.676   1.795 -0.7670 -0.9683  0.8376
  377MOL    C8645958   7.898   4.568   1.729 -0.2383 -0.3365 -0.2388
  377MOL   Cl8745959   8.073   4.559   1.716  0.1416  0.4043  0.0115
  377MOL   Cl8845960   7.828   4.554   1.565  0.3277  0.5294  0.4196
  377MOL    C8945961   7.855   4.434   1.809  0.2465  0.2350  0.1133
  377MOL    H9045962   7.747   4.426   1.806  0.2968 -0.0675 -2.0911
  377MOL    H9145963   7.868   4.356   1.734  1.4640 -0.3897  0.9523
  377MOL    C9245964   7.905   4.390   1.955  0.3248  0.7005  0.2000
  377MOL   Cl9345965   7.882   4.512   2.080  0.1355  0.1280 -0.1035
  377MOL   Cl9445966   8.082   4.353   1.941  0.2502 -0.3774  0.0866
  377MOL    C9545967   7.841   4.252   2.002  0.4684  0.2512 -0.4496
  377MOL    H9645968   7.877   4.177   1.932  3.3583 -0.9096  2.1528
  377MOL    H9745969   7.890   4.238   2.099 -0.7929 -0.0432  0.1548
  377MOL    C9845970   7.685   4.233   2.026  0.4454  0.1912  0.7163
  377MOL   Cl9945971   7.613   4.210   1.866  0.4911  0.4834 -0.0397
  377MOL  Cl10045972   7.608   4.389   2.081  0.2745  0.3013  0.0421
  377MOL   C10145973   7.631   4.120   2.120 -0.2169  0.4537  0.0578
  377MOL   H10245974   7.681   4.142   2.215  1.3216  0.8572 -0.8188
  377MOL   H10345975   7.523   4.120   2.125 -0.2526 -0.9930 -0.3512
  377MOL   C10445976   7.659   3.965   2.104 -0.5352  0.6553  0.1274
  377MOL  Cl10545977   7.832   3.943   2.074  0.0281  0.0287 -0.1695
  377MOL  Cl10645978   7.589   3.902   1.959  0.1138  0.1895 -0.1983
  377MOL   C10745979   7.615   3.882   2.231 -0.5142  0.4676 -0.5109
  377MOL   H10845980   7.623   3.777   2.203  0.0660  0.6118 -0.8949
  377MOL   H10945981   7.692   3.900   2.306 -1.2105 -3.0950  1.1928
  377MOL   C11045982   7.482   3.901   2.296 -0.0080 -0.3178 -0.5060
  377MOL  Cl11145983   7.361   3.896   2.171  0.0331 -0.2636 -0.4767
  377MOL  Cl11245984   7.461   4.057   2.380  0.0854 -0.0206 -0.5097
  377MOL   C11345985   7.451   3.789   2.400 -0.3259 -0.6094  0.1752
  377MOL   H11445986   7.369   3.804   2.471  0.2951 -0.4621  0.8609
  377MOL   H11545987   7.438   3.690   2.356 -1.9834 -0.6060  0.5953
  377MOL   C11645988   7.563   3.744   2.498 -0.9484  0.2135  0.1158
  377MOL  Cl11745989   7.652   3.881   2.578  0.5083 -0.2468  0.4868
  377MOL  Cl11845990   7.697   3.646   2.424  0.0270  0.2523 -0.4533
  377MOL   C11945991   7.516   3.656   2.613 -0.2536 -0.1989  0.4591
  377MOL   H12045992   7.433   3.699   2.669  1.0746  1.0161  1.5294
  377MOL   H12145993   7.484   3.560   2.573  2.6131  0.3389 -3.3671
  377MOL   H12245994   7.597   3.627   2.680 -1.0010 -1.3406  0.8851
  378MOL     C145995   8.496   4.359   7.976 -0.6358  0.0368  0.1970
  378MOL    Cl245996   8.322   4.389   7.981 -0.1254 -0.0505 -0.2800
  378MOL    Cl345997   8.556   4.390   7.811  0.2128  0.1307  0.0771
  378MOL     C445998   8.563   4.447   8.085  0.1104  0.2017 -0.4414
  378MOL     H545999   8.591   4.540   8.037 -2.0356  2.2015  2.0518
  378MOL     H646000   8.510   4.481   8.174  2.0938 -0.5140  1.0751
  378MOL     H746001   8.506   4.251   7.984  0.3826  0.1144  0.0775
  378MOL     C846002   8.698   4.386   8.142 -0.4856 -0.6493 -0.7819
  378MOL    Cl946003   8.672   4.220   8.197  0.0339 -0.1790  0.0874
  378MOL   Cl1046004   8.738   4.480   8.289  0.3596 -0.3813  0.4368
  378MOL    C1146005   8.814   4.392   8.039  1.0933 -0.0265  0.3843
  378MOL    H1246006   8.768   4.357   7.947 -0.1525 -0.3985  1.1301
  378MOL    H1346007   8.834   4.498   8.028 -1.0408  0.5256  1.4370
  378MOL    C1446008   8.943   4.314   8.070 -0.3744 -0.2082  0.0664
  378MOL   Cl1546009   9.060   4.363   7.951 -0.1220 -0.1375 -0.3141
  378MOL   Cl1646010   8.929   4.140   8.034  0.0256 -0.2205 -0.0689
  378MOL    C1746011   8.999   4.340   8.210  0.5361 -0.0065 -0.3655
  378MOL    H1846012   8.992   4.447   8.224 -1.4569 -0.0930 -0.5228
  378MOL    H1946013   8.922   4.296   8.274  0.4926 -0.1704 -0.5307
  378MOL    C2046014   9.145   4.294   8.259  0.4360 -0.3604 -0.1246
  378MOL   Cl2146015   9.143   4.321   8.436  0.1870  0.0852  0.2479
  378MOL   Cl2246016   0.083   4.412   8.207 -0.0000  0.3562 -0.0195
  378MOL    C2346017   0.002   4.149   8.230  0.0124  0.3693  0.0197
  378MOL    H2446018   9.096   4.096   8.270  0.8550 -0.2300  1.0809
  378MOL    H2546019   9.178   4.128   8.123  1.3663  0.1557  0.0012
  378MOL    C2646020   0.133   4.078   8.292  0.2236 -0.0123  0.5262
  378MOL   Cl2746021   0.130   3.908   8.229 -0.2751 -0.6198  0.0775
  378MOL   Cl2846022   0.102   4.047   8.466  0.0282 -0.1193  0.1668
  378MOL    C2946023   0.275   4.156   8.277 -0.3808  0.8402  0.2195
  378MOL    H3046024   0.279   4.206   8.180 -0.3417  1.5923  0.6022
  378MOL    H3146025   0.285   4.238   8.349 -1.4457 -0.0327  1.3809
  378MOL    C3246026   0.408   4.070   8.252 -0.3108 -0.0623  1.3984
  378MOL   Cl3346027   0.548   4.183   8.245  0.3025  0.0006  0.3862
  378MOL   Cl3446028   0.407   3.996   8.092 -0.1105  0.2822  0.1321
  378MOL    C3546029   0.442   3.960   8.354  0.2235 -0.0846 -0.3966
  378MOL    H3646030   0.472   4.005   8.448  0.4232  0.5111 -0.7380
  378MOL    H3746031   0.350   3.911   8.385 -0.6776  0.3333 -2.3004
  378MOL    C3846032   0.545   3.850   8.336 -0.6585  0.4476  0.1262
  378MOL   Cl3946033   0.476   3.723   8.229  0.0685 -0.2327 -0.0261
  378MOL   Cl4046034   0.566   3.782   8.500  0.0491 -0.3172  0.0160
  378MOL    C4146035   0.687   3.901   8.291  0.0399  0.0283  0.3997
  378MOL    H4246036   0.682   3.983   8.220  0.1790  0.9450  1.4275
  378MOL    H4346037   0.735   3.949   8.376  0.4670  1.0792 -0.4266
  378MOL    C4446038   0.796   3.806   8.237 -0.4803 -0.6988 -0.6778
  378MOL   Cl4546039   0.924   3.923   8.199  0.1178 -0.4960 -0.3996
  378MOL   Cl4646040   0.754   3.743   8.076  0.1732  0.0513  0.1280
  378MOL    C4746041   0.837   3.690   8.336 -0.0291 -0.0499  0.0732
  378MOL    H4846042   0.834   3.737   8.434  1.5413 -3.2339  1.7541
  378MOL    H4946043   0.752   3.622   8.333 -0.5332  0.5871  0.0424
  378MOL    C5046044   0.985   3.629   8.327  0.2819  0.0287 -0.1125
  378MOL   Cl5146045   0.987   3.494   8.446  0.3725 -0.0059  0.0160
  378MOL   Cl5246046   1.103   3.741   8.397  0.3878  0.1955 -0.1693
  378MOL    C5346047   1.030   3.587   8.185 -0.2164  0.3547  0.2692
  378MOL    H5446048   0.947   3.545   8.128 -0.0462 -1.3148  1.2165
  378MOL    H5546049   1.072   3.673   8.133  0.5980 -0.4067 -0.3710
  378MOL    C5646050   1.137   3.481   8.169 -0.0545  0.3378  0.0933
  378MOL   Cl5746051   1.168   3.487   7.998 -0.1041  0.0719 -0.2224
  378MOL   Cl5846052   1.068   3.310   8.211  0.3354 -0.4078  0.0801
  378MOL    C5946053   1.272   3.514   8.240 -0.1326 -0.3696 -0.1560
  378MOL    H6046054   1.304   3.610   8.198 -0.8998 -0.8347 -1.8477
  378MOL    H6146055   1.264   3.538   8.346 -1.7870  1.0926 -0.5890
  378MOL    C6246056   1.400   3.421   8.225 -0.9186  0.6663 -0.3625
  378MOL   Cl6346057   1.519   3.501   8.337 -0.0720 -0.0510  0.2126
  378MOL   Cl6446058   1.460   3.440   8.052  0.3528  0.1609 -0.3569
  378MOL    C6546059   1.396   3.266   8.251  0.4474  0.6705  0.2019
  378MOL    H6646060   1.310   3.226   8.197 -0.7421  0.7567  1.9861
  378MOL    H6746061   1.478   3.218   8.198  0.2131 -1.9446  2.1191
  378MOL    C6846062   1.384   3.195   8.392 -0.6546 -0.3937 -0.9133
  378MOL   Cl6946063   1.284   3.300   8.485 -0.1300 -0.3799  0.0133
  378MOL   Cl7046064   1.545   3.190   8.474  0.1023  0.1506  0.1429
  378MOL    C7146065   1.315   3.056   8.398  0.3562  0.0988  0.3410
  378MOL    H7246066   1.322   3.030   8.504  1.8706  0.2008  0.2866
  378MOL    H7346067   1.214   3.061   8.360  1.0247 -2.0307 -1.8146
  378MOL    C7446068   1.376   2.939   8.316  0.4662  0.6088 -0.0139
  378MOL   Cl7546069   1.553   2.913   8.340  0.0379 -0.2088  0.3335
  378MOL   Cl7646070   1.357   2.975   8.149 -0.0341  0.3860 -0.2233
  378MOL    C7746071   1.304   2.800   8.338 -0.4698  0.5630  0.1001
  378MOL    H7846072   1.206   2.809   8.292 -1.0391 -0.6341  1.0351
  378MOL    H7946073   1.340   2.715   8.279 -0.0338  1.2495 -0.6327
  378MOL    C8046074   1.268   2.758   8.485 -0.4439  0.0025  0.1823
  378MOL   Cl8146075   1.119   2.838   8.544  0.3521 -0.5458  0.1021
  378MOL   Cl8246076   1.399   2.780   8.607 -0.4735  0.0701 -0.1875
  378MOL    C8346077   1.222   2.611   8.484 -0.0355  0.2336 -0.5710
  378MOL    H8446078   1.142   2.596   8.555  1.5251 -0.8664  1.0126
  378MOL    H8546079   1.164   2.603   8.392  1.1894  2.5435 -1.5917
  378MOL    C8646080   1.311   2.490   8.503 -0.3147 -0.1910 -0.1637
  378MOL   Cl8746081   1.371   2.471   8.676  0.0912  0.2091  0.0040
  378MOL   Cl8846082   1.448   2.508   8.395  0.2663 -0.0447  0.0693
  378MOL    C8946083   1.255   2.353   8.460  0.1003  0.5385  0.0114
  378MOL    H9046084   1.264   2.350   8.352 -0.0675  2.5252 -0.0615
  378MOL    H9146085   1.337   2.289   8.494 -0.4443 -0.4661 -0.5310
  378MOL    C9246086   1.112   2.301   8.504 -0.6590 -0.3999 -0.6173
  378MOL   Cl9346087   0.995   2.391   8.417  0.4654 -0.2815 -0.1832
  378MOL   Cl9446088   1.086   2.328   8.679 -0.1625 -0.0179  0.0991
  378MOL    C9546089   1.073   2.152   8.484  0.0878 -0.3061  0.1651
  378MOL    H9646090   0.981   2.137   8.541 -1.1852  2.7383 -0.9725
  378MOL    H9746091   1.058   2.140   8.377  0.4105  0.0703  0.0781
  378MOL    C9846092   1.169   2.036   8.512  0.3424  0.6012  0.5971
  378MOL   Cl9946093   1.262   2.050   8.657 -0.3087 -0.6120  0.2486
  378MOL  Cl10046094   1.305   2.044   8.399 -0.1298 -0.6989 -0.6663
  378MOL   C10146095   1.103   1.888   8.518  0.2712  0.2230 -1.0606
  378MOL   H10246096   1.186   1.819   8.505 -0.2810 -1.1275  2.1423
  378MOL   H10346097   1.068   1.861   8.617 -0.5945  0.2000 -1.3688
  378MOL   C10446098   0.994   1.837   8.412  0.8660 -0.0134 -0.6778
  378MOL  Cl10546099   1.062   1.855   8.249  0.0518  0.2465 -0.0903
  378MOL  Cl10646100   0.856   1.944   8.408 -0.7299 -0.1554 -0.1708
  378MOL   C10746101   0.948   1.685   8.431  0.2572 -0.2547  0.1866
  378MOL   H10846102   0.869   1.686   8.506  0.6420  2.7903  0.6241
  378MOL   H10946103   0.886   1.675   8.342  0.5487 -0.1961 -0.0242
  378MOL   C11046104   1.031   1.554   8.465  0.9245  0.1660 -0.1049
  378MOL  Cl11146105   1.119   1.565   8.625  0.3034 -0.2486 -0.1779
  378MOL  Cl11246106   1.156   1.531   8.342  0.2128  0.0022 -0.0165
  378MOL   C11346107   0.942   1.421   8.454 -0.6873 -0.7179 -0.7988
  378MOL   H11446108   0.892   1.417   8.357  0.0975  2.0149 -1.3679
  378MOL   H11546109   1.005   1.334   8.438 -1.7305 -1.5643 -0.3971
  378MOL   C11646110   0.851   1.368   8.563  0.4519  0.0953 -0.2564
  378MOL  Cl11746111   0.952   1.286   8.694 -0.2082  0.2210 -0.5005
  378MOL  Cl11846112   0.738   1.239   8.517  0.0487 -0.0987 -0.5430
  378MOL   C11946113   0.757   1.474   8.626 -0.5373  0.8931 -0.0232
  378MOL   H12046114   0.687   1.494   8.545 -1.3200 -1.3870  0.0697
  378MOL   H12146115   0.691   1.417   8.690 -2.5138  2.6750 -0.4213
  378MOL   H12246116   0.798   1.560   8.680 -0.3389  1.0883 -0.4758
  379MOL     C146117   4.533   7.003   5.318  0.7488 -0.1507  0.2862
  379MOL    Cl246118   4.498   6.925   5.155  0.0723  0.2578  0.0896
  379MOL    Cl346119   4.384   6.982   5.418  0.3446  0.3160 -0.3434
  379MOL     C446120   4.656   6.944   5.391 -0.4774 -0.2418  0.3863
  379MOL     H546121   4.632   6.862   5.458 -0.6813  0.7269  1.4966
  379MOL     H646122   4.721   6.899   5.315  0.8749 -2.4874  2.7994
  379MOL     H746123   4.535   7.109   5.292 -0.7495 -0.2779 -0.3968
  379MOL     C846124   4.732   7.047   5.474 -0.0131 -0.2562  0.6352
  379MOL    Cl946125   4.618   7.133   5.579 -0.1147  0.0397  0.7299
  379MOL   Cl1046126   4.800   7.168   5.358 -0.2844  0.0578 -0.1238
  379MOL    C1146127   4.838   6.987   5.565 -0.1152  0.5412 -0.1401
  379MOL    H1246128   4.880   7.064   5.629  0.5738 -0.5938  0.7917
  379MOL    H1346129   4.778   6.929   5.634 -0.6929  0.4734 -0.6917
  379MOL    C1446130   4.955   6.903   5.524 -0.1013  0.1201  0.5209
  379MOL   Cl1546131   5.050   6.986   5.399 -0.2102 -0.0101 -0.4755
  379MOL   Cl1646132   4.890   6.758   5.451 -0.2415  0.2126  0.0042
  379MOL    C1746133   5.046   6.846   5.642 -0.3307 -0.2863  0.0158
  379MOL    H1846134   5.085   6.750   5.608  0.2944  0.1990 -0.6580
  379MOL    H1946135   5.125   6.919   5.665 -1.5615  0.7047  1.1594
  379MOL    C2046136   4.987   6.817   5.778  0.0458  0.1094  0.3973
  379MOL   Cl2146137   4.841   6.716   5.769  0.6545  0.2051 -0.1325
  379MOL   Cl2246138   4.944   6.981   5.860  0.2576  0.5760 -0.4981
  379MOL    C2346139   5.068   6.729   5.870  0.0853  0.3018 -0.6431
  379MOL    H2446140   5.015   6.730   5.965 -0.5174  1.0417 -0.9790
  379MOL    H2546141   5.058   6.627   5.834  1.7470 -0.6501  1.5260
  379MOL    C2646142   5.215   6.749   5.909  0.5475 -0.2577 -0.5375
  379MOL   Cl2746143   5.234   6.918   5.960 -0.1916 -0.4297 -0.3205
  379MOL   Cl2846144   5.322   6.722   5.772  0.0419  0.4326 -0.3856
  379MOL    C2946145   5.261   6.656   6.028  0.8185  0.4362 -0.1315
  379MOL    H3046146   5.369   6.643   6.018  0.9202 -1.3518  2.5860
  379MOL    H3146147   5.245   6.705   6.124 -0.8688 -0.2705 -0.0259
  379MOL    C3246148   5.220   6.507   6.028 -0.3487 -0.2522 -0.2727
  379MOL   Cl3346149   5.231   6.438   5.867  0.3124 -0.4793 -0.0396
  379MOL   Cl3446150   5.053   6.486   6.076  0.5197  0.2245 -0.0891
  379MOL    C3546151   5.315   6.422   6.122 -0.1050  0.4869  0.3274
  379MOL    H3646152   5.285   6.318   6.110  0.0359  0.6228 -1.4466
  379MOL    H3746153   5.413   6.425   6.074 -0.6872  1.1110 -0.8611
  379MOL    C3846154   5.330   6.445   6.280 -0.1453  0.3031 -0.1480
  379MOL   Cl3946155   5.419   6.597   6.303 -0.1511 -0.2099  0.0856
  379MOL   Cl4046156   5.434   6.312   6.347 -0.2947  0.1003 -0.2703
  379MOL    C4146157   5.204   6.451   6.368 -0.4044 -0.0854 -0.1548
  379MOL    H4246158   5.151   6.537   6.327  2.2840  1.4069 -0.6123
  379MOL    H4346159   5.150   6.363   6.333 -0.4446 -0.8383  1.7080
  379MOL    C4446160   5.193   6.455   6.518  0.3420  0.1222  0.0243
  379MOL   Cl4546161   5.253   6.303   6.596 -0.1095  0.2982  0.1373
  379MOL   Cl4646162   5.026   6.484   6.561  0.1846  0.1810 -0.5003
  379MOL    C4746163   5.273   6.576   6.581 -0.0282 -0.4674  0.5140
  379MOL    H4846164   5.379   6.549   6.578 -0.3698 -1.8309  0.3188
  379MOL    H4946165   5.257   6.665   6.520  0.3874 -2.1446 -2.1575
  379MOL    C5046166   5.253   6.633   6.728  0.1844 -0.4918 -0.2628
  379MOL   Cl5146167   5.094   6.709   6.758 -0.2957  0.1934 -0.4814
  379MOL   Cl5246168   5.379   6.758   6.735  0.3231  0.2425 -0.3507
  379MOL    C5346169   5.289   6.529   6.842  0.1955  0.4481  0.1064
  379MOL    H5446170   5.349   6.456   6.788 -1.1757  0.6939 -1.7932
  379MOL    H5546171   5.362   6.567   6.914 -0.2495 -0.7522  1.2119
  379MOL    C5646172   5.190   6.461   6.940  0.4690 -0.0820 -0.1089
  379MOL   Cl5746173   5.159   6.586   7.063 -0.0550 -0.1703 -0.0932
  379MOL   Cl5846174   5.289   6.338   7.027  0.2343 -0.0273 -0.3090
  379MOL    C5946175   5.058   6.396   6.883  1.0008 -0.2493 -0.0852
  379MOL    H6046176   5.005   6.490   6.871  1.5754 -0.2698 -2.9048
  379MOL    H6146177   5.063   6.344   6.787  0.5026 -0.5946  0.0740
  379MOL    C6246178   4.961   6.303   6.971 -0.1888  0.5892  0.3993
  379MOL   Cl6346179   5.011   6.127   6.965 -0.3122  0.3467  0.4818
  379MOL   Cl6446180   4.803   6.313   6.890 -0.1269  0.3008 -0.4070
  379MOL    C6546181   4.957   6.348   7.120 -1.1941 -0.0112  0.1589
  379MOL    H6646182   5.053   6.315   7.161 -0.2668  0.6421 -1.4253
  379MOL    H6746183   4.946   6.456   7.125 -0.2761  0.1262 -0.5305
  379MOL    C6846184   4.849   6.294   7.223 -0.9781 -0.1315  0.2563
  379MOL   Cl6946185   4.698   6.365   7.177 -0.4557  0.0629 -0.1109
  379MOL   Cl7046186   4.869   6.371   7.384  0.3043 -0.0280  0.1730
  379MOL    C7146187   4.839   6.136   7.227  0.7507  0.3410  0.5783
  379MOL    H7246188   4.782   6.102   7.140  0.9866  0.3503  0.4221
  379MOL    H7346189   4.939   6.094   7.218 -0.1367 -1.7284 -0.0854
  379MOL    C7446190   4.770   6.066   7.346 -0.5172  0.3603 -0.5652
  379MOL   Cl7546191   4.736   5.904   7.298  0.0260 -0.0585 -0.3307
  379MOL   Cl7646192   4.621   6.142   7.391  0.3087 -0.0945 -0.3613
  379MOL    C7746193   4.856   6.056   7.480  0.3840  0.4093 -0.5031
  379MOL    H7846194   4.837   6.152   7.527  2.5191  0.5157  0.2127
  379MOL    H7946195   4.817   5.976   7.543 -1.4043  1.2408 -0.5468
  379MOL    C8046196   5.011   6.041   7.476 -0.3283  0.7622 -0.2533
  379MOL   Cl8146197   5.066   6.030   7.651 -0.0838 -0.0565  0.0914
  379MOL   Cl8246198   5.102   6.180   7.409  0.0492 -0.0527  0.4037
  379MOL    C8346199   5.047   5.899   7.410 -0.3142 -0.5408 -0.9011
  379MOL    H8446200   5.009   5.825   7.480 -2.4379  1.2242 -0.1262
  379MOL    H8546201   4.990   5.891   7.318  0.3300  0.6022 -1.4182
  379MOL    C8646202   5.195   5.872   7.361  0.9558 -1.0567  0.1334
  379MOL   Cl8746203   5.222   5.956   7.201 -0.3754 -0.5107 -0.4414
  379MOL   Cl8846204   5.178   5.698   7.316  0.0802  0.2436  0.4494
  379MOL    C8946205   5.299   5.904   7.480  0.4474 -0.0509  0.4169
  379MOL    H9046206   5.289   6.002   7.528 -2.2455 -1.0321  1.9461
  379MOL    H9146207   5.276   5.832   7.558  0.2790 -0.7300 -0.2586
  379MOL    C9246208   5.451   5.897   7.450 -0.2008 -0.1302 -0.0797
  379MOL   Cl9346209   5.543   5.921   7.605  0.0877  0.0713  0.0417
  379MOL   Cl9446210   5.491   6.044   7.345 -0.3611 -0.1894  0.0942
  379MOL    C9546211   5.499   5.772   7.368  0.2349 -0.9616 -0.0365
  379MOL    H9646212   5.436   5.760   7.280 -0.8270 -0.6824  0.6795
  379MOL    H9746213   5.592   5.807   7.324 -1.4590  0.6417 -2.4938
  379MOL    C9846214   5.524   5.637   7.432  0.0241  0.2879  0.4501
  379MOL   Cl9946215   5.530   5.534   7.286  0.0087  0.6434 -0.3406
  379MOL  Cl10046216   5.385   5.585   7.532 -0.1696 -0.1318 -0.1963
  379MOL   C10146217   5.661   5.612   7.499  0.2037  0.3867  0.2715
  379MOL   H10246218   5.746   5.626   7.432 -0.5970  1.0774 -0.6184
  379MOL   H10346219   5.664   5.692   7.573 -1.5357  1.3053 -0.6214
  379MOL   C10446220   5.685   5.482   7.594  0.0693  0.5532  0.4480
  379MOL  Cl10546221   5.591   5.498   7.745 -0.6044  0.0252  0.1100
  379MOL  Cl10646222   5.853   5.499   7.647  0.0872 -0.2282 -0.0062
  379MOL   C10746223   5.667   5.350   7.518 -0.3390  0.6822 -0.3024
  379MOL   H10846224   5.569   5.351   7.471 -0.8836  0.7102  0.8159
  379MOL   H10946225   5.744   5.347   7.441  1.9866  2.8889  1.8479
  379MOL   C11046226   5.674   5.217   7.589 -1.5902  0.5342 -0.6033
  379MOL  Cl11146227   5.666   5.101   7.449 -0.5537 -0.4830  0.3158
  379MOL  Cl11246228   5.544   5.186   7.711  0.2296 -0.6203  0.1943
  379MOL   C11346229   5.811   5.193   7.662  0.2029 -0.1549  0.3794
  379MOL   H11446230   5.890   5.247   7.608 -1.6796  3.2543  0.8994
  379MOL   H11546231   5.799   5.246   7.756 -2.2453 -0.2710  0.1484
  379MOL   C11646232   5.864   5.049   7.697 -0.0321 -0.3344 -0.2153
  379MOL  Cl11746233   5.987   5.062   7.828 -0.3538  0.0111 -0.2743
  379MOL  Cl11846234   5.934   4.974   7.561 -0.0811 -0.1166  0.6213
  379MOL   C11946235   5.755   4.951   7.743 -0.6215  0.7615  0.5075
  379MOL   H12046236   5.681   4.942   7.664  1.0163  0.5148 -1.0330
  379MOL   H12146237   5.793   4.852   7.768 -3.1325 -0.4772 -0.4877
  379MOL   H12246238   5.698   4.991   7.827 -0.1816  0.1913  1.0895
  380MOL     C146239   5.563   2.081   6.701 -0.2451 -0.2112  0.2851
  380MOL    Cl246240   5.588   2.111   6.873  0.1232  0.4632  0.3096
  380MOL    Cl346241   5.600   2.229   6.606  0.1068  0.1370  0.1141
  380MOL     C446242   5.633   1.969   6.630 -0.3102 -1.1843  0.5261
  380MOL     H546243   5.605   1.973   6.525 -0.8747  0.6911  0.7344
  380MOL     H646244   5.742   1.976   6.635 -0.5199  2.8304  1.0630
  380MOL     H746245   5.454   2.076   6.697 -0.3848  2.1686  0.6982
  380MOL     C846246   5.588   1.829   6.670  0.1296  1.0390  0.9371
  380MOL    Cl946247   5.663   1.718   6.549  0.0880  0.2362 -0.0296
  380MOL   Cl1046248   5.415   1.812   6.652  0.1621  0.0452  0.1361
  380MOL    C1146249   5.633   1.791   6.815 -0.1725 -0.4743 -0.0509
  380MOL    H1246250   5.731   1.839   6.823  1.4727 -3.8099  0.7410
  380MOL    H1346251   5.562   1.843   6.879  1.9740  0.4296  1.6638
  380MOL    C1446252   5.625   1.643   6.879  0.1813 -0.4766  0.7000
  380MOL   Cl1546253   5.741   1.537   6.804  0.1806 -0.1939  0.2775
  380MOL   Cl1646254   5.468   1.574   6.837  0.2570  0.4882  0.2653
  380MOL    C1746255   5.641   1.628   7.032  0.0914 -0.5755 -0.4389
  380MOL    H1846256   5.541   1.653   7.068  0.3754  0.4123 -0.3236
  380MOL    H1946257   5.671   1.525   7.049  0.6250 -0.5706 -1.3336
  380MOL    C2046258   5.745   1.707   7.116 -0.7195  0.0576 -0.2785
  380MOL   Cl2146259   5.702   1.646   7.283 -0.0249  0.3509 -0.1741
  380MOL   Cl2246260   5.707   1.883   7.112 -0.3202  0.0402 -0.2201
  380MOL    C2346261   5.894   1.682   7.091 -0.5800 -0.6167 -0.0017
  380MOL    H2446262   5.917   1.583   7.130 -0.1762  0.7921  3.4753
  380MOL    H2546263   5.909   1.665   6.984 -2.0634  0.5719 -0.4193
  380MOL    C2646264   6.010   1.779   7.129  0.7586 -0.1450 -0.7302
  380MOL   Cl2746265   5.993   1.851   7.293 -0.3201  0.0779 -0.0127
  380MOL   Cl2846266   6.020   1.919   7.020  0.0888  0.0491 -0.1883
  380MOL    C2946267   6.153   1.721   7.144 -0.1046  0.2525  0.6808
  380MOL    H3046268   6.209   1.807   7.181  1.9692 -1.1545  0.9008
  380MOL    H3146269   6.133   1.651   7.225 -0.5595 -2.1042 -1.4016
  380MOL    C3246270   6.237   1.639   7.044  0.7375  0.2070 -0.4513
  380MOL   Cl3346271   6.151   1.509   6.962  0.1713  0.4428  0.3323
  380MOL   Cl3446272   6.355   1.555   7.155  0.4040 -0.1169  0.1941
  380MOL    C3546273   6.298   1.740   6.939 -0.0954 -0.8393 -0.4209
  380MOL    H3646274   6.213   1.796   6.901 -1.0978 -1.8521  0.2877
  380MOL    H3746275   6.364   1.804   6.999 -2.0066  0.7660  0.0374
  380MOL    C3846276   6.378   1.688   6.816 -0.1576  0.0704  0.3766
  380MOL   Cl3946277   6.497   1.582   6.885 -0.0338 -0.4113  0.5871
  380MOL   Cl4046278   6.458   1.831   6.746  0.1761  0.1960 -0.0225
  380MOL    C4146279   6.292   1.624   6.703 -0.0063 -0.2342 -0.6475
  380MOL    H4246280   6.228   1.541   6.732 -0.9989  0.8732  0.3664
  380MOL    H4346281   6.223   1.705   6.681 -1.1490 -0.9390  0.2768
  380MOL    C4446282   6.344   1.577   6.570 -0.3220 -0.4712 -0.6452
  380MOL   Cl4546283   6.471   1.455   6.587 -0.0866  0.0794 -0.1058
  380MOL   Cl4646284   6.406   1.709   6.466 -0.3057  0.0957 -0.2987
  380MOL    C4746285   6.232   1.502   6.487 -0.0191 -0.1742  0.5566
  380MOL    H4846286   6.289   1.458   6.405  0.7641  0.9030  0.5258
  380MOL    H4946287   6.201   1.413   6.542  1.2053 -0.0713  1.4205
  380MOL    C5046288   6.097   1.570   6.436 -0.4406 -0.7263  0.1516
  380MOL   Cl5146289   6.139   1.684   6.299 -0.3004  0.1186 -0.1892
  380MOL   Cl5246290   6.023   1.660   6.559  0.0513 -0.1115 -0.0276
  380MOL    C5346291   5.981   1.484   6.377  0.4895 -0.5246  0.3723
  380MOL    H5446292   5.938   1.424   6.457 -1.3721 -1.2799 -1.1737
  380MOL    H5546293   5.898   1.544   6.340 -0.6005 -0.8912  2.1107
  380MOL    C5646294   6.017   1.371   6.276 -0.2478 -0.7646  0.2586
  380MOL   Cl5746295   5.864   1.282   6.252 -0.2750 -0.3523  0.2913
  380MOL   Cl5846296   6.125   1.246   6.342  0.0687  0.1933  0.0878
  380MOL    C5946297   6.068   1.426   6.140 -0.0561 -0.5405  0.0235
  380MOL    H6046298   6.018   1.519   6.113 -1.5762 -1.4117 -0.1772
  380MOL    H6146299   6.171   1.459   6.157 -0.5638  1.4367 -0.6347
  380MOL    C6246300   6.071   1.341   6.011 -0.1833  0.0412 -0.0616
  380MOL   Cl6346301   6.167   1.434   5.887  0.3837  0.3844  0.1177
  380MOL   Cl6446302   5.912   1.318   5.939  0.2242  0.2124  0.4081
  380MOL    C6546303   6.137   1.199   6.034 -0.2762 -0.2013  0.0707
  380MOL    H6646304   6.245   1.215   6.041 -0.0906 -1.4737  0.1268
  380MOL    H6746305   6.090   1.167   6.127  1.1475  0.7053  1.1126
  380MOL    C6846306   6.127   1.073   5.938  0.6630 -0.2660 -0.1138
  380MOL   Cl6946307   5.965   0.999   5.954  0.0905 -0.1847 -0.3248
  380MOL   Cl7046308   6.244   0.958   6.006 -0.1217  0.1334  0.5693
  380MOL    C7146309   6.163   1.114   5.788  0.3753  0.0250  0.4019
  380MOL    H7246310   6.081   1.178   5.756 -1.3917 -1.4265  1.9479
  380MOL    H7346311   6.260   1.165   5.790  0.2969  0.2066 -0.5199
  380MOL    C7446312   6.200   0.999   5.688  0.6884 -0.6756 -0.0272
  380MOL   Cl7546313   6.090   0.858   5.693 -0.1223  0.0757  0.6255
  380MOL   Cl7646314   6.371   0.943   5.711  0.0090  0.4842 -0.0376
  380MOL    C7746315   6.178   1.051   5.544 -0.0871  0.1564  0.5984
  380MOL    H7846316   6.230   0.974   5.487 -0.0423  0.8061 -0.2470
  380MOL    H7946317   6.071   1.055   5.524  0.2689  2.6008 -1.0813
  380MOL    C8046318   6.234   1.185   5.487 -0.4059  0.5458 -0.6351
  380MOL   Cl8146319   6.399   1.218   5.548 -0.0959  0.2573 -0.0150
  380MOL   Cl8246320   6.140   1.319   5.547 -0.1397  0.1660  0.0797
  380MOL    C8346321   6.226   1.201   5.333 -0.6205  0.2695  0.2079
  380MOL    H8446322   6.266   1.298   5.306  0.2550  0.1417  1.0123
  380MOL    H8546323   6.304   1.139   5.288 -1.2583  2.2977 -3.9820
  380MOL    C8646324   6.101   1.167   5.241  0.2717  0.2410  0.1283
  380MOL   Cl8746325   6.066   0.983   5.249 -0.0388 -0.2996  0.3877
  380MOL   Cl8846326   6.157   1.213   5.083  0.4341  0.0535  0.1500
  380MOL    C8946327   5.975   1.243   5.286  0.7163 -0.5300 -0.3091
  380MOL    H9046328   5.943   1.184   5.371 -1.0019 -2.3571 -2.1708
  380MOL    H9146329   6.002   1.342   5.324 -0.9286  0.3057 -1.2566
  380MOL    C9246330   5.856   1.272   5.184 -0.3066 -0.1383  0.4818
  380MOL   Cl9346331   5.921   1.415   5.100 -0.4921 -0.0857  0.3548
  380MOL   Cl9446332   5.712   1.326   5.276  0.3436  0.6051  0.1732
  380MOL    C9546333   5.822   1.159   5.081 -0.0636  0.6030 -0.0575
  380MOL    H9646334   5.906   1.154   5.013  0.7156  1.3622  0.8294
  380MOL    H9746335   5.834   1.060   5.127 -1.3142  0.4958  0.0505
  380MOL    C9846336   5.700   1.159   4.982  0.4912 -0.0689 -0.4214
  380MOL   Cl9946337   5.662   1.327   4.917 -0.0915  0.4195 -0.4566
  380MOL  Cl10046338   5.556   1.097   5.066 -0.2380  0.4347  0.2353
  380MOL   C10146339   5.733   1.076   4.851 -0.1070 -0.3385  0.4521
  380MOL   H10246340   5.642   1.069   4.791  0.4959 -2.5592 -0.2770
  380MOL   H10346341   5.797   1.127   4.778 -0.8786  0.3029  0.2170
  380MOL   C10446342   5.783   0.925   4.865  0.4436  0.0435  0.7118
  380MOL  Cl10546343   5.721   0.838   5.011 -0.1261 -0.0370  0.1494
  380MOL  Cl10646344   5.958   0.923   4.879  0.1643  0.4129  0.3018
  380MOL   C10746345   5.735   0.839   4.744 -0.5594 -0.6778 -0.1328
  380MOL   H10846346   5.634   0.807   4.771 -0.3772  0.1482  1.6167
  380MOL   H10946347   5.734   0.904   4.657 -1.9871 -1.1550 -0.4896
  380MOL   C11046348   5.811   0.713   4.703 -0.1986 -0.9381  0.3840
  380MOL  Cl11146349   5.870   0.618   4.842 -0.1291  0.3500 -0.0905
  380MOL  Cl11246350   5.953   0.776   4.609  0.2690  0.3945  0.1863
  380MOL   C11346351   5.725   0.616   4.616  0.5218  0.4994 -0.5438
  380MOL   H11446352   5.630   0.598   4.667 -0.5520 -0.5274 -2.8143
  380MOL   H11546353   5.698   0.661   4.520  2.3526  3.7338  0.4029
  380MOL   C11646354   5.773   0.485   4.557  0.0406  0.1656  0.2560
  380MOL  Cl11746355   5.624   0.423   4.478 -0.4069  0.5761  0.7613
  380MOL  Cl11846356   5.833   0.361   4.675  0.2664  0.0647  0.1231
  380MOL   C11946357   5.882   0.494   4.449 -0.0929 -0.9798  0.2022
  380MOL   H12046358   5.828   0.513   4.356 -0.7971 -1.6710  0.4566
  380MOL   H12146359   5.965   0.562   4.465 -0.8314  0.3939 -1.6854
  380MOL   H12246360   5.932   0.397   4.442 -0.1342 -1.0168  0.4084
  381MOL     C146361   7.133   1.318   4.166 -1.1587 -0.2173 -0.3067
  381MOL    Cl246362   7.254   1.345   4.034  0.4361  0.1000  0.2428
  381MOL    Cl346363   6.987   1.249   4.102 -0.1185 -0.1608 -0.2705
  381MOL     C446364   7.194   1.228   4.275 -0.7485 -0.6047 -0.5658
  381MOL     H546365   7.207   1.134   4.223 -3.1153 -1.6195  0.5750
  381MOL     H646366   7.298   1.255   4.294 -0.1276 -3.0880 -0.2859
  381MOL     H746367   7.106   1.410   4.216 -0.6723  0.1503 -0.7160
  381MOL     C846368   7.133   1.211   4.415  0.7019 -0.3756 -0.1877
  381MOL    Cl946369   7.158   1.376   4.486  0.2513  0.1128 -0.2443
  381MOL   Cl1046370   7.240   1.089   4.495 -0.1660  0.1638  0.2195
  381MOL    C1146371   6.983   1.167   4.414 -0.0908  0.4110  0.0392
  381MOL    H1246372   6.933   1.249   4.363 -0.0976 -0.9020 -2.0968
  381MOL    H1346373   6.975   1.083   4.345 -1.3170 -0.3681  1.0847
  381MOL    C1446374   6.903   1.123   4.543 -0.1385 -0.2018 -0.3585
  381MOL   Cl1546375   6.896   1.248   4.665  0.4975  0.0050 -0.4190
  381MOL   Cl1646376   6.971   0.982   4.639  0.0643 -0.3412 -0.1848
  381MOL    C1746377   6.752   1.100   4.507  0.4199  0.4868  0.3575
  381MOL    H1846378   6.708   1.052   4.595  2.0154  0.3231  1.0864
  381MOL    H1946379   6.712   1.201   4.516  0.6583  0.7342 -1.2994
  381MOL    C2046380   6.688   1.019   4.386  0.8175 -0.0652  0.5412
  381MOL   Cl2146381   6.794   0.875   4.358  0.6125 -0.0394 -0.1751
  381MOL   Cl2246382   6.702   1.127   4.238  0.4786 -0.1930  0.0524
  381MOL    C2346383   6.542   0.967   4.417  0.0958  0.4859 -0.1529
  381MOL    H2446384   6.571   0.882   4.480  0.9106  0.7528 -0.1666
  381MOL    H2546385   6.482   1.021   4.490  0.3878  0.4858  0.0887
  381MOL    C2646386   6.451   0.927   4.295 -0.5907  0.0100 -0.2991
  381MOL   Cl2746387   6.387   1.077   4.221  0.0384 -0.1840  0.1105
  381MOL   Cl2846388   6.322   0.833   4.362  0.2874 -0.3284  0.0335
  381MOL    C2946389   6.522   0.829   4.192 -0.2292  0.0334  0.4276
  381MOL    H3046390   6.606   0.882   4.148  0.1346 -1.2921 -0.4949
  381MOL    H3146391   6.566   0.754   4.258 -0.6024 -1.3826 -0.9013
  381MOL    C3246392   6.447   0.760   4.068 -0.1647 -0.2747  0.3341
  381MOL   Cl3346393   6.352   0.620   4.133 -0.4625  0.3344 -0.3305
  381MOL   Cl3446394   6.577   0.695   3.953 -0.1709  0.0311 -0.4519
  381MOL    C3546395   6.343   0.846   3.991  0.3981 -0.0301  0.2255
  381MOL    H3646396   6.255   0.849   4.055 -0.2638 -0.8035 -0.6412
  381MOL    H3746397   6.369   0.952   3.989 -1.7302  0.4809 -1.0426
  381MOL    C3846398   6.311   0.803   3.848 -0.0389  0.5288 -0.3718
  381MOL   Cl3946399   6.445   0.858   3.738 -0.3575 -0.2016  0.0030
  381MOL   Cl4046400   6.171   0.904   3.815  0.0366 -0.0866 -0.2365
  381MOL    C4146401   6.267   0.652   3.832  0.4127  0.1468 -0.1419
  381MOL    H4246402   6.356   0.591   3.849  0.2481 -0.0507  0.0124
  381MOL    H4346403   6.189   0.634   3.906  2.3722  1.7131  2.4034
  381MOL    C4446404   6.219   0.599   3.696 -0.1537  0.1555  0.6115
  381MOL   Cl4546405   6.205   0.425   3.736 -0.0654 -0.5243  0.3383
  381MOL   Cl4646406   6.346   0.618   3.577  0.1449  0.0994  0.3744
  381MOL    C4746407   6.078   0.649   3.643  0.3602 -0.1210 -0.5342
  381MOL    H4846408   6.003   0.657   3.722  0.5342  1.4197 -0.4924
  381MOL    H4946409   6.103   0.754   3.627  1.7936  0.1324  2.9816
  381MOL    C5046410   6.005   0.581   3.523  0.1381  0.5146  0.2727
  381MOL   Cl5146411   6.111   0.580   3.386 -0.1302 -0.3376 -0.0861
  381MOL   Cl5246412   5.863   0.684   3.469  0.0444  0.0748  0.1454
  381MOL    C5346413   5.953   0.435   3.544  0.4865 -0.6892 -0.2340
  381MOL    H5446414   5.914   0.416   3.444 -0.6166  1.2994 -0.2041
  381MOL    H5546415   6.038   0.367   3.542  1.5494  0.6223 -0.0460
  381MOL    C5646416   5.844   0.395   3.651  0.5125 -0.2208 -0.6162
  381MOL   Cl5746417   5.690   0.471   3.607  0.0778 -0.1611 -0.0859
  381MOL   Cl5846418   5.892   0.444   3.816  0.1999 -0.0640 -0.0160
  381MOL    C5946419   5.825   0.239   3.659 -0.7420 -0.2756 -0.9209
  381MOL    H6046420   5.804   0.203   3.558 -0.8945 -0.1123 -0.9470
  381MOL    H6146421   5.921   0.197   3.691 -0.8563  1.2402  1.5458
  381MOL    C6246422   5.703   0.167   3.731 -0.0769  0.1026  0.4616
  381MOL   Cl6346423   5.746   9.179   3.735 -0.3078 -0.2355  0.2110
  381MOL   Cl6446424   5.557   0.187   3.634 -0.5507  0.1419  0.4829
  381MOL    C6546425   5.660   0.223   3.867 -0.3121  0.2153 -0.0693
  381MOL    H6646426   5.672   0.330   3.851 -1.3282  0.5357  1.1826
  381MOL    H6746427   5.551   0.215   3.872 -0.1854 -1.0124  1.3428
  381MOL    C6846428   5.716   0.175   4.002 -0.0618 -0.0616  0.3086
  381MOL   Cl6946429   5.645   0.013   4.021 -0.1095  0.0830 -0.0303
  381MOL   Cl7046430   5.647   0.280   4.129  0.0748  0.1803  0.1500
  381MOL    C7146431   5.866   0.190   4.012 -0.0835 -0.1946 -0.8586
  381MOL    H7246432   5.915   0.188   3.915 -0.2599  0.5964 -0.9729
  381MOL    H7346433   5.885   0.294   4.040  0.8478 -0.3723 -0.8238
  381MOL    C7446434   5.955   0.116   4.116  0.1772 -0.3715  0.4342
  381MOL   Cl7546435   5.878   0.140   4.281 -0.1370 -0.1043 -0.1762
  381MOL   Cl7646436   6.110   0.211   4.110 -0.2288 -0.0401  0.2808
  381MOL    C7746437   5.963   9.144   4.085  0.3334  0.7185  0.2754
  381MOL    H7846438   5.870   9.094   4.112  2.3343 -3.8642 -0.7438
  381MOL    H7946439   5.967   9.127   3.977 -0.4401  2.1643  0.0059
  381MOL    C8046440   6.065   9.046   4.150 -0.2068 -0.1566 -0.3483
  381MOL   Cl8146441   6.216   9.073   4.055 -0.1021  0.4202  0.5068
  381MOL   Cl8246442   6.013   8.885   4.120 -0.2899 -0.0446 -0.3214
  381MOL    C8346443   6.094   9.077   4.305  0.4453 -0.0816 -0.8903
  381MOL    H8446444   6.160   9.163   4.308 -1.7686  1.5841  1.9005
  381MOL    H8546445   6.001   9.114   4.347  1.8371  2.5205 -0.0203
  381MOL    C8646446   6.153   8.964   4.397  0.0541 -0.3935  0.3290
  381MOL   Cl8746447   6.030   8.839   4.427  0.2922  0.3531  0.0631
  381MOL   Cl8846448   6.196   9.066   4.540 -0.0783  0.2262  0.1280
  381MOL    C8946449   6.284   8.898   4.345 -0.0267  0.0446  0.3351
  381MOL    H9046450   6.258   8.825   4.268  1.5917  0.2844 -0.4482
  381MOL    H9146451   6.337   8.980   4.295 -0.7671  1.0531  1.1653
  381MOL    C9246452   6.393   8.841   4.434  0.3587  0.7101  0.3296
  381MOL   Cl9346453   6.323   8.748   4.567  0.3510 -0.5980  0.3980
  381MOL   Cl9446454   6.485   8.976   4.494  0.1959  0.1724  0.0141
  381MOL    C9546455   6.475   8.739   4.353 -0.3208  0.0943  1.2171
  381MOL    H9646456   6.565   8.724   4.413  1.2227 -0.2357 -1.1205
  381MOL    H9746457   6.421   8.644   4.361 -0.4030 -0.0473 -0.8534
  381MOL    C9846458   6.539   8.763   4.213  0.0661  0.0124 -0.6669
  381MOL   Cl9946459   6.421   8.753   4.079 -0.0748 -0.0448 -0.2664
  381MOL  Cl10046460   6.626   8.611   4.192  0.2651  0.1138  0.2825
  381MOL   C10146461   6.623   8.895   4.210 -0.6018  0.1571 -0.2861
  381MOL   H10246462   6.580   8.987   4.250 -0.2613  0.2133 -0.0483
  381MOL   H10346463   6.704   8.866   4.277 -2.0674 -2.1555  0.5728
  381MOL   C10446464   6.694   8.935   4.074  0.0870  0.4396  0.1595
  381MOL  Cl10546465   6.809   9.062   4.122 -0.1002 -0.0329  0.3902
  381MOL  Cl10646466   6.585   9.021   3.962  0.0344 -0.1074 -0.1724
  381MOL   C10746467   6.779   8.826   3.997 -0.8751  0.2829 -0.2689
  381MOL   H10846468   6.853   8.790   4.069  0.2579  1.5955 -0.7578
  381MOL   H10946469   6.710   8.743   3.980 -2.4337  1.7565 -1.3746
  381MOL   C11046470   6.851   8.838   3.862  0.5112  0.4327  0.2393
  381MOL  Cl11146471   6.730   8.840   3.729  0.3019 -0.1746  0.0642
  381MOL  Cl11246472   6.941   8.683   3.851  0.1180  0.0242  0.3229
  381MOL   C11346473   6.954   8.957   3.857  0.3354 -0.7909  0.5839
  381MOL   H11446474   6.902   9.053   3.851  0.5726 -0.8091 -2.5985
  381MOL   H11546475   7.009   8.948   3.951  0.3507 -0.2932  0.6251
  381MOL   C11646476   7.061   8.970   3.743 -0.1697  0.0083 -0.5702
  381MOL  Cl11746477   7.208   8.873   3.758 -0.0523  0.0064  0.2821
  381MOL  Cl11846478   7.119   9.136   3.735 -0.2891 -0.0151  0.2877
  381MOL   C11946479   6.996   8.937   3.611 -0.2264 -0.2798 -0.1237
  381MOL   H12046480   7.058   8.938   3.521  1.8418  4.0149  1.1945
  381MOL   H12146481   6.958   8.835   3.610 -2.8333  0.6348 -0.1740
  381MOL   H12246482   6.918   9.011   3.589 -0.8344 -0.6188  0.8354
  382MOL     C146483   4.657   5.040   6.651 -0.9106  0.2953 -0.3904
  382MOL    Cl246484   4.800   4.968   6.737 -0.0523 -0.1841  0.1951
  382MOL    Cl346485   4.644   4.983   6.478 -0.0087 -0.1420  0.2318
  382MOL     C446486   4.537   4.982   6.716  0.4083  0.2413 -0.1736
  382MOL     H546487   4.462   4.982   6.637  1.1200 -2.0135 -0.8908
  382MOL     H646488   4.550   4.879   6.747 -1.7426  0.5258  1.7831
  382MOL     H746489   4.662   5.149   6.648  3.0343  0.2529  1.3614
  382MOL     C846490   4.478   5.072   6.828  0.1778  0.4749  0.4481
  382MOL    Cl946491   4.430   5.232   6.755 -0.0583 -0.4327 -0.3777
  382MOL   Cl1046492   4.608   5.117   6.944 -0.0365  0.3978 -0.1479
  382MOL    C1146493   4.349   5.022   6.898 -0.0337  0.3423 -0.0395
  382MOL    H1246494   4.320   5.090   6.979 -0.2507  1.5336 -1.1008
  382MOL    H1346495   4.273   5.033   6.821  0.4056  2.9316 -0.1708
  382MOL    C1446496   4.332   4.882   6.960  0.1542 -0.2602 -0.2993
  382MOL   Cl1546497   4.324   4.769   6.830  0.0767 -0.2487  0.3489
  382MOL   Cl1646498   4.170   4.886   7.041  0.2510 -0.0580  0.0803
  382MOL    C1746499   4.464   4.827   7.037 -0.3990 -0.6793  0.2068
  382MOL    H1846500   4.466   4.718   7.028 -0.0312 -0.9122  2.8429
  382MOL    H1946501   4.557   4.855   6.988 -0.4832 -1.0638 -0.1805
  382MOL    C2046502   4.478   4.856   7.189 -0.0026  1.2408  0.3559
  382MOL   Cl2146503   4.363   4.758   7.287  0.0841 -0.5114 -0.0999
  382MOL   Cl2246504   4.431   5.020   7.224  0.0178 -0.1638 -0.1768
  382MOL    C2346505   4.628   4.852   7.239  0.2194  0.3626 -0.0008
  382MOL    H2446506   4.671   4.939   7.190 -0.7070  0.5108 -0.5611
  382MOL    H2546507   4.619   4.872   7.346 -0.6177 -4.1914  0.8694
  382MOL    C2646508   4.731   4.740   7.220 -0.7768 -0.1022 -0.0278
  382MOL   Cl2746509   4.757   4.698   7.053 -0.0653 -0.2905 -0.0513
  382MOL   Cl2846510   4.655   4.589   7.295 -0.8802 -0.2083 -0.0347
  382MOL    C2946511   4.865   4.770   7.285 -0.6864 -0.8076 -0.1597
  382MOL    H3046512   4.854   4.753   7.392  1.6078 -4.3760 -0.4264
  382MOL    H3146513   4.938   4.695   7.256  0.0759  0.3218 -1.1795
  382MOL    C3246514   4.933   4.909   7.274 -0.1794  0.6727  0.5542
  382MOL   Cl3346515   4.868   5.015   7.404 -0.2574 -0.0845 -0.2582
  382MOL   Cl3446516   4.914   4.988   7.117 -0.1223 -0.1073 -0.1246
  382MOL    C3546517   5.089   4.901   7.306  0.1901 -0.2441 -0.3441
  382MOL    H3646518   5.113   4.847   7.398  0.7089 -0.2781 -0.4962
  382MOL    H3746519   5.126   4.843   7.221  0.9705  0.9090 -0.7958
  382MOL    C3846520   5.196   5.030   7.313 -0.2042 -0.2074 -0.4845
  382MOL   Cl3946521   5.361   4.971   7.319 -0.0478  0.2243  0.1172
  382MOL   Cl4046522   5.181   5.108   7.474  0.1764  0.1351  0.0661
  382MOL    C4146523   5.185   5.125   7.191  0.3402  0.6293  0.2664
  382MOL    H4246524   5.186   5.068   7.099  0.1740 -0.1565  0.7446
  382MOL    H4346525   5.085   5.164   7.210  0.2113 -0.4706  2.0155
  382MOL    C4446526   5.269   5.255   7.175  0.4730  0.0307  0.0249
  382MOL   Cl4546527   5.441   5.219   7.156 -0.3543  0.1633  0.0769
  382MOL   Cl4646528   5.250   5.359   7.314  0.3549 -0.0445 -0.1483
  382MOL    C4746529   5.221   5.351   7.065  0.5771  0.1926 -0.4497
  382MOL    H4846530   5.115   5.364   7.086  0.3329 -0.5615 -1.1933
  382MOL    H4946531   5.281   5.442   7.065  1.7689 -0.5692  1.8194
  382MOL    C5046532   5.222   5.315   6.917 -0.2495  0.7422  0.0929
  382MOL   Cl5146533   5.133   5.172   6.876 -0.1678  0.1013  0.1310
  382MOL   Cl5246534   5.388   5.286   6.856 -0.1984  0.1429  0.4342
  382MOL    C5346535   5.161   5.418   6.824 -0.1771 -0.6168 -0.1333
  382MOL    H5446536   5.189   5.390   6.722  1.9204 -0.0216  0.2485
  382MOL    H5546537   5.054   5.399   6.824 -0.4793  0.9599  0.6481
  382MOL    C5646538   5.200   5.575   6.839  0.3792  0.2885 -0.9129
  382MOL   Cl5746539   5.370   5.601   6.873  0.1369  0.0719  0.1491
  382MOL   Cl5846540   5.105   5.646   6.970  0.1772  0.1407  0.2225
  382MOL    C5946541   5.179   5.651   6.707  0.0529  0.0508 -0.3786
  382MOL    H6046542   5.241   5.741   6.699  1.8969 -1.1316  0.2638
  382MOL    H6146543   5.223   5.593   6.625  0.9429 -0.9706  0.7997
  382MOL    C6246544   5.035   5.700   6.661 -0.3575  0.6221  0.4900
  382MOL   Cl6346545   4.981   5.834   6.748 -0.4280  0.4592 -0.0622
  382MOL   Cl6446546   4.915   5.569   6.690  0.4342  0.2550 -0.3797
  382MOL    C6546547   5.028   5.733   6.510 -0.2090  0.0664  0.6654
  382MOL    H6646548   5.054   5.641   6.459 -0.5941 -0.0691  0.7096
  382MOL    H6746549   4.923   5.743   6.482  0.5676  2.3585 -1.7030
  382MOL    C6846550   5.103   5.841   6.428  0.3177  0.1172  1.0313
  382MOL   Cl6946551   5.267   5.849   6.471  0.0374 -0.0212  0.1232
  382MOL   Cl7046552   5.044   5.998   6.464 -0.1644 -0.0866  0.0431
  382MOL    C7146553   5.082   5.825   6.271  0.7089  0.0373 -1.2464
  382MOL    H7246554   4.979   5.847   6.243  1.0230  1.3892 -1.3860
  382MOL    H7346555   5.149   5.903   6.233  1.2974  0.5414  0.7684
  382MOL    C7446556   5.122   5.686   6.200  0.3794 -0.5342 -0.1365
  382MOL   Cl7546557   4.981   5.577   6.212 -0.1675  0.0430 -0.1367
  382MOL   Cl7646558   5.274   5.621   6.267 -0.5364 -0.1597  0.4845
  382MOL    C7746559   5.156   5.702   6.049  0.1516 -0.9361 -0.7725
  382MOL    H7846560   5.259   5.737   6.047  0.5185 -1.9096  0.4219
  382MOL    H7946561   5.164   5.602   6.007 -1.3389 -1.6900  0.6830
  382MOL    C8046562   5.063   5.794   5.956 -0.0946 -0.3391 -0.1379
  382MOL   Cl8146563   5.109   5.963   5.989  0.2535 -0.5611  0.3585
  382MOL   Cl8246564   4.887   5.774   5.988 -0.0876  0.0376 -0.1983
  382MOL    C8346565   5.083   5.766   5.806  0.6341  0.2035 -0.6305
  382MOL    H8446566   5.004   5.826   5.762 -0.6673 -0.4159  0.8207
  382MOL    H8546567   5.177   5.809   5.771  1.1527 -0.3937 -0.0068
  382MOL    C8646568   5.096   5.617   5.750 -0.0898  0.1168  0.4790
  382MOL   Cl8746569   4.980   5.514   5.839 -0.3436  0.3867 -0.2229
  382MOL   Cl8846570   5.264   5.546   5.773 -0.0630 -0.0189  0.3831
  382MOL    C8946571   5.067   5.601   5.597  0.0247  0.0673 -0.1952
  382MOL    H9046572   5.091   5.497   5.574 -0.1009 -0.1603  0.6665
  382MOL    H9146573   4.958   5.596   5.599  0.0297  0.2253  1.1645
  382MOL    C9246574   5.130   5.695   5.493 -0.7268  0.1787 -0.4983
  382MOL   Cl9346575   5.296   5.741   5.529  0.0647  0.0049  0.1890
  382MOL   Cl9446576   5.033   5.843   5.476 -0.1616  0.3160  0.1088
  382MOL    C9546577   5.134   5.623   5.353  0.3132  0.0048 -0.4410
  382MOL    H9646578   5.183   5.526   5.363  0.3270  0.0808  0.2762
  382MOL    H9746579   5.031   5.605   5.323  0.1097  1.8932 -0.9528
  382MOL    C9846580   5.188   5.688   5.219 -0.1674  0.2983 -0.2939
  382MOL   Cl9946581   5.132   5.855   5.195 -0.0100 -0.4364  0.1955
  382MOL  Cl10046582   5.120   5.585   5.087 -0.1827  0.0189 -0.0193
  382MOL   C10146583   5.341   5.665   5.215 -0.0111  0.2977  0.3321
  382MOL   H10246584   5.387   5.681   5.312  0.7194  1.2272 -0.1559
  382MOL   H10346585   5.360   5.559   5.200 -1.2518  0.1662 -0.4350
  382MOL   C10446586   5.438   5.737   5.109  0.2980 -0.5470  0.3978
  382MOL  Cl10546587   5.595   5.657   5.120  0.2790  0.3928 -0.1377
  382MOL  Cl10646588   5.466   5.893   5.180  0.0661 -0.2937  0.1621
  382MOL   C10746589   5.382   5.743   4.959  0.3337 -0.3279  0.3800
  382MOL   H10846590   5.357   5.639   4.939 -0.8640 -0.5923  3.0840
  382MOL   H10946591   5.291   5.804   4.966 -0.6395 -1.6460 -0.4588
  382MOL   C11046592   5.468   5.791   4.835 -0.5809 -0.0722  0.0265
  382MOL  Cl11146593   5.584   5.665   4.796 -0.1070 -0.1698  0.3727
  382MOL  Cl11246594   5.554   5.941   4.877  0.2187  0.2585 -0.2636
  382MOL   C11346595   5.390   5.819   4.708  0.2370  0.0592  0.2123
  382MOL   H11446596   5.450   5.839   4.620 -0.2443  0.3425 -0.0511
  382MOL   H11546597   5.345   5.722   4.683  1.4400 -0.6903  0.9157
  382MOL   C11646598   5.268   5.916   4.699  0.1751 -0.1914 -0.3821
  382MOL  Cl11746599   5.124   5.853   4.786  0.7164 -0.1851 -0.0413
  382MOL  Cl11846600   5.235   5.935   4.524  0.0863  0.0596  0.3101
  382MOL   C11946601   5.279   6.058   4.762 -0.9143 -0.1544 -0.0487
  382MOL   H12046602   5.307   6.051   4.868 -2.9679  1.4185  0.6267
  382MOL   H12146603   5.349   6.129   4.719 -2.9436  1.6763 -0.4252
  382MOL   H12246604   5.186   6.115   4.759 -1.5935 -1.2476 -0.0199
  383MOL     C146605   7.845   8.722   5.067  0.9184  0.8507  0.0356
  383MOL    Cl246606   7.914   8.784   4.912 -0.0815 -0.2602  0.2095
  383MOL    Cl346607   7.761   8.563   5.044 -0.2101 -0.2129  0.1743
  383MOL     C446608   7.965   8.704   5.172  0.2439 -1.0059 -0.4571
  383MOL     H546609   7.923   8.641   5.250 -0.7707  0.4436  0.2009
  383MOL     H646610   8.055   8.656   5.134  0.8663  0.0762 -0.3797
  383MOL     H746611   7.760   8.785   5.093  0.9308  2.1481 -2.8171
  383MOL     C846612   8.030   8.831   5.235 -0.1851  0.5177 -0.1115
  383MOL    Cl946613   7.906   8.940   5.309  0.0242 -0.2688 -0.2675
  383MOL   Cl1046614   8.132   8.914   5.112 -0.0449  0.1159  0.0703
  383MOL    C1146615   8.127   8.794   5.351 -0.1876  0.7531 -0.2389
  383MOL    H1246616   8.223   8.762   5.310 -0.0361  0.1719  0.5666
  383MOL    H1346617   8.148   8.889   5.401 -2.0533  0.4573  1.1466
  383MOL    C1446618   8.096   8.692   5.461 -0.0442 -0.3290 -0.2688
  383MOL   Cl1546619   8.114   8.531   5.397  0.0117 -0.2502  0.4710
  383MOL   Cl1646620   7.930   8.703   5.526  0.1057  0.2682  0.1627
  383MOL    C1746621   8.200   8.716   5.571 -0.4635 -0.5276  0.1377
  383MOL    H1846622   8.294   8.750   5.526 -0.3668  0.5312  1.0933
  383MOL    H1946623   8.158   8.806   5.615 -1.0677 -1.4863  1.5219
  383MOL    C2046624   8.239   8.599   5.670  0.5472 -1.1436  0.8153
  383MOL   Cl2146625   8.355   8.492   5.590 -0.0445  0.0194  0.1967
  383MOL   Cl2246626   8.095   8.508   5.712  0.2834 -0.3974  0.0537
  383MOL    C2346627   8.294   8.659   5.800 -0.2662 -0.2016 -0.1575
  383MOL    H2446628   8.240   8.751   5.824  2.0804  0.3433  3.2411
  383MOL    H2546629   8.277   8.588   5.880 -1.5287 -1.0229 -1.1302
  383MOL    C2646630   8.438   8.699   5.816 -0.2475  0.1679  0.1247
  383MOL   Cl2746631   8.448   8.788   5.972 -0.2311 -0.3681 -0.0449
  383MOL   Cl2846632   8.498   8.817   5.698  0.5201 -0.1994 -0.1354
  383MOL    C2946633   8.536   8.574   5.843  0.6737 -0.4498 -0.0223
  383MOL    H3046634   8.529   8.541   5.947  1.5642 -1.2364 -0.2006
  383MOL    H3146635   8.512   8.481   5.792 -0.8194 -0.2789  0.3241
  383MOL    C3246636   8.692   8.590   5.817  0.2767  0.3020 -0.3047
  383MOL   Cl3346637   8.729   8.573   5.645  0.1353 -0.0567  0.3004
  383MOL   Cl3446638   8.759   8.450   5.904  0.5253 -0.3402 -0.2847
  383MOL    C3546639   8.751   8.723   5.872  1.3800 -0.1413  0.1229
  383MOL    H3646640   8.698   8.814   5.840 -0.5699 -1.4288 -0.4075
  383MOL    H3746641   8.733   8.727   5.979  1.6362  0.1823  0.1559
  383MOL    C3846642   8.904   8.765   5.849  0.0728  0.1428 -0.1543
  383MOL   Cl3946643   8.930   8.799   5.673 -0.0142 -0.3660 -0.1752
  383MOL   Cl4046644   9.010   8.633   5.903  0.3979 -0.2730 -0.5794
  383MOL    C4146645   8.940   8.898   5.925  0.4056  0.1793  0.4075
  383MOL    H4246646   8.952   8.874   6.030 -0.0712 -0.7097  0.2655
  383MOL    H4346647   9.040   8.917   5.884  0.3022 -0.6082 -0.2185
  383MOL    C4446648   8.855   9.027   5.920 -0.4971  0.6612 -0.7963
  383MOL   Cl4546649   8.704   9.005   6.009  0.0128  0.2199 -0.3702
  383MOL   Cl4646650   8.813   9.087   5.750 -0.2067  0.2330  0.1213
  383MOL    C4746651   8.923   9.154   5.978  0.3062  0.0141 -0.5355
  383MOL    H4846652   9.008   9.171   5.912 -1.8423  0.7805 -3.2083
  383MOL    H4946653   8.848   0.050   5.955  1.2787  0.5422 -2.0137
  383MOL    C5046654   8.971   9.179   6.120 -0.8041  0.3020 -0.5482
  383MOL   Cl5146655   9.084   9.047   6.178  0.2805  0.1191  0.2741
  383MOL   Cl5246656   8.823   0.006   6.230 -0.1399  0.0103  0.0668
  383MOL    C5346657   9.053   0.129   6.143 -0.3962  0.3207  0.7447
  383MOL    H5446658   9.043   0.153   6.248 -0.0548 -0.7753  1.0344
  383MOL    H5546659   9.159   0.108   6.129  0.0562  2.0239  1.5379
  383MOL    C5646660   9.012   0.260   6.071  0.3871 -1.0281 -0.2434
  383MOL   Cl5746661   8.841   0.298   6.093  0.0611  0.6981 -0.0471
  383MOL   Cl5846662   9.026   0.250   5.894 -0.1615  0.2092  0.3422
  383MOL    C5946663   9.073   0.391   6.123 -0.3763 -0.0399 -0.2280
  383MOL    H6046664   9.040   0.465   6.050  1.1413  0.8202 -0.0632
  383MOL    H6146665   9.019   0.410   6.216  1.2147 -0.9241  0.9012
  383MOL    C6246666   0.050   0.400   6.157 -0.8173  0.0652  0.5394
  383MOL   Cl6346667   0.141   0.327   6.024 -0.1702  0.2371 -0.3122
  383MOL   Cl6446668   0.090   0.296   6.290 -0.0664 -0.2220  0.0248
  383MOL    C6546669   0.114   0.537   6.179  0.2476 -0.2876  0.1759
  383MOL    H6646670   0.220   0.521   6.198 -0.1836 -2.6063  0.7296
  383MOL    H6746671   0.120   0.580   6.078  0.5302 -0.5713  0.0711
  383MOL    C6846672   0.066   0.635   6.290  0.7798  0.6090  0.7477
  383MOL   Cl6946673   9.077   0.663   6.264 -0.3242 -0.5401  0.1912
  383MOL   Cl7046674   0.149   0.790   6.244 -0.1339 -0.5166  0.2909
  383MOL    C7146675   0.106   0.598   6.439  0.4141  0.2314  0.3998
  383MOL    H7246676   0.089   0.491   6.456  0.5723  0.3117  1.0560
  383MOL    H7346677   0.214   0.605   6.447  0.3127  1.3552  0.8482
  383MOL    C7446678   0.026   0.649   6.565 -0.0148 -0.4490  0.0089
  383MOL   Cl7546679   0.137   0.601   6.696 -0.5933 -0.5765 -0.4742
  383MOL   Cl7646680   9.056   0.557   6.568  0.0220  0.1805 -0.2651
  383MOL    C7746681   0.002   0.802   6.574 -0.3575 -0.5540 -0.7618
  383MOL    H7846682   0.094   0.860   6.578  0.2441 -1.5899  1.4759
  383MOL    H7946683   9.136   0.842   6.484 -0.1110 -0.3951 -0.8185
  383MOL    C8046684   9.088   0.860   6.685 -0.1434 -0.3706 -0.0613
  383MOL   Cl8146685   8.921   0.853   6.621 -0.0510  0.3563  0.0131
  383MOL   Cl8246686   9.138   1.021   6.722  0.1002 -0.3687  0.2593
  383MOL    C8346687   9.093   0.784   6.818 -0.3935  0.6445  0.6889
  383MOL    H8446688   9.081   0.677   6.802 -1.0947  1.0991 -2.0845
  383MOL    H8546689   0.017   0.790   6.849 -0.4483  1.9328  0.6527
  383MOL    C8646690   9.003   0.814   6.938  0.6272 -0.7003  0.5787
  383MOL   Cl8746691   8.830   0.779   6.897 -0.1869 -0.1277 -0.2851
  383MOL   Cl8846692   8.993   0.987   6.995  0.2018 -0.0324 -0.1424
  383MOL    C8946693   9.031   0.721   7.063  0.0282  0.2025 -0.0217
  383MOL    H9046694   8.967   0.770   7.137 -0.1186 -0.5471  0.3433
  383MOL    H9146695   8.984   0.624   7.048 -1.9067  1.0207  0.5597
  383MOL    C9246696   9.177   0.722   7.132  0.2784 -0.4328  0.3360
  383MOL   Cl9346697   9.151   0.688   7.304  0.1199 -0.4445 -0.3278
  383MOL   Cl9446698   0.076   0.881   7.121  0.1848 -0.2413 -0.2604
  383MOL    C9546699   0.084   0.612   7.068 -0.6095  0.3589  1.3134
  383MOL    H9646700   0.027   0.523   7.041 -0.5807 -0.0240  2.4923
  383MOL    H9746701   0.108   0.648   6.968 -0.9224 -0.2162  1.0253
  383MOL    C9846702   0.219   0.554   7.124  0.5442  0.1781  0.0186
  383MOL   Cl9946703   0.273   0.426   7.006  0.1238 -0.0354  0.4476
  383MOL  Cl10046704   0.186   0.472   7.277  0.5626  0.3714 -0.5153
  383MOL   C10146705   0.332   0.661   7.146 -0.1649  0.2722  0.3242
  383MOL   H10246706   0.334   0.724   7.057 -0.2393 -1.1402 -0.6991
  383MOL   H10346707   0.296   0.735   7.218 -2.6754  0.2200 -0.8392
  383MOL   C10446708   0.475   0.642   7.208 -0.8708  0.0758  0.0775
  383MOL  Cl10546709   0.459   0.618   7.381 -0.2213 -0.3521  0.1557
  383MOL  Cl10646710   0.567   0.792   7.185 -0.0721  0.2749 -0.1591
  383MOL   C10746711   0.556   0.530   7.136 -0.3719 -0.4733  0.1183
  383MOL   H10846712   0.507   0.437   7.163  1.1281 -1.9015 -1.9589
  383MOL   H10946713   0.528   0.545   7.031 -0.1608 -0.9301 -0.0026
  383MOL   C11046714   0.713   0.516   7.151  0.0413  0.3069  0.5857
  383MOL  Cl11146715   0.758   0.541   7.319  0.1514 -0.1300 -0.3078
  383MOL  Cl11246716   0.796   0.648   7.057  0.3856 -0.0929  0.2754
  383MOL   C11346717   0.757   0.376   7.108 -0.1507 -0.1463  0.0721
  383MOL   H11446718   0.853   0.348   7.150 -0.1640  1.1003  0.9640
  383MOL   H11546719   0.690   0.311   7.165 -0.7734 -1.2282 -1.8376
  383MOL   C11646720   0.770   0.328   6.958  0.5841  0.3931 -0.5728
  383MOL  Cl11746721   0.874   0.435   6.865  0.1164  0.4449 -0.3091
  383MOL  Cl11846722   0.613   0.330   6.882 -0.1832 -0.1946 -0.0681
  383MOL   C11946723   0.831   0.190   6.937 -0.0350 -0.1601 -0.0606
  383MOL   H12046724   0.921   0.180   6.996 -1.0793 -2.0424  1.2629
  383MOL   H12146725   0.752   0.123   6.972 -0.1837 -0.6717 -1.3493
  383MOL   H12246726   0.862   0.162   6.836 -1.5133  0.5388 -0.7418
  384MOL     C146727   4.981   3.730   6.255  0.1195 -0.1538 -0.1708
  384MOL    Cl246728   5.120   3.778   6.151 -0.1644  0.1690 -0.0883
  384MOL    Cl346729   4.989   3.828   6.402 -0.1877  0.0535 -0.1898
  384MOL     C446730   4.840   3.748   6.184 -0.1455 -0.0065 -0.6382
  384MOL     H546731   4.812   3.853   6.177  0.1969  0.2280  1.1417
  384MOL     H646732   4.857   3.713   6.082  1.6298 -0.3055 -0.2721
  384MOL     H746733   5.007   3.631   6.291  0.5290  0.1996  0.5270
  384MOL     C846734   4.725   3.663   6.243 -0.2901 -0.3043  0.3539
  384MOL    Cl946735   4.701   3.693   6.426  0.0383 -0.2045  0.0623
  384MOL   Cl1046736   4.769   3.486   6.225  0.5419  0.1430  0.1517
  384MOL    C1146737   4.598   3.709   6.168 -0.0016 -0.5944  0.2557
  384MOL    H1246738   4.583   3.815   6.185  0.3711 -0.4620 -0.2135
  384MOL    H1346739   4.619   3.701   6.061 -0.3647  2.1200 -0.0444
  384MOL    C1446740   4.457   3.646   6.165 -0.6465 -0.5880 -0.1081
  384MOL   Cl1546741   4.418   3.562   6.312 -0.0002  0.2453  0.0670
  384MOL   Cl1646742   4.466   3.510   6.046 -0.1377 -0.4635 -0.3846
  384MOL    C1746743   4.345   3.738   6.110  0.1242 -0.3960  0.1353
  384MOL    H1846744   4.382   3.806   6.033 -1.3411 -2.0110 -2.1023
  384MOL    H1946745   4.271   3.680   6.054 -1.8421  1.9195  0.2552
  384MOL    C2046746   4.269   3.838   6.209  0.1031 -0.8622 -0.1976
  384MOL   Cl2146747   4.387   3.924   6.313 -0.6109  0.1929 -0.1115
  384MOL   Cl2246748   4.160   3.755   6.318  0.1015  0.0545  0.0373
  384MOL    C2346749   4.197   3.950   6.135 -0.5092  0.3048  0.0699
  384MOL    H2446750   4.178   4.036   6.199  1.9857  0.4865  0.5992
  384MOL    H2546751   4.269   3.989   6.063  1.5034  0.6302  2.2126
  384MOL    C2646752   4.060   3.934   6.072  0.8865 -0.6396 -0.1517
  384MOL   Cl2746753   4.045   3.781   5.983  0.2567  0.1848 -0.1169
  384MOL   Cl2846754   4.053   4.069   5.951  0.0453 -0.1989 -0.0155
  384MOL    C2946755   3.937   3.957   6.175  0.3563  0.5201 -0.0108
  384MOL    H3046756   3.951   3.906   6.270  2.4482 -0.7678 -0.9758
  384MOL    H3146757   3.940   4.059   6.213  1.1024  0.7669 -0.7323
  384MOL    C3246758   3.796   3.911   6.131 -0.8796 -0.0931  0.6696
  384MOL   Cl3346759   3.685   3.993   6.243  0.0513  0.1128  0.0857
  384MOL   Cl3446760   3.783   3.727   6.147 -0.1756 -0.4447  0.2296
  384MOL    C3546761   3.756   3.961   5.982  0.1305  0.0869  0.2270
  384MOL    H3646762   3.751   4.070   5.986  1.7087  0.1395  1.0454
  384MOL    H3746763   3.831   3.944   5.904 -1.6220 -0.6522 -1.3281
  384MOL    C3846764   3.627   3.914   5.903 -1.0077  0.8057  0.4769
  384MOL   Cl3946765   3.481   3.979   5.994  0.2630  0.2208 -0.0103
  384MOL   Cl4046766   3.628   3.740   5.873  0.1836 -0.3756  0.3928
  384MOL    C4146767   3.625   3.990   5.762 -0.6278  0.5449  0.4128
  384MOL    H4246768   3.611   4.095   5.788  0.5520  0.0512  3.2988
  384MOL    H4346769   3.723   3.984   5.715  0.3582 -0.5391  2.5219
  384MOL    C4446770   3.526   3.963   5.647 -0.3604 -0.6701 -0.1334
  384MOL   Cl4546771   3.583   3.818   5.558 -0.2834  0.4910  0.0605
  384MOL   Cl4646772   3.550   4.101   5.536  0.0457  0.2795  0.2258
  384MOL    C4746773   3.372   3.954   5.682 -0.0561  0.1166 -0.0380
  384MOL    H4846774   3.363   3.890   5.770  0.9288 -3.1529 -2.2397
  384MOL    H4946775   3.357   4.055   5.721 -1.0602 -0.2178  0.4505
  384MOL    C5046776   3.260   3.908   5.588  0.0879 -0.2506  0.1481
  384MOL   Cl5146777   3.247   4.025   5.460 -0.0342 -0.1403 -0.2283
  384MOL   Cl5246778   3.114   3.902   5.700  0.3402  0.0502 -0.3361
  384MOL    C5346779   3.270   3.763   5.536 -0.2589  0.1455 -0.3906
  384MOL    H5446780   3.358   3.784   5.475 -0.0210  1.9224  0.5264
  384MOL    H5546781   3.302   3.708   5.624 -4.2029  0.1811  1.1855
  384MOL    C5646782   3.161   3.689   5.453 -0.1593 -0.7893  0.5042
  384MOL   Cl5746783   3.060   3.802   5.357 -0.3221 -0.4088  0.0196
  384MOL   Cl5846784   3.056   3.613   5.567 -0.2410  0.1486  0.2162
  384MOL    C5946785   3.207   3.571   5.367 -0.5905  0.0563 -0.1865
  384MOL    H6046786   3.250   3.485   5.419 -0.6878 -1.0182 -1.8301
  384MOL    H6146787   3.115   3.543   5.315  0.4973 -2.3354 -0.8972
  384MOL    C6246788   3.322   3.592   5.254  0.0857 -0.0668  0.0561
  384MOL   Cl6346789   3.299   3.752   5.162 -0.2496 -0.3031  0.1917
  384MOL   Cl6446790   3.300   3.454   5.142 -0.3936  0.0154 -0.3339
  384MOL    C6546791   3.477   3.591   5.289  0.3170 -0.4886 -0.1792
  384MOL    H6646792   3.532   3.598   5.195  2.0592 -1.0776  0.7611
  384MOL    H6746793   3.489   3.688   5.338 -2.2917  0.3199 -1.0549
  384MOL    C6846794   3.539   3.485   5.377  1.0375 -0.3188 -0.0402
  384MOL   Cl6946795   3.512   3.317   5.317 -0.0394 -0.0328 -0.1215
  384MOL   Cl7046796   3.478   3.502   5.541 -0.0030 -0.2375  0.0353
  384MOL    C7146797   3.690   3.518   5.383 -0.1784  0.3261 -0.1851
  384MOL    H7246798   3.712   3.494   5.279  0.1880 -2.2053  0.4419
  384MOL    H7346799   3.715   3.623   5.392  1.7001 -0.0446 -0.8464
  384MOL    C7446800   3.785   3.449   5.488 -0.6041 -0.4457  0.5005
  384MOL   Cl7546801   3.776   3.271   5.504 -0.3369  0.0866  0.1041
  384MOL   Cl7646802   3.760   3.526   5.644 -0.0766  0.5481  0.0538
  384MOL    C7746803   3.931   3.482   5.449  0.1428  0.1024  0.3553
  384MOL    H7846804   3.956   3.580   5.490  0.4235 -0.7638  2.2827
  384MOL    H7946805   3.996   3.405   5.491 -0.1577 -1.3531 -1.7335
  384MOL    C8046806   3.977   3.473   5.297 -0.2378  0.1856 -0.2266
  384MOL   Cl8146807   4.155   3.492   5.319 -0.0958  0.3617 -0.0075
  384MOL   Cl8246808   3.929   3.616   5.198  0.0372 -0.2051 -0.0660
  384MOL    C8346809   3.946   3.340   5.221  0.6862  0.9155 -0.1081
  384MOL    H8446810   4.003   3.260   5.270  1.3232 -0.1243 -2.4984
  384MOL    H8546811   3.841   3.316   5.236  0.7651  0.7266  0.1626
  384MOL    C8646812   3.965   3.315   5.067  0.1163 -0.1749  0.3439
  384MOL   Cl8746813   4.126   3.358   5.008 -0.0846 -0.4077 -0.0229
  384MOL   Cl8846814   3.848   3.409   4.969 -0.5144  0.0485 -0.1699
  384MOL    C8946815   3.950   3.165   5.026  0.5069 -0.1251 -0.2168
  384MOL    H9046816   3.949   3.162   4.917 -1.6458 -0.9921 -0.2002
  384MOL    H9146817   4.036   3.105   5.059 -0.3902 -2.2363 -1.5773
  384MOL    C9246818   3.839   3.072   5.076 -0.1480 -0.0927  0.1655
  384MOL   Cl9346819   3.699   3.174   5.049  0.4163 -0.3008 -0.1372
  384MOL   Cl9446820   3.859   3.033   5.250 -0.0706  0.0156  0.3001
  384MOL    C9546821   3.818   2.946   4.991  0.2407 -0.0893 -0.6261
  384MOL    H9646822   3.733   2.888   5.026 -0.2262  0.7844 -0.3122
  384MOL    H9746823   3.790   2.987   4.894  0.3838  0.0441 -0.6116
  384MOL    C9846824   3.932   2.847   4.951  0.4683  0.0605  0.5883
  384MOL   Cl9946825   4.053   2.924   4.851 -0.1823  0.2621  0.3443
  384MOL  Cl10046826   3.837   2.726   4.856  0.3475  0.0568 -0.2118
  384MOL   C10146827   4.007   2.782   5.073  0.2535  0.3172 -0.1502
  384MOL   H10246828   4.054   2.872   5.114 -1.9840  1.0624  0.8788
  384MOL   H10346829   3.923   2.768   5.141 -0.7310  0.9271 -1.2154
  384MOL   C10446830   4.090   2.651   5.070 -0.4866  0.0060 -0.0610
  384MOL  Cl10546831   3.976   2.517   5.110  0.0919  0.1608 -0.0130
  384MOL  Cl10646832   4.205   2.656   5.198  0.2841  0.0205  0.1969
  384MOL   C10746833   4.159   2.613   4.935  0.6009  0.6771  0.0706
  384MOL   H10846834   4.080   2.580   4.869 -0.4951  1.4248  0.9935
  384MOL   H10946835   4.189   2.707   4.889  0.9696  1.7140  2.3720
  384MOL   C11046836   4.271   2.504   4.921  0.2522  0.2995  0.5221
  384MOL  Cl11146837   4.238   2.354   5.008 -0.1681  0.0523 -0.3524
  384MOL  Cl11246838   4.433   2.564   4.978  0.2508  0.1850 -0.1666
  384MOL   C11346839   4.301   2.460   4.769 -1.2704 -0.5600 -0.3608
  384MOL   H11446840   4.380   2.386   4.768  0.6506  1.4475  0.1817
  384MOL   H11546841   4.211   2.416   4.725  0.0821 -2.3771 -1.3456
  384MOL   C11646842   4.323   2.566   4.660 -0.3084  0.5240 -0.5766
  384MOL  Cl11746843   4.171   2.640   4.606  0.0017  0.4624  0.4392
  384MOL  Cl11846844   4.389   2.471   4.522 -0.2539  0.0678  0.0355
  384MOL   C11946845   4.431   2.682   4.681 -0.4852  0.0663  0.3886
  384MOL   H12046846   4.409   2.756   4.758  0.1515 -0.9002  1.5084
  384MOL   H12146847   4.517   2.626   4.717  0.2193 -1.1975 -3.0274
  384MOL   H12246848   4.457   2.723   4.583  0.3204  0.2966  0.6937
  385MOL     C146849   6.637   7.440   7.424 -0.1455 -0.3341 -0.9113
  385MOL    Cl246850   6.526   7.302   7.449 -0.5395  0.4308 -0.2005
  385MOL    Cl346851   6.689   7.429   7.256 -0.0468 -0.0473 -0.0672
  385MOL     C446852   6.570   7.579   7.444  0.0005  0.1140 -1.1609
  385MOL     H546853   6.640   7.659   7.419  1.7424 -1.2110 -0.5945
  385MOL     H646854   6.496   7.588   7.364 -1.4315  2.8911  0.3948
  385MOL     H746855   6.717   7.422   7.496 -0.4890 -0.7426 -0.6246
  385MOL     C846856   6.527   7.621   7.592 -0.3985  0.2222  0.1694
  385MOL    Cl946857   6.673   7.594   7.702 -0.2961  0.1389 -0.0995
  385MOL   Cl1046858   6.403   7.508   7.643 -0.1239  0.1939  0.0691
  385MOL    C1146859   6.484   7.768   7.604  0.0453  0.2487  0.5994
  385MOL    H1246860   6.449   7.786   7.706 -0.8217 -0.1846  0.3790
  385MOL    H1346861   6.570   7.834   7.590  0.6971 -0.7471 -0.1436
  385MOL    C1446862   6.363   7.831   7.525  0.0980 -0.4197 -0.6362
  385MOL   Cl1546863   6.231   7.724   7.481 -0.4910  0.0359  0.2795
  385MOL   Cl1646864   6.419   7.904   7.377 -0.1704  0.1487  0.4662
  385MOL    C1746865   6.292   7.952   7.591  0.2795  0.3959  0.6412
  385MOL    H1846866   6.205   7.988   7.536 -0.6210 -1.8125  0.5700
  385MOL    H1946867   6.251   7.908   7.681  1.3141  0.1366  0.9910
  385MOL    C2046868   6.370   8.086   7.639  0.1680  0.1683  0.1636
  385MOL   Cl2146869   6.505   8.046   7.742  0.5185 -0.3238  0.0056
  385MOL   Cl2246870   6.245   8.160   7.746  0.4508 -0.4504 -0.2620
  385MOL    C2346871   6.421   8.179   7.523  0.9410  0.0951 -1.2076
  385MOL    H2446872   6.512   8.128   7.491 -0.0176 -2.7411  0.3914
  385MOL    H2546873   6.353   8.157   7.440  1.3013 -0.7130 -1.2952
  385MOL    C2646874   6.444   8.327   7.555  0.1893  0.2455  0.3943
  385MOL   Cl2746875   6.297   8.427   7.554  0.1976  0.1555 -0.0366
  385MOL   Cl2846876   6.533   8.385   7.414  0.0537  0.0143  0.0680
  385MOL    C2946877   6.535   8.351   7.682 -0.2831  0.3841 -0.2345
  385MOL    H3046878   6.475   8.324   7.768 -0.2910  0.0360 -0.3490
  385MOL    H3146879   6.625   8.290   7.667 -0.6255 -0.2168  0.1505
  385MOL    C3246880   6.591   8.488   7.733 -0.0899 -0.0480  0.5530
  385MOL   Cl3346881   6.720   8.559   7.633 -0.5014  0.1904  0.4069
  385MOL   Cl3446882   6.683   8.442   7.883 -0.0432 -0.4164 -0.1080
  385MOL    C3546883   6.486   8.605   7.756 -0.9372 -0.6940 -0.0342
  385MOL    H3646884   6.457   8.635   7.656  1.7419 -0.2887 -0.7113
  385MOL    H3746885   6.387   8.582   7.795 -1.8316  0.8145 -1.3614
  385MOL    C3846886   6.529   8.740   7.832  0.6799 -0.1166  0.3558
  385MOL   Cl3946887   6.693   8.798   7.812  0.0126 -0.1528  0.1595
  385MOL   Cl4046888   6.516   8.709   8.007  0.0866 -0.0835  0.6753
  385MOL    C4146889   6.439   8.862   7.806  0.2267  0.5140  0.0874
  385MOL    H4246890   6.346   8.852   7.861 -1.0165  1.8699 -1.7451
  385MOL    H4346891   6.483   8.936   7.873  0.1701  1.8183 -1.2867
  385MOL    C4446892   6.412   8.918   7.662  0.1088  0.0780 -0.5169
  385MOL   Cl4546893   6.253   8.848   7.627  0.3637 -0.5021  0.0164
  385MOL   Cl4646894   6.525   8.859   7.532  0.0625 -0.3052  0.5381
  385MOL    C4746895   6.374   9.067   7.643  0.0251 -0.3912 -0.2380
  385MOL    H4846896   6.336   9.073   7.540  0.6715 -1.2726 -0.5327
  385MOL    H4946897   6.285   9.083   7.704 -0.7021 -1.5884 -0.9545
  385MOL    C5046898   6.486   9.178   7.671 -0.5961 -0.3207 -0.1867
  385MOL   Cl5146899   6.654   9.123   7.614  0.0050 -0.0064 -0.3675
  385MOL   Cl5246900   6.479   0.017   7.843  0.3296  0.0760 -0.2105
  385MOL    C5346901   6.462   0.141   7.606  0.4904 -0.2657  0.7368
  385MOL    H5446902   6.521   0.211   7.665  1.6206  0.7520 -1.5460
  385MOL    H5546903   6.513   0.136   7.509  3.1175  0.4541  2.0379
  385MOL    C5646904   6.324   0.213   7.593  0.5632 -0.2547  0.2878
  385MOL   Cl5746905   6.235   0.190   7.750 -0.4942  0.1437 -0.3053
  385MOL   Cl5846906   6.237   0.143   7.456 -0.3721 -0.2188 -0.9411
  385MOL    C5946907   6.331   0.368   7.581  0.3893 -0.0635 -0.0773
  385MOL    H6046908   6.225   0.389   7.596  0.1120 -0.4910 -1.4099
  385MOL    H6146909   6.382   0.387   7.675 -1.1116 -1.2860  1.0122
  385MOL    C6246910   6.388   0.453   7.458 -0.8007 -0.0859 -0.3117
  385MOL   Cl6346911   6.549   0.399   7.410  0.1575  0.2942 -0.0811
  385MOL   Cl6446912   6.408   0.617   7.519  0.1498  0.0726 -0.0146
  385MOL    C6546913   6.299   0.451   7.331 -0.0005  0.1813 -0.3168
  385MOL    H6646914   6.322   0.355   7.286  0.2832 -0.2670  0.7646
  385MOL    H6746915   6.194   0.433   7.353 -0.2691  1.7580 -0.2561
  385MOL    C6846916   6.317   0.560   7.216 -0.2225  0.0157  0.7959
  385MOL   Cl6946917   6.271   0.482   7.060  0.0725 -0.1335  0.4571
  385MOL   Cl7046918   6.486   0.611   7.186  0.1835  0.3198  0.0049
  385MOL    C7146919   6.232   0.692   7.242 -0.7178 -0.1307  0.1333
  385MOL    H7246920   6.296   0.750   7.309 -0.8078  0.6729 -0.4738
  385MOL    H7346921   6.244   0.746   7.148 -2.5840  0.3039  0.1154
  385MOL    C7446922   6.086   0.698   7.293  0.1052 -0.0682 -0.0514
  385MOL   Cl7546923   6.066   0.628   7.454  0.0909 -0.2433  0.3946
  385MOL   Cl7646924   5.983   0.603   7.180  0.1605 -0.3169  0.1722
  385MOL    C7746925   6.038   0.850   7.299  0.2969  0.2363 -0.5647
  385MOL    H7846926   6.124   0.904   7.337  0.1159  0.2710 -0.2025
  385MOL    H7946927   6.022   0.875   7.195 -0.9272  3.9116  0.4528
  385MOL    C8046928   5.907   0.903   7.374 -0.1996 -0.4505  0.3582
  385MOL   Cl8146929   5.920   0.899   7.559  0.0059  0.2280 -0.3815
  385MOL   Cl8246930   5.761   0.810   7.337  0.1226 -0.2710 -0.1324
  385MOL    C8346931   5.882   1.055   7.347  0.7548 -0.4386 -0.3583
  385MOL    H8446932   5.790   1.074   7.403  1.1121  0.6546 -0.1200
  385MOL    H8546933   5.956   1.113   7.401  0.5971  1.0633 -1.6993
  385MOL    C8646934   5.852   1.127   7.207 -0.5053  0.1824  0.0638
  385MOL   Cl8746935   6.003   1.134   7.105  0.0498 -0.3650  0.3778
  385MOL   Cl8846936   5.813   1.299   7.238 -0.1201 -0.4088 -0.0527
  385MOL    C8946937   5.737   1.054   7.131 -0.3296 -0.7968 -0.5580
  385MOL    H9046938   5.762   0.950   7.111  1.8021 -0.0962 -1.6829
  385MOL    H9146939   5.655   1.056   7.203  1.6666 -0.4991  1.7709
  385MOL    C9246940   5.677   1.109   6.997  0.0521 -0.8481  0.3011
  385MOL   Cl9346941   5.582   1.258   7.012  0.2512 -0.0669  0.1786
  385MOL   Cl9446942   5.563   0.983   6.959 -0.1221 -0.2965 -0.4024
  385MOL    C9546943   5.781   1.134   6.881  0.7757 -0.5781 -0.0863
  385MOL    H9646944   5.820   1.235   6.895  0.4334 -0.5479  0.6412
  385MOL    H9746945   5.863   1.062   6.887  0.5750 -0.8240 -0.2812
  385MOL    C9846946   5.739   1.114   6.729  0.0938  0.2905 -0.3189
  385MOL   Cl9946947   5.735   0.936   6.698  0.0434  0.1361  0.0770
  385MOL  Cl10046948   5.868   1.198   6.640 -0.1273  0.2533  0.0283
  385MOL   C10146949   5.603   1.176   6.689 -0.4810  0.0576 -0.5582
  385MOL   H10246950   5.528   1.109   6.732 -1.6479  1.6225 -0.1068
  385MOL   H10346951   5.583   1.268   6.744  2.7041 -0.4251  1.5311
  385MOL   C10446952   5.566   1.195   6.539 -0.7685 -0.1380  0.6371
  385MOL  Cl10546953   5.646   1.345   6.494 -0.0814 -0.0351  0.2082
  385MOL  Cl10646954   5.387   1.233   6.539 -0.0228 -0.1892 -0.0515
  385MOL   C10746955   5.608   1.067   6.444  0.3011  0.1764 -0.3907
  385MOL   H10846956   5.716   1.065   6.428 -0.0489  1.9322 -3.2558
  385MOL   H10946957   5.584   0.975   6.499  1.4019 -2.6709 -4.4186
  385MOL   C11046958   5.538   1.046   6.302  0.3228  0.5717 -0.4886
  385MOL  Cl11146959   5.638   0.937   6.207  0.2051 -0.1702  0.1385
  385MOL  Cl11246960   5.545   1.204   6.215  0.4327  0.4126 -0.5074
  385MOL   C11346961   5.397   0.985   6.303 -0.1741 -0.3092 -0.7277
  385MOL   H11446962   5.410   0.889   6.353  0.5326 -0.7911 -1.8355
  385MOL   H11546963   5.320   1.038   6.359  0.2041  0.0534 -0.5480
  385MOL   C11646964   5.337   0.944   6.162 -0.4498 -0.2837 -0.6830
  385MOL  Cl11746965   5.165   0.928   6.183  0.4104  0.2005 -0.2014
  385MOL  Cl11846966   5.382   0.774   6.116 -0.0579 -0.1434 -0.0666
  385MOL   C11946967   5.381   1.027   6.033 -0.2963  0.5259 -1.2448
  385MOL   H12046968   5.366   1.133   6.053  1.0427  0.6563 -0.8453
  385MOL   H12146969   5.487   1.015   6.007  0.0890  1.1046  0.0400
  385MOL   H12246970   5.311   1.011   5.951  0.0553  3.0575 -2.0885
  386MOL     C146971   3.420   3.654   4.597  0.2140 -1.3036  0.0707
  386MOL    Cl246972   3.382   3.826   4.583  0.2355 -0.1375  0.4818
  386MOL    Cl346973   3.321   3.574   4.723 -0.1959  0.2048  0.0325
  386MOL     C446974   3.400   3.580   4.457  0.3069 -0.0619  0.6034
  386MOL     H546975   3.299   3.539   4.452  0.0489  0.8026 -1.6485
  386MOL     H646976   3.412   3.657   4.382 -0.9147  1.1252  1.6051
  386MOL     H746977   3.524   3.663   4.628  0.2119 -1.1932  0.0449
  386MOL     C846978   3.499   3.468   4.435  0.4679  0.5238  0.7334
  386MOL    Cl946979   3.662   3.535   4.434  0.3120  0.5857 -0.1636
  386MOL   Cl1046980   3.478   3.420   4.269 -0.0875  0.1915  0.0898
  386MOL    C1146981   3.472   3.358   4.535 -0.0757 -0.0160  0.2032
  386MOL    H1246982   3.519   3.392   4.628  0.9468 -1.6962  0.3297
  386MOL    H1346983   3.366   3.354   4.562  0.0012  1.6745  0.7776
  386MOL    C1446984   3.513   3.209   4.508  0.0585  0.6858  0.4270
  386MOL   Cl1546985   3.385   3.151   4.397  0.4976  0.2366  0.5475
  386MOL   Cl1646986   3.483   3.132   4.666  0.2293  0.0723  0.1762
  386MOL    C1746987   3.658   3.191   4.451  0.5438  0.1751 -0.7261
  386MOL    H1846988   3.657   3.097   4.395 -0.5480  0.1298 -0.6418
  386MOL    H1946989   3.673   3.272   4.380  0.0042  0.1324 -0.8866
  386MOL    C2046990   3.779   3.191   4.539  0.0038 -0.3014  0.0709
  386MOL   Cl2146991   3.783   3.033   4.629 -0.3616 -0.0229  0.3289
  386MOL   Cl2246992   3.765   3.322   4.660 -0.1617 -0.1721  0.0143
  386MOL    C2346993   3.905   3.202   4.446 -0.0162  0.2380 -0.0115
  386MOL    H2446994   3.885   3.140   4.359  1.8762 -0.5137  0.0802
  386MOL    H2546995   3.901   3.302   4.405 -0.1755  0.3488  0.2695
  386MOL    C2646996   4.053   3.175   4.492 -0.8554 -0.2370  0.2554
  386MOL   Cl2746997   4.081   3.004   4.474 -0.2227 -0.4113 -0.2925
  386MOL   Cl2846998   4.063   3.206   4.666  0.4921  0.2472  0.3475
  386MOL    C2946999   4.148   3.277   4.421 -0.1590 -0.1223  0.1421
  386MOL    H3047000   4.121   3.293   4.317  1.1277  2.0989  0.1123
  386MOL    H3147001   4.125   3.375   4.464 -1.4862 -1.1260  1.7801
  386MOL    C3247002   4.302   3.245   4.409 -1.1046  0.1916  0.0025
  386MOL   Cl3347003   4.354   3.405   4.345 -0.4112  0.3009  0.3424
  386MOL   Cl3447004   4.324   3.115   4.290  0.0509  0.5665  0.0401
  386MOL    C3547005   4.372   3.212   4.545 -0.2080 -0.5489 -0.0310
  386MOL    H3647006   4.343   3.300   4.602 -0.5103 -0.3583 -0.4720
  386MOL    H3747007   4.329   3.121   4.587 -1.4295 -1.0599 -2.2612
  386MOL    C3847008   4.527   3.176   4.541 -0.3673 -0.2562 -0.1764
  386MOL   Cl3947009   4.631   3.264   4.433 -0.1668 -0.1676 -0.0182
  386MOL   Cl4047010   4.552   3.007   4.502  0.1019  0.2956 -0.2029
  386MOL    C4147011   4.601   3.208   4.676  0.2457  0.3583 -0.1482
  386MOL    H4247012   4.707   3.182   4.664  0.0307 -0.6798  0.1886
  386MOL    H4347013   4.603   3.315   4.692  0.2843  0.7384 -2.4319
  386MOL    C4447014   4.555   3.141   4.810 -0.1931  0.3240  0.3396
  386MOL   Cl4547015   4.570   2.963   4.803  0.0895 -0.2232  0.1848
  386MOL   Cl4647016   4.387   3.171   4.855 -0.0023  0.1304  0.6235
  386MOL    C4747017   4.657   3.178   4.928 -0.4598 -0.4563  0.5612
  386MOL    H4847018   4.630   3.110   5.009 -1.1019 -3.1439 -1.8123
  386MOL    H4947019   4.758   3.146   4.900  0.3230  2.5870 -0.3119
  386MOL    C5047020   4.667   3.324   4.985 -0.2026  0.2222  0.0146
  386MOL   Cl5147021   4.508   3.398   5.011  0.3681  0.2733 -0.2321
  386MOL   Cl5247022   4.767   3.438   4.880  0.1001 -0.3403 -0.0818
  386MOL    C5347023   4.734   3.325   5.126  0.4265  0.4277  0.1421
  386MOL    H5447024   4.748   3.431   5.151 -1.1945  0.8298 -0.5903
  386MOL    H5547025   4.673   3.276   5.202  0.0864  0.1255 -0.3284
  386MOL    C5647026   4.874   3.265   5.151 -0.2271 -0.5211 -0.9112
  386MOL   Cl5747027   4.863   3.085   5.134  0.3053  0.1702 -0.0492
  386MOL   Cl5847028   4.917   3.294   5.326  0.3845 -0.1022 -0.1368
  386MOL    C5947029   4.993   3.321   5.065 -0.2512  0.1010 -0.3525
  386MOL    H6047030   4.972   3.277   4.968 -1.5784  0.5210 -0.2670
  386MOL    H6147031   4.968   3.428   5.067 -0.9655 -0.0524 -0.8065
  386MOL    C6247032   5.147   3.296   5.092 -0.1283 -0.0874 -0.1592
  386MOL   Cl6347033   5.174   3.129   5.135 -0.4267 -0.0308  0.4032
  386MOL   Cl6447034   5.193   3.398   5.229 -0.5026  0.1409 -0.1291
  386MOL    C6547035   5.243   3.321   4.971  0.1246 -0.4833 -0.2787
  386MOL    H6647036   5.344   3.296   5.004  0.7210  2.2616  0.0630
  386MOL    H6747037   5.214   3.243   4.900 -0.3850 -0.1917 -0.3921
  386MOL    C6847038   5.263   3.455   4.894  0.2374 -0.0184  0.1977
  386MOL   Cl6947039   5.284   3.598   4.994 -0.0975 -0.2765 -0.1895
  386MOL   Cl7047040   5.112   3.485   4.801 -0.2262 -0.4135  0.1432
  386MOL    C7147041   5.381   3.434   4.790  0.2869 -0.0813  0.6603
  386MOL    H7247042   5.473   3.450   4.846 -0.0624  0.6518  1.0470
  386MOL    H7347043   5.383   3.329   4.761  1.4429  0.3819 -1.0050
  386MOL    C7447044   5.403   3.529   4.672 -0.3352 -0.0363  0.4423
  386MOL   Cl7547045   5.273   3.507   4.550  0.0043  0.2131  0.0910
  386MOL   Cl7647046   5.558   3.473   4.602  0.3116  0.0847 -0.2378
  386MOL    C7747047   5.419   3.680   4.710 -1.1796  0.8252  0.1991
  386MOL    H7847048   5.314   3.705   4.723 -1.4812 -0.0014 -0.5855
  386MOL    H7947049   5.463   3.689   4.809  2.1617  0.6101 -1.1734
  386MOL    C8047050   5.485   3.782   4.614  0.0502  0.2591 -0.4688
  386MOL   Cl8147051   5.651   3.777   4.658  0.1129  0.1341 -0.0532
  386MOL   Cl8247052   5.420   3.934   4.670 -0.4874 -0.3796 -0.0138
  386MOL    C8347053   5.463   3.762   4.461  0.2759  0.6264 -0.9274
  386MOL    H8447054   5.481   3.659   4.432 -1.3002 -0.2530  1.0936
  386MOL    H8547055   5.355   3.769   4.448  0.2340  0.9341 -0.4346
  386MOL    C8647056   5.538   3.846   4.357  0.7882  0.1036  0.8881
  386MOL   Cl8747057   5.717   3.802   4.362  0.3329  0.0794 -0.3553
  386MOL   Cl8847058   5.532   4.018   4.391 -0.3695 -0.4319  0.0115
  386MOL    C8947059   5.484   3.811   4.211  0.3360  0.7896 -0.2246
  386MOL    H9047060   5.541   3.878   4.147  0.0168  0.2291 -1.0931
  386MOL    H9147061   5.524   3.717   4.173 -1.4488  0.0944 -0.4361
  386MOL    C9247062   5.337   3.812   4.161 -0.4665 -0.1218 -0.1568
  386MOL   Cl9347063   5.261   3.968   4.212  0.1481  0.4605  0.0770
  386MOL   Cl9447064   5.254   3.670   4.234  0.0305 -0.5464 -0.1739
  386MOL    C9547065   5.329   3.814   4.005 -0.0623 -0.1471 -0.1979
  386MOL    H9647066   5.388   3.903   3.984 -2.9507  2.0179  0.4930
  386MOL    H9747067   5.388   3.729   3.972 -0.2464 -0.0751 -0.7228
  386MOL    C9847068   5.204   3.810   3.908  0.0133  0.2332  0.2762
  386MOL   Cl9947069   5.064   3.901   3.975  0.0792  0.0485 -0.1869
  386MOL  Cl10047070   5.155   3.641   3.906  0.0413  0.0072  0.0529
  386MOL   C10147071   5.231   3.854   3.762 -0.2369 -0.5101 -0.8745
  386MOL   H10247072   5.301   3.780   3.724  0.0675 -0.6719 -0.0154
  386MOL   H10347073   5.137   3.843   3.707 -1.1946 -0.6028  0.7445
  386MOL   C10447074   5.291   3.999   3.725 -0.0791 -0.2904 -0.8857
  386MOL  Cl10547075   5.173   4.121   3.783 -0.0103 -0.1984  0.2496
  386MOL  Cl10647076   5.265   4.015   3.555  0.3857 -0.3589 -0.1728
  386MOL   C10747077   5.435   4.054   3.764  0.4480 -0.0018  1.0616
  386MOL   H10847078   5.446   4.154   3.722  0.5580 -0.2207  0.5658
  386MOL   H10947079   5.442   4.070   3.872  0.1419  0.0110  1.0790
  386MOL   C11047080   5.569   3.977   3.734 -0.0240  0.0481  0.3016
  386MOL  Cl11147081   5.585   3.943   3.557  0.1412  0.0678 -0.2045
  386MOL  Cl11247082   5.580   3.819   3.816 -0.2616  0.0391 -0.1580
  386MOL   C11347083   5.690   4.064   3.765  0.9096 -0.2870  0.3463
  386MOL   H11447084   5.766   4.016   3.705  1.2263  0.3356  0.2452
  386MOL   H11547085   5.673   4.160   3.716  0.9541 -0.6145 -0.3146
  386MOL   C11647086   5.753   4.087   3.908  0.5104 -0.0891  0.9424
  386MOL  Cl11747087   5.825   3.937   3.973 -0.0379  0.1584  0.3387
  386MOL  Cl11847088   5.639   4.148   4.032  0.2296 -0.1344  0.1119
  386MOL   C11947089   5.874   4.181   3.909 -0.4255 -0.4355  0.1595
  386MOL   H12047090   5.917   4.196   4.008 -0.7751 -0.4340  0.3109
  386MOL   H12147091   5.957   4.141   3.849  2.2686  2.7281  1.6501
  386MOL   H12247092   5.855   4.277   3.862  0.5608 -0.1853  0.2554
  387MOL     C147093   3.051   5.952   5.851  0.0805  0.0621 -0.1685
  387MOL    Cl247094   2.924   6.070   5.878  0.3637  0.4116 -0.3059
  387MOL    Cl347095   2.990   5.813   5.772  0.6546  0.1491  0.1821
  387MOL     C447096   3.173   6.025   5.784  0.6675  0.3192 -0.4414
  387MOL     H547097   3.149   6.078   5.692 -1.0660  1.9964  0.9352
  387MOL     H647098   3.181   6.108   5.854 -4.5251  0.3035  0.3733
  387MOL     H747099   3.074   5.930   5.956  0.2385  0.8841 -0.0268
  387MOL     C847100   3.299   5.947   5.771  0.1308 -0.0180 -0.2171
  387MOL    Cl947101   3.272   5.845   5.620 -0.3874  0.0757 -0.0054
  387MOL   Cl1047102   3.343   5.848   5.913  0.3172  0.1666  0.0720
  387MOL    C1147103   3.421   6.048   5.740 -0.8481  0.1965 -0.7801
  387MOL    H1247104   3.392   6.098   5.648  1.3909  4.3311  0.6192
  387MOL    H1347105   3.424   6.135   5.807  1.0946 -1.2929  1.1652
  387MOL    C1447106   3.569   5.986   5.731  0.9170 -0.0832  0.4081
  387MOL   Cl1547107   3.587   5.818   5.668  0.0208  0.4762 -0.0897
  387MOL   Cl1647108   3.641   5.979   5.887 -0.6038  0.1319  0.1727
  387MOL    C1747109   3.675   6.072   5.662  0.3442 -0.1680  0.1430
  387MOL    H1847110   3.677   6.170   5.710  0.2349 -0.2530  0.3189
  387MOL    H1947111   3.772   6.024   5.677  1.0273  0.7910 -1.1261
  387MOL    C2047112   3.670   6.109   5.509  0.1058  0.8576 -0.1301
  387MOL   Cl2147113   3.573   6.257   5.505  0.3525  0.0716  0.0885
  387MOL   Cl2247114   3.578   5.993   5.418  0.0574  0.1830  0.2204
  387MOL    C2347115   3.807   6.128   5.431  0.3560 -0.1143 -0.6843
  387MOL    H2447116   3.864   6.036   5.442  1.1927  0.4558 -0.2022
  387MOL    H2547117   3.778   6.136   5.327  1.0881  2.0029 -0.7446
  387MOL    C2647118   3.903   6.248   5.458  0.3174  0.6016  0.2795
  387MOL   Cl2747119   3.917   6.266   5.636 -0.1005  0.2033  0.0985
  387MOL   Cl2847120   3.840   6.395   5.386  0.1069  0.0305 -0.0481
  387MOL    C2947121   4.049   6.218   5.402  0.1646 -0.1642 -0.4426
  387MOL    H3047122   4.109   6.303   5.434 -1.0348  0.6331 -0.2720
  387MOL    H3147123   4.093   6.141   5.464 -1.0108  0.2953  1.0030
  387MOL    C3247124   4.066   6.169   5.256  0.0169  0.3915  0.1881
  387MOL   Cl3347125   3.973   6.263   5.133  0.0024 -0.2972 -0.1598
  387MOL   Cl3447126   4.008   5.999   5.252 -0.0088 -0.2186 -0.5001
  387MOL    C3547127   4.214   6.160   5.222 -0.0687  0.4175  0.3480
  387MOL    H3647128   4.247   6.067   5.268  1.0896  0.9956  0.7187
  387MOL    H3747129   4.216   6.133   5.117  0.0067  2.1623 -0.1187
  387MOL    C3847130   4.323   6.277   5.247 -0.1156 -0.2885  0.1838
  387MOL   Cl3947131   4.453   6.249   5.141 -0.5936  0.1327  0.1905
  387MOL   Cl4047132   4.382   6.260   5.410  0.0583  0.1388  0.8168
  387MOL    C4147133   4.263   6.421   5.220 -0.3992  0.3012 -0.1637
  387MOL    H4247134   4.250   6.415   5.112  0.1312  1.0169 -0.2699
  387MOL    H4347135   4.162   6.432   5.260 -0.3970 -2.6222  0.7785
  387MOL    C4447136   4.331   6.552   5.268  0.0983  0.5915  0.2501
  387MOL   Cl4547137   4.497   6.568   5.205 -0.0555  0.3064 -0.1283
  387MOL   Cl4647138   4.338   6.566   5.439 -0.2361 -0.1790 -0.3344
  387MOL    C4747139   4.251   6.675   5.220 -0.3245 -0.5337 -0.1180
  387MOL    H4847140   4.166   6.670   5.287 -0.5205 -0.6360 -0.3736
  387MOL    H4947141   4.315   6.758   5.248 -0.1608 -0.9097  0.6276
  387MOL    C5047142   4.198   6.702   5.080 -0.2897  0.2908 -0.0654
  387MOL   Cl5147143   4.065   6.590   5.036  0.0871 -0.0955 -0.3681
  387MOL   Cl5247144   4.329   6.689   4.958 -0.1921 -0.0913  0.0245
  387MOL    C5347145   4.141   6.841   5.064  0.1183 -0.0893 -0.5883
  387MOL    H5447146   4.218   6.918   5.058  0.5296 -0.4969 -0.4861
  387MOL    H5547147   4.103   6.842   4.962 -0.1463 -1.7864 -0.5161
  387MOL    C5647148   4.019   6.888   5.158 -0.1003  0.0530 -0.2741
  387MOL   Cl5747149   3.908   6.762   5.205  0.1169  0.0941 -0.3415
  387MOL   Cl5847150   3.937   7.008   5.057  0.0118  0.0793 -0.1521
  387MOL    C5947151   4.062   6.964   5.284 -0.0769  0.0094  0.4204
  387MOL    H6047152   4.124   6.892   5.337 -0.0417 -0.6681 -0.5341
  387MOL    H6147153   4.125   7.046   5.248  1.2313 -1.6568 -1.2356
  387MOL    C6247154   3.962   7.017   5.391 -0.7303  0.0890 -0.5417
  387MOL   Cl6347155   4.063   7.119   5.492  0.1203  0.0048 -0.2470
  387MOL   Cl6447156   3.896   6.881   5.495 -0.0989  0.3330  0.2163
  387MOL    C6547157   3.843   7.104   5.334  0.1471 -0.3521 -0.8453
  387MOL    H6647158   3.882   7.194   5.287  0.8987  0.4077  1.1933
  387MOL    H6747159   3.787   7.045   5.262 -1.4325 -0.9328  0.8337
  387MOL    C6847160   3.723   7.143   5.434 -0.3594  0.4509 -0.4362
  387MOL   Cl6947161   3.612   7.002   5.452  0.3548  0.3879 -0.3569
  387MOL   Cl7047162   3.641   7.268   5.350  0.3797  0.1261 -0.6162
  387MOL    C7147163   3.771   7.185   5.578 -0.1904  0.0956  0.4898
  387MOL    H7247164   3.836   7.115   5.631  0.2665  2.3065  2.9775
  387MOL    H7347165   3.841   7.268   5.585  0.3156 -0.4277  1.8769
  387MOL    C7447166   3.669   7.201   5.695 -0.2148 -0.0436 -0.1069
  387MOL   Cl7547167   3.766   7.263   5.824 -0.0483  0.3119  0.1320
  387MOL   Cl7647168   3.602   7.037   5.747 -0.5379 -0.2383 -0.4640
  387MOL    C7747169   3.547   7.302   5.672 -0.6071 -0.2056  0.8828
  387MOL    H7847170   3.505   7.283   5.574 -1.2527  0.2041  1.0806
  387MOL    H7947171   3.459   7.289   5.735 -1.1140 -1.2866 -0.0304
  387MOL    C8047172   3.562   7.453   5.664  0.5208 -0.1760  0.4859
  387MOL   Cl8147173   3.714   7.499   5.581  0.0370 -0.1354 -0.2195
  387MOL   Cl8247174   3.579   7.498   5.839 -0.5304 -0.3713 -0.1308
  387MOL    C8347175   3.431   7.514   5.601  0.8212  0.3046 -0.4470
  387MOL    H8447176   3.432   7.484   5.496  1.7160 -0.7005 -0.1658
  387MOL    H8547177   3.342   7.474   5.652  0.8594  0.0648 -0.5668
  387MOL    C8647178   3.409   7.665   5.599  0.6624 -0.4995  0.1648
  387MOL   Cl8747179   3.256   7.683   5.518  0.3858 -0.1032 -0.1576
  387MOL   Cl8847180   3.523   7.747   5.491 -0.2725 -0.0879 -0.1004
  387MOL    C8947181   3.402   7.729   5.730 -0.1254  0.2549 -0.6018
  387MOL    H9047182   3.369   7.655   5.803 -0.2442  0.5268 -0.3774
  387MOL    H9147183   3.508   7.746   5.748 -0.2453  0.2201  0.1506
  387MOL    C9247184   3.313   7.857   5.750 -0.2097 -0.3120 -0.0775
  387MOL   Cl9347185   3.329   7.980   5.613 -0.4382  0.1852  0.4893
  387MOL   Cl9447186   3.373   7.948   5.894 -0.0243 -0.3900 -0.1207
  387MOL    C9547187   3.158   7.848   5.777 -0.0417 -0.0394  0.1164
  387MOL    H9647188   3.119   7.946   5.805 -2.2024 -1.4068  2.0723
  387MOL    H9747189   3.123   7.845   5.674  1.3816  2.2799 -0.4675
  387MOL    C9847190   3.099   7.735   5.866  0.4572  0.0794 -0.6763
  387MOL   Cl9947191   3.185   7.729   6.028 -0.3603 -0.3748  0.3634
  387MOL  Cl10047192   3.130   7.572   5.793  0.2131  0.1979  0.1577
  387MOL   C10147193   2.940   7.721   5.879  0.7361 -0.8488  0.2849
  387MOL   H10247194   2.903   7.687   5.782 -0.8534  3.0442 -0.5607
  387MOL   H10347195   2.928   7.638   5.948  0.6254 -1.8495 -0.9035
  387MOL   C10447196   2.842   7.830   5.923 -0.3280 -0.0813 -0.8579
  387MOL  Cl10547197   2.840   7.959   5.797  0.1743 -0.2607  0.4596
  387MOL  Cl10647198   2.904   7.905   6.069  0.1738 -0.0598 -0.3267
  387MOL   C10747199   2.698   7.791   5.966 -0.2619  0.5036  1.1790
  387MOL   H10847200   2.720   7.735   6.057 -0.6598 -1.4046  0.1218
  387MOL   H10947201   2.651   7.885   5.997 -3.8150 -1.2035  1.2004
  387MOL   C11047202   2.606   7.694   5.879 -0.4959  0.1591  0.2377
  387MOL  Cl11147203   2.674   7.533   5.887 -0.0799 -0.2500  0.0808
  387MOL  Cl11247204   2.621   7.746   5.706 -0.1880  0.5341 -0.0994
  387MOL   C11347205   2.456   7.713   5.931 -0.2557  0.0357  0.0962
  387MOL   H11447206   2.458   7.698   6.039 -0.8561 -0.1032  0.0876
  387MOL   H11547207   2.430   7.816   5.911  0.5347  0.4191  1.0002
  387MOL   C11647208   2.349   7.617   5.877  0.4712  0.6525  0.1477
  387MOL  Cl11747209   2.185   7.692   5.937 -0.0902 -0.1090 -0.3575
  387MOL  Cl11847210   2.355   7.446   5.951  0.1401  0.0897  0.1436
  387MOL   C11947211   2.321   7.601   5.726  0.8650  0.3549 -0.1765
  387MOL   H12047212   2.403   7.552   5.675 -0.3649  0.4042 -2.2473
  387MOL   H12147213   2.232   7.543   5.699  1.2246 -0.0761 -0.4331
  387MOL   H12247214   2.312   7.698   5.676  0.6720 -0.4994 -1.8144
  388MOL     C147215   9.118   6.047   0.752 -0.0790 -0.1400  0.6721
  388MOL    Cl247216   8.979   5.967   0.667  0.1825  0.6902  0.1942
  388MOL    Cl347217   0.056   5.911   0.790  0.2675  0.1333  0.2472
  388MOL     C447218   9.177   6.144   0.643 -0.1859 -0.1696  0.0458
  388MOL     H547219   0.096   6.177   0.673 -0.1861 -0.0868 -0.0455
  388MOL     H647220   0.020   6.090   0.552 -0.1239 -0.1297  0.0380
  388MOL     H747221   9.097   6.096   0.847 -0.8176 -0.5403  0.7218
  388MOL     C847222   9.102   6.280   0.618 -0.1321  0.3934  0.3625
  388MOL    Cl947223   0.020   6.382   0.517  0.1032  0.1981  0.1500
  388MOL   Cl1047224   9.106   6.360   0.778 -0.2217 -0.4748 -0.2568
  388MOL    C1147225   8.958   6.285   0.557 -0.2757 -0.4057 -0.1067
  388MOL    H1247226   8.899   6.218   0.619  1.5709 -2.9442 -1.0364
  388MOL    H1347227   8.913   6.383   0.574  0.3845 -0.3342  1.3604
  388MOL    C1447228   8.922   6.246   0.416 -0.4385 -0.6792  0.0973
  388MOL   Cl1547229   8.743   6.239   0.403  0.2759  0.1766  0.0294
  388MOL   Cl1647230   8.987   6.093   0.374 -0.1032 -0.4877  0.5379
  388MOL    C1747231   8.964   6.346   0.298 -0.6890  0.6077  0.3750
  388MOL    H1847232   9.073   6.351   0.301 -0.6132 -0.2026 -0.8757
  388MOL    H1947233   8.934   6.294   0.208  0.2036 -0.3469  0.6209
  388MOL    C2047234   8.918   6.491   0.282  0.1642 -0.2901 -0.1568
  388MOL   Cl2147235   8.961   6.584   0.424  0.0817  0.3420  0.3451
  388MOL   Cl2247236   8.741   6.508   0.270 -0.1364  0.4362 -0.1843
  388MOL    C2347237   8.974   6.560   0.158  0.4825 -0.2979  0.5886
  388MOL    H2447238   8.910   6.519   0.080  0.0524 -1.1837  1.4083
  388MOL    H2547239   8.948   6.665   0.174 -0.5928 -0.7925  2.1567
  388MOL    C2647240   9.127   6.548   0.118 -0.2488  0.2142  0.3572
  388MOL   Cl2747241   9.167   6.387   0.070  0.5170  0.0011 -0.0287
  388MOL   Cl2847242   0.048   6.596   0.262 -0.0986 -0.3406  0.2047
  388MOL    C2947243   9.166   6.651   0.011  0.6991 -0.7139  0.0882
  388MOL    H3047244   9.080   6.657   9.125  0.0985  1.9686  1.0187
  388MOL    H3147245   9.156   6.750   0.057 -0.4201  0.6377 -2.9552
  388MOL    C3247246   0.117   6.658   9.111 -0.4314 -0.0778  0.4510
  388MOL   Cl3347247   0.121   6.813   9.030 -0.1863 -0.2509  0.5151
  388MOL   Cl3447248   0.108   6.536   8.986 -0.3185  0.6546 -0.1461
  388MOL    C3547249   0.246   6.632   0.009 -0.1243 -1.0062 -0.1165
  388MOL    H3647250   0.246   6.699   0.095  4.0973 -2.0103  0.7555
  388MOL    H3747251   0.240   6.528   0.044 -0.0683 -0.9702 -0.0036
  388MOL    C3847252   0.387   6.653   9.130  1.0405 -0.8001  0.6719
  388MOL   Cl3947253   0.496   6.603   0.082  0.6036 -0.1581  0.0897
  388MOL   Cl4047254   0.423   6.829   9.102  0.0267  0.0187  0.1876
  388MOL    C4147255   0.421   6.567   9.002 -0.1547  0.6663  0.0421
  388MOL    H4247256   0.391   6.463   9.017  1.2660 -0.0215 -1.6387
  388MOL    H4347257   0.356   6.599   8.921  1.3669  0.6119 -1.2221
  388MOL    C4447258   0.571   6.559   8.947  0.4372  0.4443  0.3840
  388MOL   Cl4547259   0.562   6.517   8.775 -0.2535 -0.1059  0.1794
  388MOL   Cl4647260   0.641   6.415   9.026 -0.4050  0.0718 -0.2143
  388MOL    C4747261   0.667   6.683   8.955 -0.3123  0.2254 -0.3414
  388MOL    H4847262   0.603   6.770   8.949  0.2457  0.8686  2.1492
  388MOL    H4947263   0.696   6.692   9.060  0.6835  0.3598 -0.6226
  388MOL    C5047264   0.803   6.699   8.878  0.2817  0.8560 -0.6862
  388MOL   Cl5147265   0.767   6.745   8.706  0.1082 -0.0233  0.0533
  388MOL   Cl5247266   0.891   6.547   8.897  0.0047 -0.1877 -0.1688
  388MOL    C5347267   0.883   6.811   8.948  0.5463 -0.7526  0.0865
  388MOL    H5447268   0.811   6.892   8.958 -0.2431 -1.4349 -0.0719
  388MOL    H5547269   0.917   6.787   9.049 -0.5496  1.2013  0.9409
  388MOL    C5647270   1.006   6.880   8.865 -0.0868  0.1352 -1.1189
  388MOL   Cl5747271   0.948   7.002   8.755 -0.0557 -0.3414  0.2966
  388MOL   Cl5847272   1.084   6.753   8.762 -0.1821 -0.3506 -0.2793
  388MOL    C5947273   1.120   6.945   8.951 -0.4990  0.1442  0.0290
  388MOL    H6047274   1.208   6.884   8.971  0.8216  1.4213 -1.7411
  388MOL    H6147275   1.161   7.025   8.890 -0.6379  0.1978  0.0083
  388MOL    C6247276   1.091   7.029   9.081  0.1164 -0.0123  0.1902
  388MOL   Cl6347277   1.098   6.919   0.035  0.0469 -0.2531 -0.1600
  388MOL   Cl6447278   0.927   7.098   9.079  0.0661  0.2028  0.3307
  388MOL    C6547279   1.207   7.130   9.094  0.0420  0.3298  0.5483
  388MOL    H6647280   1.179   7.191   9.179  1.8358 -1.6337  2.6053
  388MOL    H6747281   1.295   7.078   9.132 -1.5164 -1.9866  1.0659
  388MOL    C6847282   1.254   7.240   8.985  0.0716  0.3720 -0.0156
  388MOL   Cl6947283   1.109   7.313   8.910 -0.0174  0.3846 -0.3837
  388MOL   Cl7047284   1.359   7.177   8.852  0.0934  0.2809  0.5386
  388MOL    C7147285   1.328   7.365   9.045 -0.2153  0.5182 -0.6073
  388MOL    H7247286   1.358   7.433   8.965 -2.3648  2.9517  0.5823
  388MOL    H7347287   1.252   7.427   9.093 -1.7198 -0.3847 -1.7607
  388MOL    C7447288   1.451   7.353   9.140 -0.0211  0.4050 -0.5907
  388MOL   Cl7547289   1.550   7.214   9.096  0.5891  0.2426 -0.1302
  388MOL   Cl7647290   1.393   7.309   0.109 -0.1764 -0.0227  0.0152
  388MOL    C7747291   1.530   7.495   9.154  0.5175  0.6508 -0.3330
  388MOL    H7847292   1.465   7.579   9.129 -0.3804  0.0422 -0.0521
  388MOL    H7947293   1.560   7.508   0.077  0.8856  2.6761 -0.6700
  388MOL    C8047294   1.653   7.519   9.062 -0.0858  0.7204  0.7784
  388MOL   Cl8147295   1.600   7.479   8.894 -0.1113 -0.1346  0.4161
  388MOL   Cl8247296   1.802   7.417   9.113  0.0804 -0.1382  0.0849
  388MOL    C8347297   1.696   7.666   9.053 -0.4848  0.3876 -0.1478
  388MOL    H8447298   1.747   7.686   8.959 -1.3997  1.9172 -0.3427
  388MOL    H8547299   1.601   7.716   9.031 -0.7956 -0.8017 -1.5760
  388MOL    C8647300   1.771   7.747   9.171 -0.2008 -0.2839 -0.5545
  388MOL   Cl8747301   1.950   7.717   9.163  0.0360 -0.4616 -0.2940
  388MOL   Cl8847302   1.717   7.693   0.151 -0.0634  0.1368 -0.6041
  388MOL    C8947303   1.752   7.907   9.168  0.0509  0.9206 -0.4790
  388MOL    H9047304   1.656   7.930   0.033 -0.6635 -1.0282 -0.9655
  388MOL    H9147305   1.836   7.944   0.047 -1.1511 -1.2207  2.7420
  388MOL    C9247306   1.746   7.989   9.037 -0.4253  0.3843  0.0917
  388MOL   Cl9347307   1.594   7.973   8.944 -0.0310 -0.0427  0.3287
  388MOL   Cl9447308   1.879   7.950   8.931  0.1634 -0.0634  0.1677
  388MOL    C9547309   1.770   8.142   9.065 -0.3346 -0.7064 -0.3550
  388MOL    H9647310   1.874   8.171   9.071 -0.7323  0.6633 -0.0666
  388MOL    H9747311   1.747   8.184   8.967 -0.5501  0.9089  0.3712
  388MOL    C9847312   1.683   8.222   9.175  0.0625  0.0697 -0.1605
  388MOL   Cl9947313   1.747   8.181   0.157 -0.3288 -0.1203  0.5392
  388MOL  Cl10047314   1.519   8.169   0.006  0.4595 -0.3809 -0.2461
  388MOL   C10147315   1.687   8.379   9.157 -0.1952 -0.1320  0.3014
  388MOL   H10247316   1.605   8.422   0.035 -2.2024 -0.0073 -2.4857
  388MOL   H10347317   1.776   8.409   0.030  0.4244 -1.2282 -0.1005
  388MOL   C10447318   1.685   8.450   9.013  0.2067 -0.3775 -0.5870
  388MOL  Cl10547319   1.566   8.375   8.903 -0.2006 -0.0907  0.1150
  388MOL  Cl10647320   1.849   8.435   8.942 -0.1675 -0.2777 -0.1506
  388MOL   C10747321   1.661   8.600   9.023  0.1698  0.0258  0.2654
  388MOL   H10847322   1.667   8.649   8.926 -0.9179 -2.2452 -1.0100
  388MOL   H10947323   1.556   8.626   9.032  0.2467  1.4617 -2.4219
  388MOL   C11047324   1.734   8.678   9.133 -0.4942 -0.1330 -0.1960
  388MOL  Cl11147325   1.680   8.652   0.118  0.0944  0.2701  0.2088
  388MOL  Cl11247326   1.670   8.838   9.090  0.2759 -0.1240  0.3635
  388MOL   C11347327   1.892   8.691   9.118 -0.5195  0.0623 -0.1808
  388MOL   H11447328   1.928   8.591   9.144  0.9298  1.1078  2.0819
  388MOL   H11547329   1.911   8.696   9.011  1.9444 -1.9688  0.1024
  388MOL   C11647330   1.988   8.796   0.005  0.6591  0.1825  0.1343
  388MOL  Cl11747331   1.962   8.960   9.131 -0.1221 -0.0000  0.3598
  388MOL  Cl11847332   2.154   8.749   9.140  0.0893 -0.4074  0.1035
  388MOL   C11947333   1.979   8.792   0.157 -0.6973 -0.1428 -0.6118
  388MOL   H12047334   2.064   8.828   0.214 -1.3335 -1.1281  1.0041
  388MOL   H12147335   1.891   8.846   0.191  0.1306  1.9738 -1.7885
  388MOL   H12247336   1.972   8.688   0.191 -1.1206  0.0540 -0.0973
  389MOL     C147337   3.129   2.284   4.426 -0.4613  0.0006  0.0354
  389MOL    Cl247338   3.065   2.455   4.418  0.2554  0.4283  0.1085
  389MOL    Cl347339   3.247   2.255   4.295  0.0157 -0.1422  0.0469
  389MOL     C447340   3.200   2.269   4.570  0.3252  0.2966  0.5026
  389MOL     H547341   3.291   2.329   4.567 -0.7045  1.8986  0.7335
  389MOL     H647342   3.131   2.315   4.641  0.8502  0.5031  0.8863
  389MOL     H747343   3.041   2.220   4.416 -0.7615  0.4170 -0.0330
  389MOL     C847344   3.222   2.130   4.630  0.0305 -0.3825 -0.7392
  389MOL    Cl947345   3.050   2.068   4.655  0.2108  0.3197 -0.1279
  389MOL   Cl1047346   3.291   2.157   4.788  0.3455  0.3176  0.1956
  389MOL    C1147347   3.298   2.040   4.538 -0.2336 -0.1833  0.5150
  389MOL    H1247348   3.224   2.041   4.458  1.2809 -2.1997 -0.9771
  389MOL    H1347349   3.382   2.102   4.507 -2.2150  1.3706 -1.8945
  389MOL    C1447350   3.348   1.898   4.579 -0.1570  0.2797 -0.6028
  389MOL   Cl1547351   3.483   1.922   4.688  0.1131  0.0619 -0.2198
  389MOL   Cl1647352   3.434   1.837   4.438  0.2972 -0.3119 -0.3154
  389MOL    C1747353   3.240   1.802   4.636 -0.4768 -0.4710 -0.8090
  389MOL    H1847354   3.213   1.851   4.730 -2.3366 -2.3050 -0.3416
  389MOL    H1947355   3.158   1.799   4.564 -1.1879 -2.0534  0.0260
  389MOL    C2047356   3.265   1.644   4.659 -0.2945  0.1986  0.1660
  389MOL   Cl2147357   3.407   1.607   4.761  0.1157  0.0989  0.0027
  389MOL   Cl2247358   3.305   1.561   4.504  0.0978  0.6936  0.1823
  389MOL    C2347359   3.146   1.567   4.714  0.6902 -0.0451  0.4084
  389MOL    H2447360   3.173   1.462   4.715  1.4518  0.1458  0.3237
  389MOL    H2547361   3.135   1.597   4.819 -1.1633 -0.2023  0.2702
  389MOL    C2647362   3.000   1.583   4.666  0.0911  0.2736 -0.0225
  389MOL   Cl2747363   2.988   1.568   4.483 -0.1398  0.1022 -0.3189
  389MOL   Cl2847364   2.929   1.744   4.711  0.0323 -0.3160 -0.3296
  389MOL    C2947365   2.902   1.468   4.717 -0.1574 -0.1189  0.0641
  389MOL    H3047366   2.812   1.505   4.670  0.3657  1.4427  0.2507
  389MOL    H3147367   2.933   1.380   4.660  1.4505  1.1442 -1.0783
  389MOL    C3247368   2.884   1.430   4.867  1.1518  0.2641 -0.6812
  389MOL   Cl3347369   2.819   1.573   4.954 -0.2714 -0.0650 -0.0732
  389MOL   Cl3447370   3.040   1.370   4.929 -0.1423 -0.1794 -0.0101
  389MOL    C3547371   2.784   1.311   4.886 -0.0147  0.1248 -0.1729
  389MOL    H3647372   2.807   1.299   4.992 -3.5464 -0.9275  0.5419
  389MOL    H3747373   2.685   1.357   4.887 -0.1796 -0.1534 -1.9939
  389MOL    C3847374   2.781   1.191   4.788  0.8478  0.4342  0.4187
  389MOL   Cl3947375   2.711   1.234   4.630 -0.2082  0.1788  0.2100
  389MOL   Cl4047376   2.657   1.093   4.864  0.1584 -0.2133 -0.1371
  389MOL    C4147377   2.906   1.103   4.782 -0.6243 -0.3543 -0.8509
  389MOL    H4247378   2.962   1.163   4.710  0.5341 -2.1566 -1.4837
  389MOL    H4347379   2.968   1.110   4.872 -2.0734  2.4814 -0.0129
  389MOL    C4447380   2.916   0.964   4.715 -0.5365 -0.1380 -0.6453
  389MOL   Cl4547381   2.786   0.939   4.606 -0.0310 -0.0546 -0.2851
  389MOL   Cl4647382   2.904   0.843   4.844  0.3550 -0.4213  0.1046
  389MOL    C4747383   3.045   0.948   4.635 -0.6048 -0.6848  0.5424
  389MOL    H4847384   3.052   0.848   4.592  0.8657  0.2593 -1.4646
  389MOL    H4947385   3.024   1.013   4.550 -1.6042 -1.8954 -0.1632
  389MOL    C5047386   3.187   0.981   4.690 -0.5918 -0.2318 -0.2646
  389MOL   Cl5147387   3.214   0.896   4.847 -0.1412  0.1887 -0.1860
  389MOL   Cl5247388   3.200   1.152   4.731 -0.1031 -0.0823 -0.0401
  389MOL    C5347389   3.308   0.942   4.595 -0.5125  0.2428 -0.6231
  389MOL    H5447390   3.390   0.957   4.666  0.2953  0.7679 -1.6419
  389MOL    H5547391   3.298   0.836   4.573  0.6428 -0.0861  0.3433
  389MOL    C5647392   3.340   1.005   4.457 -0.2469  0.2737 -0.0512
  389MOL   Cl5747393   3.392   1.176   4.460 -0.2551 -0.0325  0.1050
  389MOL   Cl5847394   3.203   1.003   4.355  0.5290  0.5564  0.2123
  389MOL    C5947395   3.439   0.924   4.379  0.4462  1.3294 -0.7020
  389MOL    H6047396   3.393   0.825   4.370  2.4533  0.4578 -1.8515
  389MOL    H6147397   3.438   0.964   4.277 -0.7042  1.4023 -0.6661
  389MOL    C6247398   3.588   0.878   4.419  0.6337 -0.2523 -0.3206
  389MOL   Cl6347399   3.590   0.801   4.585  0.1146 -0.1178  0.2557
  389MOL   Cl6447400   3.679   1.027   4.433  0.0344 -0.2571  0.1915
  389MOL    C6547401   3.672   0.802   4.307 -0.0566 -0.5994  0.0503
  389MOL    H6647402   3.688   0.871   4.224 -0.9660  1.0216  1.2042
  389MOL    H6747403   3.774   0.778   4.337  1.4543  0.3569 -3.9642
  389MOL    C6847404   3.613   0.672   4.250  0.3694 -0.1351  0.1631
  389MOL   Cl6947405   3.454   0.706   4.172 -0.1048  0.1809  0.0964
  389MOL   Cl7047406   3.588   0.538   4.363 -0.1287  0.1813 -0.3097
  389MOL    C7147407   3.712   0.617   4.142  0.2002 -0.0838 -0.4478
  389MOL    H7247408   3.736   0.694   4.069 -0.2683  2.2251  1.7882
  389MOL    H7347409   3.803   0.599   4.200 -0.2965  1.5292  0.8720
  389MOL    C7447410   3.676   0.479   4.062 -0.5460  0.1127 -0.8523
  389MOL   Cl7547411   3.766   0.346   4.144  0.1148 -0.1494 -0.0164
  389MOL   Cl7647412   3.749   0.494   3.904  0.2342  0.2160 -0.1996
  389MOL    C7747413   3.524   0.447   4.038  0.3162 -0.1427  0.3498
  389MOL    H7847414   3.478   0.448   4.137  1.5189 -1.7745  0.9485
  389MOL    H7947415   3.476   0.527   3.982  0.9049  0.6202  0.9235
  389MOL    C8047416   3.472   0.302   3.996 -0.1114  0.3135 -0.0635
  389MOL   Cl8147417   3.298   0.328   3.940 -0.1696 -0.3872 -0.4848
  389MOL   Cl8247418   3.464   0.191   4.140  0.1147 -0.2630 -0.2925
  389MOL    C8347419   3.548   0.243   3.875 -0.7044 -0.0419 -0.1382
  389MOL    H8447420   3.514   0.287   3.781  0.1259 -0.4330 -0.6254
  389MOL    H8547421   3.655   0.255   3.897 -0.6708  1.2057 -0.8978
  389MOL    C8647422   3.540   0.091   3.843  1.0186  0.1780 -0.5683
  389MOL   Cl8747423   3.622   0.001   3.977 -0.0285 -0.0444  0.4314
  389MOL   Cl8847424   3.637   0.063   3.702  0.0519 -0.2730 -0.1399
  389MOL    C8947425   3.396   0.047   3.805  0.3698 -0.5100 -0.0746
  389MOL    H9047426   3.335   0.036   3.895  0.6067 -0.5518  0.0795
  389MOL    H9147427   3.340   0.120   3.747 -0.4261 -0.4369  0.7719
  389MOL    C9247428   3.372   9.090   3.734 -0.3798  0.2247  0.4139
  389MOL   Cl9347429   3.393   9.116   3.560  0.1226 -0.1806  0.2656
  389MOL   Cl9447430   3.196   9.058   3.760  0.0966  0.0264  0.2308
  389MOL    C9547431   3.456   8.969   3.792 -0.2892 -1.2517  0.0131
  389MOL    H9647432   3.559   9.000   3.771 -0.2389  0.0634  2.1093
  389MOL    H9747433   3.429   8.954   3.896 -2.1212  1.5255 -0.0354
  389MOL    C9847434   3.437   8.825   3.736  0.5054 -0.3837 -0.1424
  389MOL   Cl9947435   3.456   8.819   3.561 -0.1958 -0.1452 -0.2121
  389MOL  Cl10047436   3.274   8.750   3.781  0.0194 -0.4029  0.0502
  389MOL   C10147437   3.544   8.726   3.784  0.5337 -0.2771 -0.0389
  389MOL   H10247438   3.531   8.634   3.727  1.5416  0.6273 -1.7707
  389MOL   H10347439   3.638   8.764   3.744  1.1450  1.1529  2.6261
  389MOL   C10447440   3.584   8.694   3.933  0.4314 -0.6872  0.6813
  389MOL  Cl10547441   3.444   8.645   4.040  0.1434 -0.3628  0.3412
  389MOL  Cl10647442   3.635   8.835   4.007 -0.0569  0.4118 -0.1977
  389MOL   C10747443   3.698   8.595   3.957 -0.5033 -0.1955  0.1707
  389MOL   H10847444   3.796   8.643   3.945 -0.3204 -0.3144  1.2006
  389MOL   H10947445   3.691   8.566   4.061  1.4076 -0.3723  0.2837
  389MOL   C11047446   3.718   8.469   3.873  1.2221  0.0065 -0.1847
  389MOL  Cl11147447   3.854   8.368   3.943  0.5908 -0.5261  0.0356
  389MOL  Cl11247448   3.793   8.521   3.716  0.1702 -0.1513 -0.2783
  389MOL   C11347449   3.590   8.379   3.868 -0.1335  0.1825  0.3302
  389MOL   H11447450   3.580   8.326   3.963 -0.0180 -0.8260 -0.2104
  389MOL   H11547451   3.504   8.445   3.864 -0.8280 -0.7871 -1.3515
  389MOL   C11647452   3.579   8.275   3.755  0.0358  0.5321  0.2711
  389MOL  Cl11747453   3.444   8.162   3.792 -0.4821 -0.0475  0.3758
  389MOL  Cl11847454   3.724   8.175   3.737  0.2013  0.0751 -0.1829
  389MOL   C11947455   3.550   8.335   3.613 -0.3409 -0.0563  0.2041
  389MOL   H12047456   3.467   8.405   3.602  0.1152  0.5548  0.6952
  389MOL   H12147457   3.640   8.384   3.579  0.3930 -0.0452  2.1174
  389MOL   H12247458   3.550   8.251   3.543  1.4018 -0.0318  0.1517
  390MOL     C147459   0.200   3.397   1.750 -0.3609  0.4645 -0.0323
  390MOL    Cl247460   0.051   3.316   1.727  0.1139  0.4688 -0.0670
  390MOL    Cl347461   0.175   3.570   1.706  0.3748  0.1110 -0.1296
  390MOL     C447462   0.251   3.375   1.896 -0.3948  0.3597  0.5889
  390MOL     H547463   0.201   3.444   1.964 -0.6654 -1.1421  1.9436
  390MOL     H647464   0.217   3.276   1.928  0.1430 -0.2278 -0.6121
  390MOL     H747465   0.276   3.355   1.683 -2.0219 -0.2061 -1.5332
  390MOL     C847466   0.400   3.393   1.919 -0.5050  0.2638  0.1250
  390MOL    Cl947467   0.453   3.555   1.863 -0.1820  0.1846  0.0011
  390MOL   Cl1047468   0.490   3.268   1.823 -0.0486  0.0184 -0.3393
  390MOL    C1147469   0.423   3.382   2.070 -0.0549 -0.0170  0.8206
  390MOL    H1247470   0.378   3.467   2.121  1.7217  0.1235  2.2028
  390MOL    H1347471   0.350   3.309   2.105 -0.8834  0.2949 -0.2302
  390MOL    C1447472   0.560   3.367   2.140 -0.1528 -0.4070  0.0243
  390MOL   Cl1547473   0.628   3.202   2.134 -0.2773  0.1072 -0.0969
  390MOL   Cl1647474   0.533   3.400   2.311 -0.1719 -0.0219 -0.1083
  390MOL    C1747475   0.674   3.470   2.089 -0.3371 -0.4497  0.3454
  390MOL    H1847476   0.677   3.472   1.980  2.5079  1.0078  0.4007
  390MOL    H1947477   0.639   3.570   2.114 -1.0913 -0.6207 -0.0272
  390MOL    C2047478   0.830   3.455   2.129  0.4975  0.0253 -0.2974
  390MOL   Cl2147479   0.914   3.615   2.114 -0.0178  0.0355  0.1212
  390MOL   Cl2247480   0.903   3.343   2.007 -0.1891 -0.0657 -0.6275
  390MOL    C2347481   0.857   3.400   2.273  0.3816 -0.5967  0.4599
  390MOL    H2447482   0.791   3.467   2.327  1.1922  0.0045  0.7115
  390MOL    H2547483   0.825   3.296   2.281 -0.8949 -0.2191  0.4197
  390MOL    C2647484   0.995   3.391   2.337  0.4490  0.2468  0.0220
  390MOL   Cl2747485   1.074   3.549   2.366 -0.9014 -0.1014  0.2332
  390MOL   Cl2847486   1.099   3.302   2.219 -0.6970  0.1725  0.0916
  390MOL    C2947487   0.998   3.299   2.465 -0.2664  0.3948  0.5749
  390MOL    H3047488   0.961   3.201   2.434 -0.6637  0.6801  0.1421
  390MOL    H3147489   1.103   3.281   2.491  0.5300  3.6441 -0.1052
  390MOL    C3247490   0.936   3.334   2.606 -0.1477 -0.3174  0.7653
  390MOL   Cl3347491   0.989   3.209   2.723 -0.1689  0.3043 -0.1858
  390MOL   Cl3447492   0.755   3.312   2.586  0.1792 -0.0343 -0.0738
  390MOL    C3547493   0.968   3.478   2.659  0.1941 -0.3315 -0.1062
  390MOL    H3647494   1.073   3.507   2.653 -0.4974  2.7339  1.4276
  390MOL    H3747495   0.900   3.534   2.594 -0.6721  1.4112  2.2115
  390MOL    C3847496   0.926   3.522   2.801 -0.2059 -1.1104  0.2399
  390MOL   Cl3947497   0.941   3.705   2.778 -0.2910  0.0271 -0.2320
  390MOL   Cl4047498   1.052   3.463   2.920 -0.2043 -0.1106  0.3019
  390MOL    C4147499   0.784   3.483   2.836  0.5710 -0.3836 -0.2473
  390MOL    H4247500   0.728   3.532   2.756  1.5246  0.0141 -0.6793
  390MOL    H4347501   0.770   3.378   2.814 -0.4331 -0.3766  0.3188
  390MOL    C4447502   0.728   3.509   2.977  0.2239 -0.4574 -0.2861
  390MOL   Cl4547503   0.798   3.375   3.082 -0.0970 -0.3805 -0.3759
  390MOL   Cl4647504   0.560   3.473   2.940 -0.1212 -0.0031 -0.0426
  390MOL    C4747505   0.751   3.649   3.047 -1.1244 -0.4628  0.2733
  390MOL    H4847506   0.858   3.669   3.050 -0.9797 -0.9492 -1.0585
  390MOL    H4947507   0.729   3.721   2.968 -2.1204  0.2196  1.1449
  390MOL    C5047508   0.663   3.707   3.162 -0.0722  0.7309  0.0012
  390MOL   Cl5147509   0.493   3.715   3.109  0.1867  0.1238  0.1736
  390MOL   Cl5247510   0.726   3.871   3.180  0.2845  0.3669 -0.0643
  390MOL    C5347511   0.682   3.608   3.287 -0.3998  0.0559  0.7155
  390MOL    H5447512   0.637   3.510   3.272  0.3617 -0.0563 -0.9323
  390MOL    H5547513   0.788   3.596   3.310  0.2229  0.5481 -1.7433
  390MOL    C5647514   0.640   3.652   3.434 -0.6835  0.5242  0.6409
  390MOL   Cl5747515   0.465   3.687   3.430 -0.1626  0.3092  0.1268
  390MOL   Cl5847516   0.730   3.798   3.493 -0.2275  0.0763  0.0803
  390MOL    C5947517   0.670   3.535   3.534 -0.1651  0.1658 -0.4292
  390MOL    H6047518   0.598   3.459   3.502 -0.1571 -0.1632  0.3138
  390MOL    H6147519   0.769   3.494   3.516  0.8170  1.9882  0.6880
  390MOL    C6247520   0.656   3.542   3.689 -0.1882 -0.6403 -0.8355
  390MOL   Cl6347521   0.684   3.372   3.736  0.3600  0.5447 -0.0230
  390MOL   Cl6447522   0.483   3.589   3.733 -0.3104 -0.2323 -0.0646
  390MOL    C6547523   0.741   3.639   3.781 -0.5657 -0.4393  0.4074
  390MOL    H6647524   0.715   3.743   3.762 -1.1280 -0.4621  1.0420
  390MOL    H6747525   0.697   3.620   3.879  0.7687  0.6506  1.2344
  390MOL    C6847526   0.900   3.632   3.793  0.0204  1.0146  0.1803
  390MOL   Cl6947527   0.961   3.611   3.632  0.1631 -0.1932 -0.2073
  390MOL   Cl7047528   0.946   3.477   3.871  0.2387  0.3385  0.1718
  390MOL    C7147529   0.978   3.751   3.857  0.1956 -0.1706 -0.5025
  390MOL    H7247530   1.084   3.733   3.837  0.0340 -2.1182  0.2886
  390MOL    H7347531   0.962   3.833   3.787  1.4013  1.6578  1.2994
  390MOL    C7447532   0.957   3.792   4.004  0.4933 -0.5954  0.0756
  390MOL   Cl7547533   1.043   3.682   4.108 -0.2594  0.5084 -0.0790
  390MOL   Cl7647534   0.781   3.799   4.037  0.6389 -0.3618 -0.0062
  390MOL    C7747535   1.003   3.935   4.040 -0.8207 -0.5656 -0.1116
  390MOL    H7847536   0.936   4.015   4.008  1.4046  2.5070  2.6161
  390MOL    H7947537   0.994   3.935   4.149 -0.8243 -2.5730 -0.0837
  390MOL    C8047538   1.149   3.987   3.996  0.8995 -0.1100  0.5916
  390MOL   Cl8147539   1.145   4.024   3.821  0.1648  0.3684 -0.5270
  390MOL   Cl8247540   1.275   3.865   4.019 -0.1266  0.0582 -0.0004
  390MOL    C8347541   1.203   4.118   4.068 -0.1151 -0.1288 -0.2084
  390MOL    H8447542   1.242   4.089   4.166 -1.5405  2.3386  1.1443
  390MOL    H8547543   1.299   4.134   4.017  1.2435  0.8764  2.5253
  390MOL    C8647544   1.119   4.244   4.105  0.2081  0.4802 -0.0691
  390MOL   Cl8747545   1.010   4.212   4.245  0.1122  0.1910  0.0028
  390MOL   Cl8847546   1.016   4.283   3.964 -0.2224 -0.0730  0.3275
  390MOL    C8947547   1.205   4.374   4.125 -0.1372  0.6905  0.6668
  390MOL    H9047548   1.248   4.418   4.035 -2.6583  3.2446  0.6166
  390MOL    H9147549   1.135   4.451   4.157 -2.2026 -0.2323 -1.4812
  390MOL    C9247550   1.321   4.384   4.229  0.3934  0.0360 -0.4704
  390MOL   Cl9347551   1.366   4.555   4.243  0.2833 -0.0890 -0.2552
  390MOL   Cl9447552   1.458   4.291   4.166 -0.0193 -0.2800  0.2877
  390MOL    C9547553   1.284   4.323   4.369  0.4167 -0.1127  0.8315
  390MOL    H9647554   1.181   4.351   4.390  0.1405  3.1487 -4.0616
  390MOL    H9747555   1.296   4.218   4.339  1.6771 -0.1720  1.4934
  390MOL    C9847556   1.354   4.346   4.508 -0.0780 -0.3940 -0.8069
  390MOL   Cl9947557   1.519   4.283   4.492  0.3776  0.0542 -0.2209
  390MOL  Cl10047558   1.256   4.246   4.625 -0.0314  0.2103 -0.3627
  390MOL   C10147559   1.357   4.501   4.550  0.8737  0.3400  0.6162
  390MOL   H10247560   1.435   4.547   4.490  0.4427  2.7486  1.8553
  390MOL   H10347561   1.263   4.544   4.517  0.5733 -0.7172  0.0761
  390MOL   C10447562   1.376   4.549   4.698  0.8383 -0.3175  0.1296
  390MOL  Cl10547563   1.514   4.464   4.768 -0.1675 -0.4562  0.2628
  390MOL  Cl10647564   1.243   4.492   4.799  0.0802  0.2874  0.1740
  390MOL   C10747565   1.397   4.703   4.728  0.1593  0.4080 -0.2380
  390MOL   H10847566   1.389   4.714   4.836 -1.2212  3.6171 -0.6087
  390MOL   H10947567   1.501   4.736   4.721  0.3728  0.1364  1.3030
  390MOL   C11047568   1.315   4.815   4.649 -0.2213  0.4328  0.1849
  390MOL  Cl11147569   1.143   4.793   4.665  0.1346  0.1049 -0.0876
  390MOL  Cl11247570   1.362   4.805   4.486  0.0670  0.0475 -0.1382
  390MOL   C11347571   1.367   4.959   4.688 -0.3339 -0.1168 -1.3245
  390MOL   H11447572   1.473   4.969   4.665 -0.4816  2.0107 -1.1790
  390MOL   H11547573   1.318   5.022   4.614 -0.9346  0.4960 -0.4204
  390MOL   C11647574   1.370   5.011   4.836  0.5340  0.1782  0.7828
  390MOL  Cl11747575   1.371   5.192   4.830 -0.1427 -0.1359  0.3213
  390MOL  Cl11847576   1.510   4.936   4.925  0.3712 -0.0920  0.1240
  390MOL   C11947577   1.245   4.970   4.912  0.1231  0.5429  0.3948
  390MOL   H12047578   1.272   4.984   5.016  1.0831 -0.4946  0.2861
  390MOL   H12147579   1.155   5.029   4.894  0.0937  0.3521 -0.0941
  390MOL   H12247580   1.228   4.863   4.904  0.3541  0.4626  0.9450
  391MOL     C147581   7.309   8.429   8.082 -0.1632 -0.0306  0.0644
  391MOL    Cl247582   7.231   8.498   8.229  0.0166 -0.4587 -0.1930
  391MOL    Cl347583   7.185   8.345   7.988  0.1540 -0.1110  0.1215
  391MOL     C447584   7.380   8.541   7.999 -0.0825  0.3486  0.2590
  391MOL     H547585   7.371   8.504   7.897  1.3152  0.7796 -0.0244
  391MOL     H647586   7.322   8.632   7.993  0.6987  0.8040 -0.5040
  391MOL     H747587   7.369   8.346   8.120  0.5557 -0.2661 -1.5393
  391MOL     C847588   7.525   8.584   8.044 -0.7429 -0.2909  0.7987
  391MOL    Cl947589   7.636   8.451   8.070  0.0263  0.1314  0.2648
  391MOL   Cl1047590   7.493   8.665   8.192  0.0325 -0.0733  0.2658
  391MOL    C1147591   7.589   8.695   7.946 -0.3551 -0.3824  0.1523
  391MOL    H1247592   7.508   8.759   7.911  0.1404 -0.0310 -0.3603
  391MOL    H1347593   7.647   8.767   8.004 -0.3215  0.2475 -0.6600
  391MOL    C1447594   7.678   8.660   7.821 -0.1707 -0.6779  0.3623
  391MOL   Cl1547595   7.605   8.525   7.728  0.4720  0.1061  0.2197
  391MOL   Cl1647596   7.834   8.594   7.871  0.5421 -0.4081 -0.2863
  391MOL    C1747597   7.703   8.776   7.717  0.5294 -0.2492 -0.4052
  391MOL    H1847598   7.766   8.745   7.633  2.8975  2.4020  0.2918
  391MOL    H1947599   7.603   8.794   7.678  0.3687  1.9711  0.9381
  391MOL    C2047600   7.755   8.920   7.752  0.7734 -0.4627  0.4178
  391MOL   Cl2147601   7.624   9.011   7.840  0.0690  0.1633  0.1297
  391MOL   Cl2247602   7.748   9.006   7.597 -0.2964 -0.1781 -0.1154
  391MOL    C2347603   7.902   8.916   7.820  0.0600 -0.7843  0.0808
  391MOL    H2447604   7.887   8.874   7.920  0.7797 -0.0534  0.5033
  391MOL    H2547605   7.951   8.834   7.767 -1.2928 -1.3555 -0.3072
  391MOL    C2647606   7.996   9.039   7.841  0.3929 -0.0669 -0.1418
  391MOL   Cl2747607   8.121   8.959   7.946  0.4818  0.4214 -0.6967
  391MOL   Cl2847608   7.911   9.159   7.945  0.3496 -0.0198  0.0726
  391MOL    C2947609   8.067   9.101   7.715 -0.4820 -0.2768 -0.7049
  391MOL    H3047610   8.126   9.021   7.671  0.3821 -1.6472  2.8471
  391MOL    H3147611   8.000   9.144   7.640 -0.0720 -0.1930 -1.0237
  391MOL    C3247612   8.163   0.036   7.727 -0.0751 -0.0951  0.5729
  391MOL   Cl3347613   8.069   0.185   7.759  0.0338 -0.1271 -0.0455
  391MOL   Cl3447614   8.234   0.062   7.561 -0.2162  0.6617 -0.0471
  391MOL    C3547615   8.278   0.010   7.837  0.3445 -0.0620 -0.1585
  391MOL    H3647616   8.241   0.031   7.937 -2.7883 -1.3056 -0.9906
  391MOL    H3747617   8.316   9.088   7.838 -0.0801 -0.2225 -0.4963
  391MOL    C3847618   8.413   0.097   7.831  0.7616  0.4081  0.1089
  391MOL   Cl3947619   8.513   0.028   7.704  0.2395  0.2173 -0.0093
  391MOL   Cl4047620   8.502   0.064   7.981 -0.6326  0.2258 -0.6246
  391MOL    C4147621   8.406   0.250   7.809 -0.1771  0.7265  0.0228
  391MOL    H4247622   8.504   0.280   7.773 -0.0363 -0.5724 -0.6829
  391MOL    H4347623   8.334   0.263   7.728 -0.4208 -2.7663 -0.3723
  391MOL    C4447624   8.368   0.351   7.928  0.2493  0.4193 -0.1820
  391MOL   Cl4547625   8.518   0.387   8.020  0.2206 -0.0861  0.2303
  391MOL   Cl4647626   8.256   0.271   8.034  0.0094 -0.3298  0.0637
  391MOL    C4747627   8.294   0.481   7.886 -0.3220 -0.0733 -0.0739
  391MOL    H4847628   8.205   0.448   7.833 -0.2713 -1.0375  0.4135
  391MOL    H4947629   8.264   0.533   7.977  0.5861  0.7274 -0.2266
  391MOL    C5047630   8.369   0.586   7.793 -0.8226 -0.5395 -0.8618
  391MOL   Cl5147631   8.442   0.503   7.650 -0.1308  0.2502 -0.5580
  391MOL   Cl5247632   8.504   0.673   7.881 -0.1649 -0.1016  0.2760
  391MOL    C5347633   8.283   0.699   7.727 -0.7450  0.4060  0.0360
  391MOL    H5447634   8.345   0.770   7.674 -1.4991  1.7865  0.9625
  391MOL    H5547635   8.219   0.657   7.649  0.0341 -1.3598  0.3285
  391MOL    C5647636   8.185   0.768   7.813 -0.2993  0.5655 -0.0051
  391MOL   Cl5747637   8.255   0.824   7.971  0.1047  0.2328  0.1365
  391MOL   Cl5847638   8.045   0.663   7.847  0.1253  0.1323 -0.0551
  391MOL    C5947639   8.113   0.887   7.746 -0.3043 -0.7334 -0.6418
  391MOL    H6047640   8.022   0.858   7.694 -2.1017 -0.2267  2.1592
  391MOL    H6147641   8.084   0.955   7.826  1.4814 -1.4631  0.6586
  391MOL    C6247642   8.195   0.982   7.650 -0.2479  0.2142 -0.1556
  391MOL   Cl6347643   8.230   0.907   7.490  0.5014  0.2582  0.1411
  391MOL   Cl6447644   8.346   1.029   7.731  0.0412  0.3797  0.2991
  391MOL    C6547645   8.129   1.120   7.622 -0.0375  0.1693 -0.0305
  391MOL    H6647646   8.137   1.189   7.705 -1.0478  1.6495 -1.1425
  391MOL    H6747647   8.184   1.155   7.535 -0.7692  2.3480  0.3583
  391MOL    C6847648   7.978   1.118   7.579  0.3118  0.1281 -0.2641
  391MOL   Cl6947649   7.867   1.092   7.724  0.1696 -0.2531 -0.0969
  391MOL   Cl7047650   7.918   0.996   7.463 -0.0881 -0.0142  0.0359
  391MOL    C7147651   7.929   1.251   7.506 -0.1051 -0.2626 -0.7005
  391MOL    H7247652   7.944   1.251   7.398 -0.2133  2.0061 -0.7485
  391MOL    H7347653   7.821   1.257   7.518  0.0352 -1.6938  1.4805
  391MOL    C7447654   7.985   1.394   7.565 -0.0183 -0.7760 -0.7380
  391MOL   Cl7547655   8.164   1.409   7.547 -0.1209 -0.4901  0.7010
  391MOL   Cl7647656   7.966   1.399   7.750 -0.0157  0.0068  0.4492
  391MOL    C7747657   7.906   1.523   7.506  0.7855  0.6184 -0.4634
  391MOL    H7847658   7.817   1.486   7.455  0.0509 -0.5935  1.6510
  391MOL    H7947659   7.874   1.584   7.591 -1.5504 -0.6984 -0.3764
  391MOL    C8047660   7.967   1.607   7.399  0.3872 -0.2707 -0.3354
  391MOL   Cl8147661   8.042   1.494   7.276  0.2775  0.0277 -0.0573
  391MOL   Cl8247662   8.095   1.708   7.476 -0.3939  0.3069 -0.1893
  391MOL    C8347663   7.852   1.688   7.329 -0.2803  0.2403  0.1273
  391MOL    H8447664   7.806   1.612   7.265 -0.1162  1.0359 -0.9497
  391MOL    H8547665   7.783   1.716   7.409  0.1643 -0.1191  0.6448
  391MOL    C8647666   7.866   1.814   7.237  0.4119 -0.3532 -0.2112
  391MOL   Cl8747667   7.936   1.955   7.320  0.3760  0.6541 -0.3083
  391MOL   Cl8847668   7.684   1.849   7.207 -0.2367  0.2107 -0.3606
  391MOL    C8947669   7.941   1.776   7.104 -0.7494 -0.4849  0.5898
  391MOL    H9047670   8.048   1.789   7.122 -0.7567 -1.3678  1.3145
  391MOL    H9147671   7.930   1.671   7.075  0.8697 -0.3008 -0.8369
  391MOL    C9247672   7.907   1.845   6.969 -0.3194  0.1781 -0.5512
  391MOL   Cl9347673   7.755   1.786   6.908  0.1312  0.4615 -0.0590
  391MOL   Cl9447674   8.036   1.788   6.857 -0.3480 -0.0945 -0.2913
  391MOL    C9547675   7.906   2.002   6.995 -0.4580  0.2065 -0.6643
  391MOL    H9647676   7.815   2.021   7.050 -0.7701  0.3830 -1.2299
  391MOL    H9747677   7.986   2.031   7.064  0.8705 -1.7804 -1.3322
  391MOL    C9847678   7.912   2.103   6.876 -0.4818 -0.1631 -0.1222
  391MOL   Cl9947679   8.066   2.107   6.804  0.0759 -0.2102  0.2462
  391MOL  Cl10047680   7.895   2.263   6.953 -0.0590 -0.1257  0.0088
  391MOL   C10147681   7.795   2.083   6.776  0.9076 -0.0912 -0.3492
  391MOL   H10247682   7.805   1.980   6.741 -0.0085 -0.8559  1.5987
  391MOL   H10347683   7.702   2.094   6.830  1.7426 -2.3958  1.6777
  391MOL   C10447684   7.776   2.158   6.645 -0.6739 -0.0924  0.5179
  391MOL  Cl10547685   7.621   2.104   6.586  0.0929 -0.0331  0.3161
  391MOL  Cl10647686   7.895   2.095   6.524  0.5820 -0.0146 -0.0803
  391MOL   C10747687   7.775   2.316   6.656 -0.8605 -0.0408 -0.0462
  391MOL   H10847688   7.700   2.351   6.727 -0.9740 -0.8745  0.2616
  391MOL   H10947689   7.876   2.336   6.691 -0.7895  1.1669 -0.9189
  391MOL   C11047690   7.758   2.410   6.535  0.4571 -0.0281  0.7091
  391MOL  Cl11147691   7.607   2.384   6.442 -0.2000 -0.1008  0.2230
  391MOL  Cl11247692   7.892   2.375   6.414 -0.0439  0.1637 -0.0468
  391MOL   C11347693   7.762   2.558   6.569  0.2598 -0.6533 -0.3330
  391MOL   H11447694   7.780   2.612   6.476 -2.7946  1.2314  0.1274
  391MOL   H11547695   7.660   2.587   6.593  0.0568 -0.3860 -1.4987
  391MOL   C11647696   7.874   2.617   6.666 -0.2155 -0.2972  0.2243
  391MOL  Cl11747697   7.857   2.558   6.830 -0.0455 -0.0214 -0.4305
  391MOL  Cl11847698   7.852   2.798   6.674  0.4838 -0.3177  0.4692
  391MOL   C11947699   8.021   2.594   6.611 -0.6116  0.3533  0.2217
  391MOL   H12047700   8.099   2.656   6.655  0.1873  1.0090 -2.0367
  391MOL   H12147701   8.057   2.491   6.614  1.5916  1.0646 -1.0113
  391MOL   H12247702   8.023   2.633   6.509 -0.6780  0.4407  0.2541
  392MOL     C147703   6.490   6.617   7.855  0.1837 -0.0288 -0.2250
  392MOL    Cl247704   6.330   6.661   7.905  0.5949  0.4121  0.1660
  392MOL    Cl347705   6.587   6.764   7.827  0.1840 -0.1189 -0.4834
  392MOL     C447706   6.553   6.526   7.961  0.1023  0.0603  0.6806
  392MOL     H547707   6.583   6.581   8.051 -1.1221  0.7806  0.6654
  392MOL     H647708   6.473   6.459   7.993 -0.2950 -1.7705 -3.8539
  392MOL     H747709   6.481   6.564   7.760 -2.1543 -0.4716  0.2093
  392MOL     C847710   6.663   6.431   7.920 -0.1776  0.0539 -0.1619
  392MOL    Cl947711   6.601   6.338   7.791 -0.0067 -0.0154  0.2561
  392MOL   Cl1047712   6.687   6.328   8.060  0.0098  0.0216 -0.4845
  392MOL    C1147713   6.799   6.502   7.897 -0.6238  0.8453 -0.1032
  392MOL    H1247714   6.789   6.593   7.838  0.0477  1.1178  0.1957
  392MOL    H1347715   6.841   6.546   7.988  0.2688  0.1524 -0.1773
  392MOL    C1447716   6.915   6.425   7.829 -0.4778 -0.1371  0.3796
  392MOL   Cl1547717   7.061   6.526   7.853 -0.3378 -0.3178  0.0157
  392MOL   Cl1647718   6.882   6.421   7.655 -0.0345  0.2636 -0.1896
  392MOL    C1747719   6.948   6.280   7.885 -0.1886 -0.0102 -0.1551
  392MOL    H1847720   6.948   6.288   7.994  0.7039 -0.9150 -0.0901
  392MOL    H1947721   6.863   6.214   7.865 -0.1926 -1.0062  2.8447
  392MOL    C2047722   7.065   6.193   7.832 -0.4599 -0.0231 -0.2847
  392MOL   Cl2147723   7.052   6.177   7.652 -0.1081  0.1912  0.1068
  392MOL   Cl2247724   7.056   6.031   7.895  0.1992 -0.1421  0.0380
  392MOL    C2347725   7.211   6.254   7.850  0.3735  0.1578 -0.2763
  392MOL    H2447726   7.281   6.189   7.797 -1.2980 -1.0543 -1.0793
  392MOL    H2547727   7.212   6.346   7.792  0.7289 -0.5109 -1.3481
  392MOL    C2647728   7.271   6.271   7.986  0.6780 -0.0267  0.1550
  392MOL   Cl2747729   7.323   6.110   8.041  0.1707  0.4263 -0.0046
  392MOL   Cl2847730   7.159   6.337   8.116  0.1112 -0.0109 -0.2455
  392MOL    C2947731   7.390   6.371   7.998  0.4922 -0.7010 -0.0850
  392MOL    H3047732   7.348   6.472   7.997  0.1627 -0.7845  2.1822
  392MOL    H3147733   7.428   6.361   8.100 -0.1627 -1.4521  0.0947
  392MOL    C3247734   7.520   6.368   7.908  0.4702  0.4492  0.0379
  392MOL   Cl3347735   7.472   6.352   7.740 -0.0181  0.1113 -0.0930
  392MOL   Cl3447736   7.610   6.221   7.956 -0.1340  0.1609 -0.2175
  392MOL    C3547737   7.605   6.486   7.918  0.4115  0.1011  0.2408
  392MOL    H3647738   7.670   6.477   8.005 -1.8256 -0.8140  1.8310
  392MOL    H3747739   7.678   6.478   7.837  0.4523  0.9506  0.1860
  392MOL    C3847740   7.544   6.629   7.913 -0.3564  0.2773 -0.5106
  392MOL   Cl3947741   7.499   6.665   8.082  0.1752  0.2204 -0.2945
  392MOL   Cl4047742   7.394   6.646   7.804  0.1049  0.0820 -0.2320
  392MOL    C4147743   7.660   6.721   7.868  0.6462 -0.1999  0.2507
  392MOL    H4247744   7.749   6.674   7.907  0.2165 -0.3735  1.0263
  392MOL    H4347745   7.672   6.709   7.760 -0.4641 -0.3245  0.1359
  392MOL    C4447746   7.659   6.872   7.901 -0.1891  0.2078  0.6243
  392MOL   Cl4547747   7.736   6.907   8.062  0.2734  0.2004  0.0151
  392MOL   Cl4647748   7.496   6.940   7.911  0.0869 -0.1048 -0.1639
  392MOL    C4747749   7.745   6.945   7.795 -0.8340 -0.6325  0.5612
  392MOL    H4847750   7.801   7.026   7.841 -0.1457 -1.4968  1.2700
  392MOL    H4947751   7.828   6.879   7.767  1.1859  1.3091  1.7866
  392MOL    C5047752   7.683   7.024   7.673 -0.1859 -0.4590 -0.1139
  392MOL   Cl5147753   7.590   7.170   7.742 -0.1298 -0.4253 -0.0066
  392MOL   Cl5247754   7.563   6.916   7.612  0.2111 -0.1395  0.3174
  392MOL    C5347755   7.774   7.065   7.548 -0.1959 -0.0520  0.4682
  392MOL    H5447756   7.782   6.990   7.470 -2.3282  1.5605 -1.3590
  392MOL    H5547757   7.704   7.130   7.496 -2.4455 -2.5665  0.2515
  392MOL    C5647758   7.914   7.141   7.572  0.3603 -0.1854  0.6436
  392MOL   Cl5747759   8.029   7.035   7.651 -0.4106  0.5334 -0.3883
  392MOL   Cl5847760   7.902   7.282   7.689  0.5306 -0.0515 -0.3495
  392MOL    C5947761   7.988   7.185   7.437 -0.0610  0.4446 -0.3793
  392MOL    H6047762   8.073   7.239   7.479  1.8964 -1.1457 -2.1651
  392MOL    H6147763   8.029   7.106   7.375 -0.4139  0.1568 -0.2436
  392MOL    C6247764   7.909   7.270   7.323 -0.0010 -0.1065 -0.0722
  392MOL   Cl6347765   7.799   7.383   7.405 -0.0227 -0.3108  0.1458
  392MOL   Cl6447766   7.799   7.166   7.222  0.0620 -0.0432 -0.4057
  392MOL    C6547767   7.998   7.342   7.218  0.0469 -0.0105 -0.5145
  392MOL    H6647768   8.033   7.263   7.151 -1.1121 -0.5489 -0.4941
  392MOL    H6747769   7.935   7.406   7.157 -1.1331 -2.0019 -1.4281
  392MOL    C6847770   8.128   7.422   7.271  0.4002 -0.1277 -0.4799
  392MOL   Cl6947771   8.167   7.513   7.124 -0.1293  0.1108 -0.0413
  392MOL   Cl7047772   8.250   7.295   7.293 -0.2511  0.3792 -0.5417
  392MOL    C7147773   8.112   7.528   7.384 -0.8795  0.2180  0.6653
  392MOL    H7247774   8.056   7.611   7.341  0.3956  1.6387  1.6466
  392MOL    H7347775   8.050   7.492   7.466 -0.1225  0.1441  1.2200
  392MOL    C7447776   8.233   7.584   7.461 -0.2213 -0.4599 -0.2849
  392MOL   Cl7547777   8.354   7.652   7.345  0.5007  0.0358  0.1675
  392MOL   Cl7647778   8.305   7.442   7.553 -0.0906  0.1581  0.1553
  392MOL    C7747779   8.194   7.688   7.565  0.0343  0.0735 -0.4151
  392MOL    H7847780   8.169   7.632   7.656 -0.1175 -1.2983 -1.2908
  392MOL    H7947781   8.287   7.736   7.596  1.3184 -0.4935 -3.2874
  392MOL    C8047782   8.083   7.802   7.529 -0.8705  0.4340  0.5457
  392MOL   Cl8147783   7.920   7.724   7.523  0.1360  0.1326  0.0193
  392MOL   Cl8247784   8.100   7.882   7.370 -0.3159  0.0617  0.0980
  392MOL    C8347785   8.069   7.916   7.642 -0.5953  0.2612  0.2055
  392MOL    H8447786   8.012   7.999   7.602 -0.1166  0.6506  0.3283
  392MOL    H8547787   8.007   7.882   7.725  2.7222 -1.2021  2.1944
  392MOL    C8647788   8.207   7.970   7.695 -0.5717  0.0907  0.2858
  392MOL   Cl8747789   8.319   8.016   7.561  0.0633 -0.1964 -0.0434
  392MOL   Cl8847790   8.273   7.851   7.806  0.6230 -0.3583  0.1681
  392MOL    C8947791   8.194   8.093   7.790  0.5397 -0.4031  0.2358
  392MOL    H9047792   8.153   8.051   7.881 -0.6265  1.0148  0.4004
  392MOL    H9147793   8.295   8.129   7.807  0.2601  2.6507 -3.6128
  392MOL    C9247794   8.106   8.220   7.761 -0.3412  0.5844 -0.9286
  392MOL   Cl9347795   7.927   8.195   7.796  0.2617  0.2890 -0.2881
  392MOL   Cl9447796   8.117   8.259   7.587  0.0627  0.0229  0.1351
  392MOL    C9547797   8.154   8.345   7.839  0.2227 -0.6628  0.4225
  392MOL    H9647798   8.252   8.359   7.792  1.0077 -0.1005  2.1733
  392MOL    H9747799   8.092   8.429   7.807 -0.5913 -0.7450  1.7818
  392MOL    C9847800   8.168   8.358   7.993  0.1866 -0.1234 -0.0264
  392MOL   Cl9947801   8.292   8.229   8.057  0.2575 -0.3796 -0.2428
  392MOL  Cl10047802   8.006   8.329   8.063  0.4260 -0.0811 -0.4264
  392MOL   C10147803   8.220   8.496   8.047 -1.1483  0.0378 -0.0282
  392MOL   H10247804   8.134   8.560   8.065 -1.0416  0.0593  0.4037
  392MOL   H10347805   8.238   8.484   8.154 -1.1205 -0.9961 -0.1463
  392MOL   C10447806   8.337   8.577   7.980  0.2134  0.2460  0.3411
  392MOL  Cl10547807   8.477   8.472   7.963  0.0127 -0.1019  0.0557
  392MOL  Cl10647808   8.374   8.710   8.085 -0.0743 -0.2330  0.1037
  392MOL   C10747809   8.301   8.631   7.844  0.3162 -0.9301  0.4742
  392MOL   H10847810   8.247   8.559   7.782  0.2774  1.4111 -2.3100
  392MOL   H10947811   8.237   8.717   7.863  1.0307 -0.3315  0.1807
  392MOL   C11047812   8.411   8.686   7.742  0.1955 -0.0963  0.6330
  392MOL  Cl11147813   8.331   8.807   7.644 -0.1349  0.3462  0.2808
  392MOL  Cl11247814   8.460   8.547   7.639 -0.3766  0.2537  0.1894
  392MOL   C11347815   8.532   8.760   7.811 -0.5905 -0.0914 -0.2525
  392MOL   H11447816   8.505   8.855   7.856 -1.0138 -0.2394 -0.1912
  392MOL   H11547817   8.577   8.701   7.891  0.6413  1.5377  0.2932
  392MOL   C11647818   8.662   8.787   7.734 -0.5873 -0.0916 -0.0256
  392MOL  Cl11747819   8.634   8.881   7.583 -0.4104 -0.2693 -0.0361
  392MOL  Cl11847820   8.758   8.640   7.705 -0.1424  0.1686 -0.0109
  392MOL   C11947821   8.760   8.878   7.814  0.4557 -0.1219  0.3964
  392MOL   H12047822   8.786   8.840   7.913  1.1918 -0.1322  0.2016
  392MOL   H12147823   8.854   8.906   7.766 -0.3635  3.0133  0.5635
  392MOL   H12247824   8.712   8.974   7.832  4.3670  1.8670  0.7157
  393MOL     C147825   5.330   0.150   8.180  0.0972 -0.4217  0.1701
  393MOL    Cl247826   5.166   0.105   8.240  0.1424 -0.2285 -0.1885
  393MOL    Cl347827   5.368   0.321   8.230 -0.5336  0.1082 -0.0667
  393MOL     C447828   5.443   0.053   8.236  0.5600  1.0420  0.2976
  393MOL     H547829   5.439   0.078   8.342  1.6087 -2.5464  1.2405
  393MOL     H647830   5.400   9.136   8.218  1.9643  0.5401 -0.4620
  393MOL     H747831   5.342   0.147   8.072  1.4145  2.8881  0.1487
  393MOL     C847832   5.579   0.046   8.159  0.0012 -0.5212 -0.1612
  393MOL    Cl947833   5.638   0.208   8.116 -0.0714 -0.3622  0.0759
  393MOL   Cl1047834   5.557   9.141   8.003  0.0712  0.1439 -0.0915
  393MOL    C1147835   5.702   9.154   8.222 -0.7039 -0.5820  0.1532
  393MOL    H1247836   5.683   9.047   8.213  1.5973 -0.9790 -0.2233
  393MOL    H1347837   5.786   9.165   8.154 -0.1827  1.5648  1.1119
  393MOL    C1447838   5.740   0.000   8.363 -0.5881  0.5904 -0.9453
  393MOL   Cl1547839   5.616   9.123   8.465  0.0469 -0.0140  0.0346
  393MOL   Cl1647840   5.761   0.179   8.392  0.0916 -0.1742  0.1774
  393MOL    C1747841   5.876   9.119   8.409 -1.2077 -0.5962  0.2302
  393MOL    H1847842   5.965   9.170   8.374 -0.2344 -1.2978  1.5951
  393MOL    H1947843   5.883   9.123   8.518  0.1405 -1.1490  0.1713
  393MOL    C2047844   5.913   8.964   8.384  0.6841  0.1265 -0.1371
  393MOL   Cl2147845   5.914   8.934   8.210 -0.2695  0.2873  0.1582
  393MOL   Cl2247846   5.791   8.859   8.454  0.2208  0.8300 -0.1009
  393MOL    C2347847   6.062   8.939   8.431  0.8132  0.1470  0.0624
  393MOL    H2447848   6.078   8.834   8.407  0.1378  0.7193 -3.1768
  393MOL    H2547849   6.124   8.988   8.356 -0.4760  0.4911 -0.7929
  393MOL    C2647850   6.117   8.973   8.572 -0.2588  0.0322 -0.0104
  393MOL   Cl2747851   5.999   8.904   8.683 -0.3268  0.5065  0.1223
  393MOL   Cl2847852   6.132   9.145   8.589  0.6309 -0.1142 -0.1697
  393MOL    C2947853   6.269   8.916   8.589 -0.3094 -0.3878 -0.0577
  393MOL    H3047854   6.253   8.822   8.537 -1.0229 -1.2349  1.6355
  393MOL    H3147855   6.326   8.977   8.520 -1.3351  3.0633  2.0376
  393MOL    C3247856   6.350   8.909   8.721 -0.3532 -0.3097  0.2109
  393MOL   Cl3347857   6.269   8.789   8.821 -0.1090  0.2085  0.3389
  393MOL   Cl3447858   6.353   9.074   8.796 -0.1143 -0.0657 -0.5210
  393MOL    C3547859   6.502   8.880   8.711  0.3569  0.5812  0.3531
  393MOL    H3647860   6.553   8.965   8.665  1.3704  0.6665  1.6020
  393MOL    H3747861   6.537   8.872   8.814  0.5551  0.2930  0.2627
  393MOL    C3847862   6.554   8.755   8.631 -0.5620  0.0582 -0.5745
  393MOL   Cl3947863   6.533   8.782   8.455  0.2237 -0.2416 -0.7167
  393MOL   Cl4047864   6.484   8.598   8.670  0.0814  0.0843  0.3505
  393MOL    C4147865   6.709   8.733   8.656 -0.7221 -0.0668 -0.3372
  393MOL    H4247866   6.707   8.692   8.757 -1.3879  2.5673  0.7612
  393MOL    H4347867   6.737   8.654   8.586 -3.2561  0.9185 -2.5777
  393MOL    C4447868   6.824   8.843   8.654  0.1300  0.2298  0.3089
  393MOL   Cl4547869   6.801   8.940   8.796  0.0724  0.0534 -0.1750
  393MOL   Cl4647870   6.806   8.942   8.508  0.3271 -0.1378  0.1160
  393MOL    C4747871   6.969   8.789   8.654 -0.3781  0.3201  0.0742
  393MOL    H4847872   7.023   8.883   8.644  1.5393 -0.9327 -1.6714
  393MOL    H4947873   6.992   8.761   8.757  0.0974 -2.1900 -0.6835
  393MOL    C5047874   7.024   8.679   8.561 -0.6638 -0.1296 -0.0997
  393MOL   Cl5147875   6.973   8.696   8.388 -0.4069  0.1321  0.4346
  393MOL   Cl5247876   6.966   8.519   8.629 -0.1649  0.5163  0.3032
  393MOL    C5347877   7.183   8.671   8.577 -0.5883 -0.5112  0.3711
  393MOL    H5447878   7.194   8.637   8.680  1.6883  2.0790  1.0494
  393MOL    H5547879   7.220   8.588   8.517  0.8978  0.5468 -0.2108
  393MOL    C5647880   7.275   8.794   8.545 -0.7726 -0.4768  0.7571
  393MOL   Cl5747881   7.277   8.892   8.692  0.1384 -0.1499  0.1383
  393MOL   Cl5847882   7.220   8.903   8.416  0.1106 -0.3597  0.0951
  393MOL    C5947883   7.420   8.744   8.517 -0.7029  0.3890 -0.2650
  393MOL    H6047884   7.437   8.655   8.578 -0.8483  0.6652  0.1726
  393MOL    H6147885   7.406   8.703   8.417 -1.7986  1.2932 -0.4847
  393MOL    C6247886   7.545   8.842   8.508  0.2959  0.2220 -0.4318
  393MOL   Cl6347887   7.676   8.736   8.459  0.4486  0.0598 -0.2582
  393MOL   Cl6447888   7.583   8.913   8.670 -0.2841 -0.1435  0.2319
  393MOL    C6547889   7.538   8.952   8.395  0.6987 -0.0989  0.4123
  393MOL    H6647890   7.482   8.923   8.306 -1.8218  0.1468  1.8830
  393MOL    H6747891   7.464   9.018   8.439 -1.3354 -1.9175 -0.2057
  393MOL    C6847892   7.661   9.022   8.348  0.1921  0.1354  0.8851
  393MOL   Cl6947893   7.588   9.160   8.268 -0.1809  0.4168 -0.2720
  393MOL   Cl7047894   7.740   8.931   8.209 -0.2959 -0.0848  0.0248
  393MOL    C7147895   7.757   9.077   8.454  0.6864 -0.2318 -0.4361
  393MOL    H7247896   7.696   9.133   8.525  0.8560  0.2843 -0.6952
  393MOL    H7347897   7.787   8.988   8.510 -0.4319  0.2753  1.0061
  393MOL    C7447898   7.891   9.141   8.423 -0.5209  0.3524 -0.2146
  393MOL   Cl7547899   8.000   9.027   8.346 -0.2876 -0.3962 -0.1726
  393MOL   Cl7647900   7.960   0.007   8.585 -0.1732 -0.1717 -0.1209
  393MOL    C7747901   7.877   0.092   8.332  0.1027 -0.0267  0.0433
  393MOL    H7847902   7.851   0.053   8.233  0.2061 -0.4002  0.1602
  393MOL    H7947903   7.787   0.138   8.374  1.0273  1.0617  0.8324
  393MOL    C8047904   7.975   0.205   8.325  0.8508 -0.3004 -0.0244
  393MOL   Cl8147905   8.138   0.149   8.348  0.1339 -0.0136  0.0969
  393MOL   Cl8247906   7.952   0.316   8.468 -0.4939  0.1493  0.0209
  393MOL    C8347907   7.955   0.287   8.193 -0.0422 -0.4709 -0.7036
  393MOL    H8447908   8.030   0.366   8.187 -0.2764 -0.1386  0.6230
  393MOL    H8547909   7.971   0.222   8.107  5.1727  1.5424 -1.4368
  393MOL    C8647910   7.817   0.355   8.154 -0.4660  0.3801 -0.2025
  393MOL   Cl8747911   7.698   0.233   8.111  0.2120 -0.1970 -0.0973
  393MOL   Cl8847912   7.849   0.441   8.002 -0.2033 -0.2777 -0.2997
  393MOL    C8947913   7.764   0.470   8.248  0.3921 -0.0474  0.3312
  393MOL    H9047914   7.832   0.497   8.328  0.5982  0.6786 -0.0803
  393MOL    H9147915   7.773   0.559   8.186  0.1648  0.4502  1.0121
  393MOL    C9247916   7.627   0.470   8.320  0.7803 -0.3619  0.5276
  393MOL   Cl9347917   7.611   0.327   8.416  0.4461  0.3227 -0.2032
  393MOL   Cl9447918   7.496   0.463   8.195 -0.0192  0.4955  0.2160
  393MOL    C9547919   7.594   0.592   8.411 -0.7677  0.1394 -0.0652
  393MOL    H9647920   7.485   0.603   8.409 -0.5413  2.7943  0.0064
  393MOL    H9747921   7.619   0.569   8.515  0.3053 -1.6681 -0.7098
  393MOL    C9847922   7.650   0.737   8.383  0.5008 -0.6145  0.4123
  393MOL   Cl9947923   7.674   0.780   8.214 -0.2562 -0.0587  0.1014
  393MOL  Cl10047924   7.810   0.740   8.447 -0.0029 -0.3181 -0.2073
  393MOL   C10147925   7.559   0.849   8.441  0.2574  0.3736  0.4640
  393MOL   H10247926   7.613   0.934   8.399 -0.9338  1.3698  0.9208
  393MOL   H10347927   7.457   0.833   8.407  0.3651 -1.9334  1.1631
  393MOL   C10447928   7.534   0.870   8.587  0.1527 -0.3856 -0.1761
  393MOL  Cl10547929   7.692   0.889   8.672 -0.0633 -0.2046 -0.5638
  393MOL  Cl10647930   7.460   0.737   8.674  0.0662 -0.2284  0.0465
  393MOL   C10747931   7.452   0.995   8.621  1.0995  0.1444  0.7915
  393MOL   H10847932   7.450   1.003   8.729  0.1154 -0.2336  0.8116
  393MOL   H10947933   7.524   1.068   8.584  0.6134  1.3408  2.1541
  393MOL   C11047934   7.309   1.024   8.564 -0.5078  0.4601  0.1010
  393MOL  Cl11147935   7.205   0.883   8.570  0.2201  0.0049  0.0178
  393MOL  Cl11247936   7.314   1.073   8.389 -0.0010 -0.0298 -0.3230
  393MOL   C11347937   7.235   1.134   8.641 -0.4279 -0.0976 -0.3780
  393MOL   H11447938   7.140   1.147   8.589 -0.8450 -0.1980  0.3495
  393MOL   H11547939   7.205   1.086   8.734 -2.5568  0.6677 -0.6461
  393MOL   C11647940   7.304   1.264   8.692  0.1155  0.1115 -0.0692
  393MOL  Cl11747941   7.433   1.314   8.575  0.1400  0.0793  0.5675
  393MOL  Cl11847942   7.380   1.224   8.849  0.1199 -0.0935 -0.3601
  393MOL   C11947943   7.216   1.381   8.702 -0.8502 -0.3860  0.6736
  393MOL   H12047944   7.125   1.376   8.763 -0.9305  0.5052  0.6331
  393MOL   H12147945   7.275   1.463   8.742  0.5879 -0.5095 -1.1019
  393MOL   H12247946   7.180   1.411   8.603 -1.1220 -0.9338  0.6035
  394MOL     C147947   4.907   5.424   0.584 -0.2409  0.5881 -0.0807
  394MOL    Cl247948   4.912   5.441   0.757 -0.3139  0.0661 -0.0498
  394MOL    Cl347949   4.864   5.581   0.510 -0.1977  0.2310  0.1644
  394MOL     C447950   5.039   5.357   0.533 -0.3168 -0.0395 -0.2533
  394MOL     H547951   5.125   5.423   0.531 -0.0254 -0.4485 -1.0662
  394MOL     H647952   5.083   5.299   0.615 -0.9016 -0.5259 -0.2780
  394MOL     H747953   4.825   5.358   0.556 -0.0916  0.4887 -0.2822
  394MOL     C847954   5.031   5.274   0.401 -0.0143  0.9739  0.7088
  394MOL    Cl947955   4.918   5.357   0.285  0.1279  0.1842  0.1605
  394MOL   Cl1047956   4.959   5.112   0.434  0.1202  0.1995 -0.2163
  394MOL    C1147957   5.169   5.265   0.337 -0.5128  0.2468  0.3801
  394MOL    H1247958   5.191   5.355   0.281 -0.4370  0.1974  0.3292
  394MOL    H1347959   5.244   5.259   0.416  1.2640 -0.0946 -1.2828
  394MOL    C1447960   5.195   5.145   0.237 -0.4089  0.6235 -0.6074
  394MOL   Cl1547961   5.243   4.997   0.326 -0.2488 -0.1390  0.2810
  394MOL   Cl1647962   5.343   5.197   0.143  0.3565  0.4279 -0.0327
  394MOL    C1747963   5.081   5.112   0.133 -0.2100  0.1438  0.0164
  394MOL    H1847964   4.995   5.077   0.191  0.2568  0.3654  0.8578
  394MOL    H1947965   5.040   5.211   0.109 -0.8922  0.2374  1.4833
  394MOL    C2047966   5.108   5.032   0.006  0.1066  0.2212 -0.1063
  394MOL   Cl2147967   5.203   4.884   0.033 -0.2498 -0.1999  0.0447
  394MOL   Cl2247968   5.209   5.123   9.053  0.1539 -0.0357 -0.1506
  394MOL    C2347969   4.975   4.987   9.121  0.0547 -0.2859 -0.1298
  394MOL    H2447970   5.008   4.948   9.025  0.5612 -0.5775  0.1627
  394MOL    H2547971   4.929   4.900   9.168 -1.6501  0.0938 -1.0289
  394MOL    C2647972   4.856   5.085   9.091  0.3966  0.3172 -0.4721
  394MOL   Cl2747973   4.908   5.250   9.038 -0.4156  0.2032  0.4540
  394MOL   Cl2847974   4.753   5.114   0.057  0.0523 -0.5122 -0.7800
  394MOL    C2947975   4.772   5.034   8.966 -0.0861  0.1571  0.0569
  394MOL    H3047976   4.826   5.063   8.876  1.0339 -1.5338  0.1830
  394MOL    H3147977   4.762   4.926   8.970 -0.1826  0.2179  2.1059
  394MOL    C3247978   4.634   5.097   8.939 -0.2233 -0.4913  0.0542
  394MOL   Cl3347979   4.514   5.034   9.066 -0.0748  0.1184  0.4358
  394MOL   Cl3447980   4.592   5.012   8.781  0.2151  0.0873  0.3734
  394MOL    C3547981   4.619   5.255   8.918 -0.7562  0.3026 -0.3693
  394MOL    H3647982   4.651   5.299   9.013  1.7043  1.2251 -1.5741
  394MOL    H3747983   4.695   5.285   8.846 -0.1431  0.7655  0.4506
  394MOL    C3847984   4.486   5.327   8.879  0.2017 -0.1834  0.5820
  394MOL   Cl3947985   4.544   5.485   8.804  0.2046  0.1504 -0.0582
  394MOL   Cl4047986   4.393   5.364   9.028  0.1205  0.2925  0.0593
  394MOL    C4147987   4.390   5.247   8.787  0.0409  0.2703  0.4033
  394MOL    H4247988   4.439   5.229   8.692 -1.0841 -0.6734 -0.0067
  394MOL    H4347989   4.369   5.150   8.832 -1.8623  0.7419  0.5731
  394MOL    C4447990   4.238   5.282   8.758  0.3075  0.1998 -0.7245
  394MOL   Cl4547991   4.140   5.235   8.900 -0.1066  0.1125 -0.4027
  394MOL   Cl4647992   4.176   5.189   8.615  0.6218 -0.0495 -0.3125
  394MOL    C4747993   4.226   5.440   8.733 -0.8271  0.1714 -0.3334
  394MOL    H4847994   4.237   5.490   8.829 -1.3902 -0.5770  0.1243
  394MOL    H4947995   4.309   5.473   8.671 -1.1374 -0.4171 -1.0710
  394MOL    C5047996   4.103   5.507   8.661 -0.2139 -0.1164  0.1951
  394MOL   Cl5147997   3.941   5.438   8.702 -0.5668 -0.4028 -0.1178
  394MOL   Cl5247998   4.109   5.490   8.479 -0.2581 -0.4742  0.0306
  394MOL    C5347999   4.085   5.654   8.701 -0.1266 -0.1877  0.1567
  394MOL    H5448000   3.993   5.690   8.657  1.5983  2.0077 -1.7496
  394MOL    H5548001   4.065   5.655   8.808 -3.3479 -0.9916 -0.4052
  394MOL    C5648002   4.188   5.771   8.670  0.2077 -0.3591 -0.4349
  394MOL   Cl5748003   4.146   5.822   8.514  0.5888  0.3754  0.0221
  394MOL   Cl5848004   4.363   5.721   8.659  0.2363  0.0330 -0.3759
  394MOL    C5948005   4.164   5.900   8.750  0.4347 -0.2895  0.4005
  394MOL    H6048006   4.225   5.975   8.700  2.2032 -1.2218  1.0845
  394MOL    H6148007   4.062   5.933   8.734  1.1748  1.9324  0.0578
  394MOL    C6248008   4.191   5.917   8.899 -0.2734  0.1769 -0.2193
  394MOL   Cl6348009   4.363   5.870   8.920 -0.1211  0.5657 -0.2286
  394MOL   Cl6448010   4.102   5.803   9.007 -0.2196  0.0537  0.1463
  394MOL    C6548011   4.183   6.060   8.957  0.2424  0.0956  0.2347
  394MOL    H6648012   4.217   6.059   9.060  0.2609  0.5582  0.2382
  394MOL    H6748013   4.268   6.112   8.912 -0.5545  1.3775  0.1749
  394MOL    C6848014   4.058   6.142   8.929  0.6227  0.2294  0.6340
  394MOL   Cl6948015   3.906   6.062   8.983 -0.0404  0.0108  0.7838
  394MOL   Cl7048016   4.040   6.185   8.755  0.2978 -0.0458  0.1283
  394MOL    C7148017   4.063   6.280   9.010 -0.2815 -0.0754  0.3146
  394MOL    H7248018   4.103   6.253   9.108 -1.2364 -3.4386 -0.1536
  394MOL    H7348019   4.142   6.334   8.957 -1.2643  0.7825 -0.3003
  394MOL    C7448020   3.943   6.372   9.032  0.2188  0.0511  0.7487
  394MOL   Cl7548021   4.020   6.521   9.081  0.0515  0.1767 -0.5169
  394MOL   Cl7648022   3.845   6.312   9.174  0.1157 -0.0015  0.0698
  394MOL    C7748023   3.854   6.403   8.909 -0.1911  0.3963  0.3983
  394MOL    H7848024   3.901   6.469   8.836 -1.6109 -0.3363 -1.2199
  394MOL    H7948025   3.837   6.307   8.861  0.3361  0.8164 -0.6581
  394MOL    C8048026   3.697   6.439   8.923  0.1640  0.6225  0.0663
  394MOL   Cl8148027   3.663   6.569   9.044  0.4039 -0.1691 -0.4308
  394MOL   Cl8248028   3.593   6.299   8.969  0.1123  0.4671  0.1434
  394MOL    C8348029   3.645   6.479   8.785  0.3881  0.3827 -0.1111
  394MOL    H8448030   3.618   6.396   8.719  2.2246 -0.6773  0.4308
  394MOL    H8548031   3.541   6.512   8.796  0.2391  0.7751 -2.5225
  394MOL    C8648032   3.718   6.581   8.694 -1.2655 -0.9760  0.0894
  394MOL   Cl8748033   3.835   6.480   8.601 -0.1837  0.1808 -0.0048
  394MOL   Cl8848034   3.812   6.696   8.794  0.1629  0.6276  0.3094
  394MOL    C8948035   3.630   6.662   8.597  0.2263 -0.3433 -0.4304
  394MOL    H9048036   3.602   6.583   8.528  1.2916 -0.2754 -0.9506
  394MOL    H9148037   3.536   6.689   8.646  0.8146 -0.4711  0.7830
  394MOL    C9248038   3.684   6.796   8.520 -0.4024 -0.0507 -0.5906
  394MOL   Cl9348039   3.849   6.775   8.457  0.2129 -0.1251 -0.2593
  394MOL   Cl9448040   3.682   6.929   8.627  0.2909 -0.3022 -0.0989
  394MOL    C9548041   3.592   6.846   8.407  0.7071  0.0109 -0.0376
  394MOL    H9648042   3.505   6.891   8.454 -0.9744 -3.2723  0.1320
  394MOL    H9748043   3.649   6.918   8.348 -0.1610  0.6217 -0.1402
  394MOL    C9848044   3.522   6.755   8.304  0.3906  0.9243  0.3736
  394MOL   Cl9948045   3.385   6.676   8.373  0.1077  0.3238 -0.5109
  394MOL  Cl10048046   3.644   6.639   8.250  0.4920  0.2749 -0.0369
  394MOL   C10148047   3.482   6.849   8.181 -0.6296 -0.4553 -0.3041
  394MOL   H10248048   3.399   6.910   8.215 -0.0663 -0.3519  0.8939
  394MOL   H10348049   3.563   6.919   8.159  0.2341 -0.1574  3.4912
  394MOL   C10448050   3.436   6.781   8.042 -0.0985  0.2789  0.5910
  394MOL  Cl10548051   3.318   6.644   8.074  0.0077 -0.1308  0.4671
  394MOL  Cl10648052   3.575   6.723   7.949 -0.2221 -0.2455 -0.4140
  394MOL   C10748053   3.352   6.873   7.951 -0.4057 -0.3452 -0.0536
  394MOL   H10848054   3.342   6.812   7.861  0.9586  0.5495 -0.8376
  394MOL   H10948055   3.254   6.878   7.999 -0.6548  1.5872 -0.7024
  394MOL   C11048056   3.398   7.018   7.905  0.3071  1.0631 -0.3783
  394MOL  Cl11148057   3.557   7.018   7.816 -0.2392  0.1338  0.1203
  394MOL  Cl11248058   3.408   7.120   8.054  0.1860  0.3743 -0.5944
  394MOL   C11348059   3.286   7.067   7.818 -0.7433  1.4319 -0.0478
  394MOL   H11448060   3.281   6.998   7.734 -0.3330  0.5164  0.6709
  394MOL   H11548061   3.191   7.052   7.869 -1.1427 -1.5343 -1.5300
  394MOL   C11648062   3.275   7.213   7.774  0.4394 -0.2982  0.2015
  394MOL  Cl11748063   3.223   7.327   7.908 -0.0054 -0.1289  0.3097
  394MOL  Cl11848064   3.142   7.222   7.654  0.0765  0.0784 -0.1453
  394MOL   C11948065   3.401   7.275   7.708 -0.3882  0.4393  0.5457
  394MOL   H12048066   3.380   7.375   7.671 -0.4188 -0.0340 -0.7650
  394MOL   H12148067   3.477   7.288   7.786 -0.1809 -0.3603  0.4846
  394MOL   H12248068   3.441   7.211   7.629 -3.7318 -1.3542  0.2122
  395MOL     C148069   3.147   7.912   1.420 -0.2163 -0.3357  0.3695
  395MOL    Cl248070   3.258   7.947   1.550  0.1427 -0.2343 -0.5054
  395MOL    Cl348071   2.978   7.960   1.463  0.3510 -0.1242 -0.1638
  395MOL     C448072   3.184   8.002   1.294  0.5286 -0.2202 -0.3348
  395MOL     H548073   3.100   8.022   1.226  1.9655  0.3742 -1.9974
  395MOL     H648074   3.219   8.099   1.330 -1.4058  0.0500  0.8921
  395MOL     H748075   3.135   7.807   1.393  4.6638 -0.6023 -1.2758
  395MOL     C848076   3.293   7.939   1.197  0.0016 -0.7150 -0.4827
  395MOL    Cl948077   3.227   7.779   1.147  0.1478 -0.2683  0.1169
  395MOL   Cl1048078   3.437   7.911   1.292  0.1166  0.2942 -0.0027
  395MOL    C1148079   3.331   8.030   1.075  0.2101 -0.0206 -0.3379
  395MOL    H1248080   3.372   8.121   1.119  2.6286 -0.2654 -1.9721
  395MOL    H1348081   3.402   7.972   1.015  0.6814 -2.4874  2.4660
  395MOL    C1448082   3.229   8.093   0.972 -0.2989  1.2014  0.2209
  395MOL   Cl1548083   3.117   8.203   1.051  0.1939 -0.0383 -0.0196
  395MOL   Cl1648084   3.121   7.969   0.901 -0.0462 -0.2054 -0.2147
  395MOL    C1748085   3.284   8.182   0.860  0.2406 -0.4580  0.1195
  395MOL    H1848086   3.205   8.220   0.795 -1.4151 -0.6254  1.9626
  395MOL    H1948087   3.324   8.271   0.908  0.4697  0.0486 -1.0191
  395MOL    C2048088   3.407   8.141   0.770  0.1544  0.1384 -0.2943
  395MOL   Cl2148089   3.388   7.976   0.700 -0.1438 -0.5234 -0.1987
  395MOL   Cl2248090   3.551   8.144   0.879 -0.5069 -0.1506 -0.1990
  395MOL    C2348091   3.451   8.240   0.653  0.4216 -0.2187  0.5725
  395MOL    H2448092   3.515   8.321   0.690  0.0714  0.2177  0.2320
  395MOL    H2548093   3.510   8.187   0.578  1.6429  0.2455  1.1810
  395MOL    C2648094   3.343   8.320   0.569  0.1529  0.5029 -0.0087
  395MOL   Cl2748095   3.421   8.427   0.445  0.4882  0.3620  0.1332
  395MOL   Cl2848096   3.260   8.441   0.678 -0.4871 -0.2175 -0.4255
  395MOL    C2948097   3.258   8.217   0.492 -0.2692  0.0191 -0.1401
  395MOL    H3048098   3.315   8.190   0.403  0.8576  0.6917  0.3514
  395MOL    H3148099   3.260   8.125   0.550  2.1566 -1.0782 -1.8328
  395MOL    C3248100   3.109   8.266   0.454 -0.3805  0.4890  0.2013
  395MOL   Cl3348101   3.114   8.423   0.366  0.3808  0.2464 -0.2248
  395MOL   Cl3448102   3.010   8.280   0.601  0.0313 -0.3441 -0.1448
  395MOL    C3548103   3.034   8.171   0.356  0.5441  0.4190 -0.0810
  395MOL    H3648104   2.931   8.206   0.355  0.8831  1.4370 -0.0455
  395MOL    H3748105   3.079   8.175   0.257 -0.7295  0.0370 -0.6827
  395MOL    C3848106   3.030   8.015   0.384  0.0525 -0.3791  0.0768
  395MOL   Cl3948107   3.006   7.976   0.558 -0.3105 -0.0534 -0.1015
  395MOL   Cl4048108   3.186   7.943   0.333  0.2702  0.0676 -0.0342
  395MOL    C4148109   2.903   7.955   0.299  0.6507  0.3757  0.1298
  395MOL    H4248110   2.821   8.026   0.311  2.3608  2.3560  0.5961
  395MOL    H4348111   2.937   7.943   0.196  2.1509  2.2996  0.3628
  395MOL    C4448112   2.837   7.818   0.326  0.2374  0.0065 -1.2240
  395MOL   Cl4548113   2.966   7.695   0.347 -0.2304  0.0173  0.0883
  395MOL   Cl4648114   2.754   7.790   0.168  0.0584  0.0857 -0.2672
  395MOL    C4748115   2.738   7.822   0.442  0.0846 -0.8197 -0.0207
  395MOL    H4848116   2.781   7.786   0.536  2.2292  0.1623 -0.5885
  395MOL    H4948117   2.733   7.928   0.467  1.5395 -0.7368 -0.0315
  395MOL    C5048118   2.590   7.770   0.436  0.3366  0.1930  0.0846
  395MOL   Cl5148119   2.511   7.877   0.320 -0.0657 -0.4919  0.1800
  395MOL   Cl5248120   2.502   7.806   0.586 -0.1337  0.4089  0.4523
  395MOL    C5348121   2.572   7.619   0.402  0.7362 -0.1228  0.0844
  395MOL    H5448122   2.467   7.614   0.373  0.6823  1.8473 -0.1036
  395MOL    H5548123   2.640   7.596   0.320 -0.5358  1.0688 -1.3147
  395MOL    C5648124   2.595   7.506   0.504 -0.1357 -0.6124 -0.5673
  395MOL   Cl5748125   2.598   7.347   0.424 -0.4897  0.0634  0.0430
  395MOL   Cl5848126   2.441   7.506   0.603  0.2729 -0.6787 -0.4591
  395MOL    C5948127   2.724   7.516   0.605 -0.1327 -0.1422 -0.1371
  395MOL    H6048128   2.819   7.520   0.552 -0.3209 -1.9970 -0.6570
  395MOL    H6148129   2.708   7.605   0.665 -0.4361 -1.5298  1.9087
  395MOL    C6248130   2.754   7.413   0.723 -0.6843  0.0059  0.2562
  395MOL   Cl6348131   2.641   7.435   0.862  0.4953 -0.1787  0.1124
  395MOL   Cl6448132   2.914   7.457   0.781 -0.0816  0.3943  0.1748
  395MOL    C6548133   2.748   7.266   0.689 -0.6958 -0.0880  0.0992
  395MOL    H6648134   2.733   7.210   0.782 -0.3762  1.2459  0.9612
  395MOL    H6748135   2.647   7.246   0.653 -0.6985  0.4259 -0.1802
  395MOL    C6848136   2.855   7.197   0.607  0.1128  0.8285  0.6475
  395MOL   Cl6948137   2.983   7.161   0.724  0.1282 -0.1998  0.2202
  395MOL   Cl7048138   2.911   7.285   0.471  0.0839 -0.1818  0.0341
  395MOL    C7148139   2.805   7.058   0.549  0.4335  0.0024  0.0745
  395MOL    H7248140   2.815   6.983   0.628 -0.5804  0.0249  0.2237
  395MOL    H7348141   2.703   7.064   0.511  0.0867 -0.7905  0.8644
  395MOL    C7448142   2.882   6.977   0.438 -0.8713 -0.5777  0.1936
  395MOL   Cl7548143   2.860   7.049   0.278  0.5761  0.6315  0.1061
  395MOL   Cl7648144   2.805   6.814   0.436  0.3318 -0.2467  0.6106
  395MOL    C7748145   3.035   6.960   0.461 -0.2090  0.6193  0.1065
  395MOL    H7848146   3.076   7.061   0.453 -1.9818  1.4594  1.3019
  395MOL    H7948147   3.049   6.948   0.568 -2.6147  1.0414  0.4969
  395MOL    C8048148   3.129   6.857   0.385 -0.1611 -1.2972  0.2770
  395MOL   Cl8148149   3.070   6.818   0.221 -0.1603 -0.5009  0.2487
  395MOL   Cl8248150   3.114   6.702   0.473 -0.5227 -0.0368 -0.2311
  395MOL    C8348151   3.272   6.900   0.373  0.1624 -0.3598  0.0183
  395MOL    H8448152   3.325   6.811   0.340 -0.2782 -0.1730 -1.2223
  395MOL    H8548153   3.285   6.986   0.307 -1.4881  2.1975  2.9008
  395MOL    C8648154   3.364   6.953   0.495  0.7805 -0.5494 -0.9997
  395MOL   Cl8748155   3.313   7.121   0.541  0.4120  0.0655  0.1431
  395MOL   Cl8848156   3.517   6.961   0.424 -0.7806 -0.0417  0.5489
  395MOL    C8948157   3.389   6.857   0.618 -0.2781  0.2333 -0.7023
  395MOL    H9048158   3.295   6.810   0.649  0.0587  1.0397  1.5799
  395MOL    H9148159   3.451   6.774   0.582 -0.8300  0.4544 -2.2230
  395MOL    C9248160   3.456   6.901   0.751  0.6800 -0.0599  0.6001
  395MOL   Cl9348161   3.465   6.743   0.847 -0.3695  0.2188  0.0208
  395MOL   Cl9448162   3.358   7.021   0.845 -0.1139 -0.2826  0.0122
  395MOL    C9548163   3.601   6.952   0.729 -0.4748  0.5102  0.1300
  395MOL    H9648164   3.642   6.908   0.638  1.5744  2.0437  0.2650
  395MOL    H9748165   3.591   7.059   0.710 -1.8491  0.0242 -2.0839
  395MOL    C9848166   3.722   6.943   0.840 -0.4362 -0.0481 -0.5269
  395MOL   Cl9948167   3.766   6.774   0.866  0.0662  0.2065  0.2318
  395MOL  Cl10048168   3.685   7.015   0.997  0.2263 -0.2207  0.0017
  395MOL   C10148169   3.856   7.017   0.787 -0.1439  0.5426 -1.0997
  395MOL   H10248170   3.920   7.023   0.874 -0.7687 -0.6219 -0.5506
  395MOL   H10348171   3.919   6.951   0.727  3.3897 -0.3681  3.3624
  395MOL   C10448172   3.860   7.161   0.731 -0.6059  0.2412  0.4158
  395MOL  Cl10548173   3.748   7.269   0.818 -0.1615  0.1831  0.1753
  395MOL  Cl10648174   3.800   7.182   0.561 -0.1369  0.5231 -0.1840
  395MOL   C10748175   3.996   7.235   0.747  0.5039 -0.4274  0.2346
  395MOL   H10848176   3.991   7.336   0.705 -0.1335 -0.7460 -0.4702
  395MOL   H10948177   4.008   7.262   0.852 -1.0864  1.7321 -0.0906
  395MOL   C11048178   4.140   7.183   0.700  0.5011 -0.1180 -0.4704
  395MOL  Cl11148179   4.114   7.143   0.529 -0.4326  0.2736 -0.1593
  395MOL  Cl11248180   4.189   7.024   0.782  0.0984 -0.0975  0.1456
  395MOL   C11348181   4.261   7.285   0.717 -0.1689 -0.3143 -0.8583
  395MOL   H11448182   4.351   7.227   0.700  1.2748  1.8559 -0.7655
  395MOL   H11548183   4.250   7.361   0.640 -2.8946  2.0991  1.7431
  395MOL   C11648184   4.298   7.354   0.847  0.2676  0.2765  0.6160
  395MOL  Cl11748185   4.183   7.487   0.871 -0.1351 -0.2611 -0.1660
  395MOL  Cl11848186   4.459   7.417   0.840 -0.2008  0.0107 -0.3147
  395MOL   C11948187   4.298   7.264   0.970  0.4408 -0.4759 -0.0398
  395MOL   H12048188   4.349   7.309   1.055 -1.5835 -0.1186  1.0149
  395MOL   H12148189   4.197   7.244   1.007 -0.5706  0.1100 -2.4131
  395MOL   H12248190   4.351   7.170   0.954  0.3124 -0.8529  1.6740
  396MOL     C148191   1.637   2.093   6.820 -0.8724 -0.1545  0.0456
  396MOL    Cl248192   1.551   1.957   6.899 -0.1771  0.1015 -0.0097
  396MOL    Cl348193   1.781   2.125   6.914  0.0567 -0.0265  0.1034
  396MOL     C448194   1.677   2.059   6.671 -0.5036 -0.9600 -0.3945
  396MOL     H548195   1.761   2.126   6.651 -2.0875  1.2644  0.2256
  396MOL     H648196   1.722   1.960   6.663 -1.5108 -1.4269 -0.3104
  396MOL     H748197   1.569   2.177   6.832 -0.1640  0.4635 -0.2285
  396MOL     C848198   1.573   2.087   6.561  0.4500 -0.4072 -0.3058
  396MOL    Cl948199   1.546   2.266   6.552 -0.1653  0.1072  0.0436
  396MOL   Cl1048200   1.422   1.997   6.578  0.3300  0.0228  0.1596
  396MOL    C1148201   1.630   2.043   6.429 -0.1087  0.4177  0.1506
  396MOL    H1248202   1.626   1.935   6.429  0.1236  0.3894 -1.5833
  396MOL    H1348203   1.563   2.070   6.348  1.5112  0.0144 -1.3706
  396MOL    C1448204   1.776   2.076   6.372  0.4440 -0.6063 -0.0888
  396MOL   Cl1548205   1.888   1.973   6.458 -0.0733 -0.2859  0.2632
  396MOL   Cl1648206   1.824   2.244   6.415  0.1066 -0.0248 -0.2093
  396MOL    C1748207   1.806   2.052   6.217  0.0531  0.1434  0.3411
  396MOL    H1848208   1.886   2.123   6.199 -0.1979  0.2487 -0.3706
  396MOL    H1948209   1.844   1.952   6.196 -1.7767 -0.4172 -0.4527
  396MOL    C2048210   1.693   2.074   6.116 -0.3740 -0.6433 -0.0699
  396MOL   Cl2148211   1.610   2.228   6.145  0.0021  0.1650  0.1578
  396MOL   Cl2248212   1.585   1.935   6.128 -0.0391 -0.0889  0.8324
  396MOL    C2348213   1.755   2.088   5.971  0.5060 -0.7071 -0.1803
  396MOL    H2448214   1.683   2.140   5.908 -1.4311 -0.6610  1.9721
  396MOL    H2548215   1.825   2.169   5.990  0.6440 -0.2718 -2.5057
  396MOL    C2648216   1.825   1.978   5.889 -0.2964  0.8424 -0.8825
  396MOL   Cl2748217   1.730   1.828   5.851  0.0352  0.0582 -0.0640
  396MOL   Cl2848218   1.977   1.928   5.972 -0.0477  0.1445  0.0448
  396MOL    C2948219   1.847   2.043   5.752 -0.2319  0.2984  0.8699
  396MOL    H3048220   1.759   2.055   5.688  1.2453 -0.2468 -1.3078
  396MOL    H3148221   1.868   2.149   5.765 -0.7081  0.4846  0.1797
  396MOL    C3248222   1.957   2.003   5.643  0.4243  0.0787  0.1014
  396MOL   Cl3348223   2.120   2.024   5.722 -0.4928 -0.3700  0.1509
  396MOL   Cl3448224   1.925   2.120   5.508  0.3427 -0.4643 -0.1241
  396MOL    C3548225   1.948   1.853   5.596 -0.8039  0.4282 -0.0678
  396MOL    H3648226   1.929   1.789   5.681  2.0261  0.9015  0.9660
  396MOL    H3748227   1.858   1.853   5.533 -0.5993  1.6065 -0.3837
  396MOL    C3848228   2.067   1.786   5.520  0.4930 -0.4530 -0.4253
  396MOL   Cl3948229   1.983   1.660   5.424  0.3487 -0.0486 -0.6867
  396MOL   Cl4048230   2.176   1.713   5.647  0.0007  0.0885 -0.0761
  396MOL    C4148231   2.141   1.879   5.416  0.1128 -0.1027 -0.5278
  396MOL    H4248232   2.076   1.900   5.331  0.3591  0.8827 -0.4801
  396MOL    H4348233   2.143   1.976   5.466 -1.8212 -0.4224  0.1994
  396MOL    C4448234   2.295   1.851   5.366 -0.1333 -0.6863  0.1392
  396MOL   Cl4548235   2.407   1.896   5.500 -0.3368  0.0173  0.2015
  396MOL   Cl4648236   2.321   1.966   5.236  0.3494  0.1413  0.0979
  396MOL    C4748237   2.312   1.705   5.320 -0.3909  0.1164  0.3620
  396MOL    H4848238   2.284   1.638   5.402 -1.7977  0.8603  0.4978
  396MOL    H4948239   2.230   1.681   5.253  0.4623 -1.7931 -0.0278
  396MOL    C5048240   2.444   1.646   5.264  0.2921 -0.2649 -0.3846
  396MOL   Cl5148241   2.417   1.475   5.224  0.0339 -0.1185  0.2494
  396MOL   Cl5248242   2.571   1.641   5.384 -0.0841 -0.2245  0.0890
  396MOL    C5348243   2.520   1.712   5.146  0.1150  0.6693 -0.4211
  396MOL    H5448244   2.538   1.813   5.183 -0.1111 -0.4526  2.8893
  396MOL    H5548245   2.617   1.662   5.144 -0.0030  0.4603 -2.5942
  396MOL    C5648246   2.466   1.729   5.000 -0.1149  0.6593 -0.2829
  396MOL   Cl5748247   2.294   1.762   5.008  0.1747 -0.0997 -0.1665
  396MOL   Cl5848248   2.487   1.570   4.925 -0.4033 -0.0946 -0.0774
  396MOL    C5948249   2.556   1.829   4.929 -0.2470  0.0476 -0.3779
  396MOL    H6048250   2.572   1.922   4.983  0.2010 -0.2152 -0.0572
  396MOL    H6148251   2.652   1.777   4.926 -0.9816 -1.5772  2.0747
  396MOL    C6248252   2.520   1.880   4.786 -0.3077  0.8047 -0.4230
  396MOL   Cl6348253   2.504   1.740   4.672 -0.0961  0.3375  0.0838
  396MOL   Cl6448254   2.648   1.981   4.722  0.2462 -0.0012  0.1917
  396MOL    C6548255   2.400   1.979   4.783  0.2114  0.0383 -0.4105
  396MOL    H6648256   2.342   1.974   4.875  0.7277 -1.4595 -0.1542
  396MOL    H6748257   2.443   2.079   4.795  0.2184 -0.1786  1.5378
  396MOL    C6848258   2.305   1.989   4.663 -0.4471 -0.2777  0.2258
  396MOL   Cl6948259   2.392   1.986   4.510 -0.0363  0.2146 -0.1748
  396MOL   Cl7048260   2.220   2.146   4.666 -0.1707  0.1263 -0.0721
  396MOL    C7148261   2.210   1.867   4.662  1.0174  0.4005 -0.0229
  396MOL    H7248262   2.259   1.785   4.610  0.1652 -1.0943  1.4822
  396MOL    H7348263   2.185   1.840   4.764  1.5239  2.4551  0.6553
  396MOL    C7448264   2.071   1.874   4.578 -0.2048  0.0906 -0.9372
  396MOL   Cl7548265   2.109   1.931   4.410  0.4294 -0.1621 -0.3075
  396MOL   Cl7648266   1.953   1.976   4.661 -0.0843 -0.1720  0.1022
  396MOL    C7748267   1.991   1.734   4.562 -0.3875 -0.0274 -0.6723
  396MOL    H7848268   1.902   1.745   4.501 -0.5629 -1.8449 -0.7793
  396MOL    H7948269   2.049   1.678   4.488 -0.8676 -0.6245 -0.5937
  396MOL    C8048270   1.962   1.628   4.677 -0.1217  0.0241 -0.4952
  396MOL   Cl8148271   2.120   1.574   4.730  0.0926 -0.0209 -0.1942
  396MOL   Cl8248272   1.873   1.494   4.603 -0.1542 -0.2525 -0.2031
  396MOL    C8348273   1.888   1.693   4.805  0.6495  0.4525  0.2428
  396MOL    H8448274   1.961   1.759   4.851 -0.7455  0.5965  2.3433
  396MOL    H8548275   1.808   1.759   4.771  0.3774  1.6723  3.1038
  396MOL    C8648276   1.831   1.600   4.912 -0.1972 -0.4514  0.4529
  396MOL   Cl8748277   1.813   1.713   5.053 -0.2527 -0.1600 -0.4077
  396MOL   Cl8848278   1.949   1.478   4.956 -0.2152 -0.0094 -0.1005
  396MOL    C8948279   1.693   1.522   4.888 -0.2153  0.4486  0.2575
  396MOL    H9048280   1.716   1.428   4.836  0.6342  0.5445  0.4514
  396MOL    H9148281   1.671   1.494   4.991  1.3003 -1.3972  0.1099
  396MOL    C9248282   1.564   1.601   4.832  0.4096 -0.3156 -0.4417
  396MOL   Cl9348283   1.579   1.653   4.662  0.0596  0.0993 -0.1738
  396MOL   Cl9448284   1.528   1.753   4.926  0.1822  0.0677  0.0748
  396MOL    C9548285   1.430   1.520   4.849 -0.3460 -0.7964 -0.5195
  396MOL    H9648286   1.409   1.524   4.956  0.2690  0.1072 -0.4261
  396MOL    H9748287   1.356   1.578   4.793 -1.0301 -1.8217 -0.7017
  396MOL    C9848288   1.422   1.373   4.802 -0.2820  0.4196 -0.4675
  396MOL   Cl9948289   1.512   1.268   4.919 -0.1909 -0.1773 -0.4274
  396MOL  Cl10048290   1.498   1.338   4.647  0.5047  0.2758 -0.1730
  396MOL   C10148291   1.270   1.332   4.776  0.3025  0.7528  0.5580
  396MOL   H10248292   1.235   1.367   4.679  0.7952 -1.4460 -0.4533
  396MOL   H10348293   1.265   1.223   4.765  2.2261  0.9400 -2.8341
  396MOL   C10448294   1.160   1.370   4.887  0.2804  0.0829  0.5224
  396MOL  Cl10548295   1.123   1.544   4.893  0.2312  0.0375 -0.2807
  396MOL  Cl10648296   1.203   1.328   5.049  0.1968  0.0419  0.2455
  396MOL   C10748297   1.018   1.313   4.860  0.2591 -0.6132  0.4755
  396MOL   H10848298   0.962   1.342   4.949 -2.0517  3.8094 -2.2238
  396MOL   H10948299   0.978   1.356   4.768  2.1687  0.5602  0.1741
  396MOL   C11048300   0.994   1.162   4.840 -0.1485 -0.5217  0.3134
  396MOL  Cl11148301   1.112   1.055   4.925 -0.0131  0.1295  0.0169
  396MOL  Cl11248302   1.023   1.128   4.668 -0.1277 -0.0422  0.2847
  396MOL   C11348303   0.845   1.110   4.874  0.1384 -0.0697  0.1452
  396MOL   H11448304   0.770   1.148   4.805 -0.0006 -1.8880 -0.7461
  396MOL   H11548305   0.871   1.004   4.862  3.7104  0.7729 -0.1234
  396MOL   C11648306   0.777   1.136   5.013 -0.6958  0.0742 -0.1546
  396MOL  Cl11748307   0.694   1.296   5.003  0.4915  0.4742 -0.2128
  396MOL  Cl11848308   0.892   1.119   5.148 -0.0496  0.1756 -0.0989
  396MOL   C11948309   0.660   1.044   5.052  0.9091  1.1167 -0.3749
  396MOL   H12048310   0.609   1.087   5.138  0.7407 -4.8487  2.7568
  396MOL   H12148311   0.588   1.042   4.970 -2.0916  2.2344  2.1292
  396MOL   H12248312   0.712   0.950   5.073 -0.4029  0.3160 -0.6206
  397MOL     C148313   1.204   2.498   3.745 -0.3148  0.1969  0.5395
  397MOL    Cl248314   1.278   2.639   3.658  0.1688  0.1395 -0.1834
  397MOL    Cl348315   1.137   2.551   3.901 -0.3573 -0.1221 -0.1522
  397MOL     C448316   1.095   2.412   3.666 -0.0650  0.7774 -0.1893
  397MOL     H548317   1.057   2.331   3.729  0.4447  0.9820  0.3826
  397MOL     H648318   1.007   2.473   3.646 -0.3616  0.4920  0.2173
  397MOL     H748319   1.282   2.424   3.765 -2.4674 -2.2041  0.4222
  397MOL     C848320   1.114   2.350   3.521 -0.2821 -0.2793 -0.4640
  397MOL    Cl948321   1.280   2.284   3.528 -0.3578 -0.0155 -0.1013
  397MOL   Cl1048322   1.119   2.480   3.407  0.1156 -0.2270  0.6702
  397MOL    C1148323   1.016   2.236   3.483 -0.5048 -0.4811  0.1911
  397MOL    H1248324   1.045   2.194   3.386  0.7478  0.3597  0.1771
  397MOL    H1348325   1.041   2.149   3.544 -1.4178 -0.5784  0.4242
  397MOL    C1448326   0.860   2.244   3.483 -0.0731 -0.2674  0.3198
  397MOL   Cl1548327   0.808   2.253   3.646  0.0100  0.2497  0.0593
  397MOL   Cl1648328   0.803   2.086   3.428  0.3709  0.5271 -0.0773
  397MOL    C1748329   0.790   2.368   3.408  0.2779  0.3412  0.0553
  397MOL    H1848330   0.685   2.381   3.432 -0.1288  1.2977 -2.1063
  397MOL    H1948331   0.835   2.461   3.443  0.1624  0.7286 -0.7982
  397MOL    C2048332   0.789   2.370   3.250  0.6166 -0.1152 -0.4778
  397MOL   Cl2148333   0.675   2.248   3.183 -0.1107  0.1600 -0.0877
  397MOL   Cl2248334   0.950   2.324   3.190 -0.3650 -0.1295  0.1868
  397MOL    C2348335   0.763   2.508   3.185  0.6228 -0.2206  0.2615
  397MOL    H2448336   0.844   2.569   3.224  3.0475 -2.3842 -1.2605
  397MOL    H2548337   0.770   2.507   3.076  0.7345 -2.8488  0.2695
  397MOL    C2648338   0.629   2.595   3.207 -0.6470 -0.0585 -0.6235
  397MOL   Cl2748339   0.634   2.647   3.372  0.0189  0.4224  0.2491
  397MOL   Cl2848340   0.486   2.490   3.181  0.2239  0.0619  0.0654
  397MOL    C2948341   0.608   2.706   3.099 -0.2939 -0.3891 -0.5969
  397MOL    H3048342   0.590   2.669   2.998  1.5066  2.4582 -2.0620
  397MOL    H3148343   0.514   2.757   3.117  0.3419  0.0799  1.4623
  397MOL    C3248344   0.704   2.833   3.080 -0.1416  0.2618 -0.3700
  397MOL   Cl3348345   0.870   2.782   3.077 -0.3090  0.1821 -0.2303
  397MOL   Cl3448346   0.681   2.938   3.220 -0.2384  0.1957 -0.5326
  397MOL    C3548347   0.684   2.917   2.944  0.0908 -0.7904  0.1559
  397MOL    H3648348   0.740   3.010   2.949 -1.0198 -0.0822 -0.3536
  397MOL    H3748349   0.730   2.868   2.858  2.7790  0.0479  1.0487
  397MOL    C3848350   0.551   2.967   2.898  0.1733 -0.2474  0.4126
  397MOL   Cl3948351   0.454   2.837   2.834  0.1429 -0.1117  0.1860
  397MOL   Cl4048352   0.599   3.078   2.758  0.0905  0.1028  0.0043
  397MOL    C4148353   0.479   3.060   2.998 -0.3880 -0.1819 -0.0543
  397MOL    H4248354   0.472   3.000   3.089 -1.9495 -1.2506 -0.8723
  397MOL    H4348355   0.555   3.137   3.018  1.2679 -1.7662 -0.1308
  397MOL    C4448356   0.333   3.105   2.978  0.3088 -0.4703  0.3544
  397MOL   Cl4548357   0.228   2.971   3.043 -0.6214  0.1311 -0.2570
  397MOL   Cl4648358   0.284   3.149   2.811  0.0156  0.0874 -0.1700
  397MOL    C4748359   0.292   3.232   3.068  0.2881  0.0280 -0.1771
  397MOL    H4848360   0.332   3.319   3.016 -0.1172 -0.1975 -0.8635
  397MOL    H4948361   0.186   3.242   3.049  0.1013 -1.1744  0.1696
  397MOL    C5048362   0.335   3.255   3.218  0.1861 -0.2504  0.0130
  397MOL   Cl5148363   0.275   3.416   3.254  0.2043 -0.1122  0.2503
  397MOL   Cl5248364   0.510   3.276   3.238  0.1767  0.3769 -0.5452
  397MOL    C5348365   0.295   3.153   3.321  0.4711 -0.6868 -0.1835
  397MOL    H5448366   0.196   3.128   3.284  0.1419  0.3698 -0.0327
  397MOL    H5548367   0.365   3.070   3.306  1.8504  0.2558  0.8427
  397MOL    C5648368   0.282   3.184   3.473 -0.1835 -0.8020  0.1501
  397MOL   Cl5748369   0.139   3.286   3.492  0.3841  0.2261 -0.2183
  397MOL   Cl5848370   0.417   3.279   3.534 -0.2616  0.5847 -0.1611
  397MOL    C5948371   0.256   3.056   3.561 -0.4448 -0.3864 -0.6747
  397MOL    H6048372   0.261   3.096   3.662  0.0493 -0.9607 -0.4736
  397MOL    H6148373   0.152   3.027   3.545 -0.9060  0.7685  0.1599
  397MOL    C6248374   0.352   2.932   3.548  1.2585  0.7509 -0.5043
  397MOL   Cl6348375   0.523   2.987   3.519 -0.2115  0.2056  0.1586
  397MOL   Cl6448376   0.301   2.846   3.405 -0.1288 -0.1219  0.0278
  397MOL    C6548377   0.357   2.831   3.669  1.1254 -0.0584  0.0860
  397MOL    H6648378   0.401   2.738   3.634 -1.6108 -1.2438 -0.4116
  397MOL    H6748379   0.424   2.875   3.743  2.8331 -0.0721 -1.4362
  397MOL    C6848380   0.230   2.795   3.747 -0.0052 -0.2675  0.1505
  397MOL   Cl6948381   0.094   2.739   3.640  0.2481  0.2695  0.0269
  397MOL   Cl7048382   0.172   2.935   3.847 -0.3774 -0.2396  0.1263
  397MOL    C7148383   0.270   2.687   3.856  0.1417 -0.1341  0.5016
  397MOL    H7248384   0.370   2.717   3.887  0.4321 -1.0892  0.4899
  397MOL    H7348385   0.211   2.699   3.947 -0.2968 -0.3697  0.2463
  397MOL    C7448386   0.287   2.532   3.826 -0.1466  0.2911 -0.5692
  397MOL   Cl7548387   0.389   2.456   3.957 -0.0476  0.5307  0.1777
  397MOL   Cl7648388   0.363   2.495   3.676  0.4109 -0.3724 -0.2337
  397MOL    C7748389   0.147   2.458   3.820 -0.1394  0.2209  0.8827
  397MOL    H7848390   0.098   2.482   3.726 -0.1354  0.9874  1.0753
  397MOL    H7948391   0.167   2.352   3.805  2.5890  0.8852 -0.5193
  397MOL    C8048392   0.033   2.458   3.930  0.3345 -0.3730 -0.3391
  397MOL   Cl8148393   9.159   2.624   3.964  0.2976  0.4070  0.5865
  397MOL   Cl8248394   0.093   2.403   4.093 -0.2229  0.8241  0.3124
  397MOL    C8348395   9.086   2.371   3.895 -0.4130 -0.0848  0.2803
  397MOL    H8448396   9.107   2.265   3.910 -0.8142  0.0092  1.5828
  397MOL    H8548397   9.023   2.398   3.980  0.7944  0.6416  0.9605
  397MOL    C8648398   9.018   2.380   3.759  0.8557 -1.0024  0.2338
  397MOL   Cl8748399   9.098   2.265   3.654  0.1410  0.1120  0.2485
  397MOL   Cl8848400   9.023   2.538   3.674 -0.2851  0.3285 -0.3191
  397MOL    C8948401   8.872   2.328   3.779  0.0963 -0.0606 -0.4953
  397MOL    H9048402   8.835   2.282   3.688 -1.1753 -0.3849  0.1790
  397MOL    H9148403   8.876   2.243   3.847  0.5879 -0.4648 -1.0320
  397MOL    C9248404   8.756   2.437   3.811  0.0440 -0.6764 -0.0645
  397MOL   Cl9348405   8.815   2.552   3.936  0.3401 -0.0825  0.0412
  397MOL   Cl9448406   8.629   2.348   3.889 -0.3439  0.0438 -0.2120
  397MOL    C9548407   8.698   2.524   3.701 -0.6288 -0.6681 -0.2624
  397MOL    H9648408   8.609   2.559   3.753 -0.7172 -0.9271 -0.2409
  397MOL    H9748409   8.763   2.609   3.683 -2.2633  0.3542 -1.5629
  397MOL    C9848410   8.659   2.466   3.562 -0.2461 -1.2379 -0.2335
  397MOL   Cl9948411   8.555   2.325   3.575  0.4139  0.2263 -0.3442
  397MOL  Cl10048412   8.802   2.426   3.465 -0.0585  0.0418 -0.2748
  397MOL   C10148413   8.575   2.571   3.471 -0.2206 -0.1111  0.7355
  397MOL   H10248414   8.585   2.532   3.369 -0.6900 -1.6535  1.2637
  397MOL   H10348415   8.470   2.544   3.480 -0.3138  0.5378  1.6809
  397MOL   C10448416   8.594   2.727   3.472 -0.6513  0.8090  1.3613
  397MOL  Cl10548417   8.775   2.756   3.470  0.4505 -0.0385  0.5121
  397MOL  Cl10648418   8.535   2.797   3.620  0.3738 -0.1703 -0.3952
  397MOL   C10748419   8.520   2.790   3.351 -0.3015  0.4970  0.8892
  397MOL   H10848420   8.574   2.750   3.265  0.6688 -1.6436  2.4644
  397MOL   H10948421   8.426   2.742   3.326 -0.4928  1.7868 -1.0484
  397MOL   C11048422   8.501   2.944   3.329  0.4512  0.3899 -0.0209
  397MOL  Cl11148423   8.652   3.030   3.374 -0.5146  0.0235  0.1767
  397MOL  Cl11248424   8.369   3.003   3.438  0.2249 -0.0815  0.1808
  397MOL   C11348425   8.460   2.965   3.175  0.7252 -0.3336 -0.0580
  397MOL   H11448426   8.546   2.924   3.122  1.3838  2.0703 -0.9469
  397MOL   H11548427   8.384   2.888   3.167  0.2308  0.0980  0.4158
  397MOL   C11648428   8.416   3.099   3.108 -0.3309 -0.1875 -0.0587
  397MOL  Cl11748429   8.247   3.136   3.157 -0.0552  0.0141 -0.1415
  397MOL  Cl11848430   8.410   3.077   2.936 -0.0140 -0.0585  0.1605
  397MOL   C11948431   8.496   3.218   3.148 -0.4994 -0.3884 -0.8228
  397MOL   H12048432   8.599   3.195   3.175 -0.3903  0.1286 -0.8094
  397MOL   H12148433   8.496   3.309   3.088  2.3409 -1.5549 -2.7007
  397MOL   H12248434   8.457   3.257   3.242  1.2078  0.2500 -0.3719
  398MOL     C148435   6.390   5.310   0.863 -0.2657 -0.1510  0.2202
  398MOL    Cl248436   6.256   5.414   0.901 -0.1456  0.4727 -0.4105
  398MOL    Cl348437   6.552   5.390   0.885  0.3730  0.0794 -0.0561
  398MOL     C448438   6.392   5.179   0.940  0.1824 -0.0934 -0.0032
  398MOL     H548439   6.496   5.149   0.927 -0.7226 -2.7389 -1.5014
  398MOL     H648440   6.376   5.197   1.047 -0.9748 -1.7326  0.1258
  398MOL     H748441   6.380   5.305   0.755 -1.1483  2.4169  0.1515
  398MOL     C848442   6.305   5.062   0.890  0.2904  0.1946 -0.0236
  398MOL    Cl948443   6.397   4.921   0.939  0.1379 -0.0192 -0.2372
  398MOL   Cl1048444   6.298   5.065   0.708  0.4343  0.6339  0.0437
  398MOL    C1148445   6.166   5.058   0.957  0.0677  0.9239  0.1299
  398MOL    H1248446   6.177   5.059   1.065  0.6771 -4.5434  0.2546
  398MOL    H1348447   6.124   5.158   0.942 -1.8051 -0.0542 -1.4701
  398MOL    C1448448   6.057   4.950   0.923  0.1889 -0.2436 -0.4527
  398MOL   Cl1548449   5.993   4.983   0.765  0.1929  0.0620 -0.0760
  398MOL   Cl1648450   5.924   4.987   1.045  0.2084 -0.0649 -0.1629
  398MOL    C1748451   6.098   4.795   0.932 -0.5335 -0.4962  0.1545
  398MOL    H1848452   6.157   4.765   0.845  0.1506  0.7884  0.1585
  398MOL    H1948453   6.175   4.786   1.009  0.0747 -0.4731 -0.4408
  398MOL    C2048454   5.990   4.682   0.941 -0.2621 -0.0721 -0.0856
  398MOL   Cl2148455   5.871   4.712   0.807  0.1342 -0.0965 -0.2704
  398MOL   Cl2248456   5.894   4.687   1.090 -0.2219 -0.2905 -0.0211
  398MOL    C2348457   6.046   4.542   0.918  0.4464 -0.0839 -0.0165
  398MOL    H2448458   5.960   4.475   0.928 -2.2176  2.7435 -2.5747
  398MOL    H2548459   6.074   4.532   0.813  0.1347 -1.1966  0.0046
  398MOL    C2648460   6.158   4.482   1.005  0.1213  0.3180 -0.0519
  398MOL   Cl2748461   6.121   4.489   1.175 -0.0189 -0.6084 -0.0255
  398MOL   Cl2848462   6.321   4.558   0.978 -0.2660 -0.0628 -0.2185
  398MOL    C2948463   6.193   4.332   0.972 -0.0984 -0.5700  0.2644
  398MOL    H3048464   6.252   4.327   0.880  0.9714  0.6998  0.8552
  398MOL    H3148465   6.264   4.311   1.052 -0.5965 -1.6914  0.4233
  398MOL    C3248466   6.086   4.214   0.972  0.3208 -0.2603  0.1213
  398MOL   Cl3348467   6.184   4.068   0.974  0.2677 -0.0100 -0.3051
  398MOL   Cl3448468   6.001   4.212   0.820 -0.0468  0.3696 -0.0594
  398MOL    C3548469   5.989   4.216   1.093 -0.3369 -0.5483 -0.1479
  398MOL    H3648470   6.040   4.240   1.186 -0.4618 -2.9512  0.5573
  398MOL    H3748471   5.924   4.303   1.081 -1.4481 -1.2662  0.5735
  398MOL    C3848472   5.889   4.095   1.129 -0.2301 -0.6201  0.4654
  398MOL   Cl3948473   5.777   4.166   1.245 -0.3525 -0.1534 -0.5405
  398MOL   Cl4048474   5.989   3.969   1.200  0.4715  0.2293 -0.3487
  398MOL    C4148475   5.814   4.048   0.995 -0.1710 -0.2140  0.6547
  398MOL    H4248476   5.781   4.134   0.936  1.7468 -0.2556 -0.4961
  398MOL    H4348477   5.901   4.002   0.948  1.2183  2.9084 -0.0226
  398MOL    C4448478   5.695   3.949   0.996  0.7410 -0.3335  0.0700
  398MOL   Cl4548479   5.554   4.026   1.064  0.2277 -0.1238  0.4487
  398MOL   Cl4648480   5.736   3.809   1.097 -0.4853  0.0502  0.3465
  398MOL    C4748481   5.669   3.908   0.840  0.2523  0.4844  0.8064
  398MOL    H4848482   5.673   3.995   0.774 -0.6040  0.2225  0.4052
  398MOL    H4948483   5.756   3.858   0.798  0.7321  3.2272 -1.6055
  398MOL    C5048484   5.548   3.830   0.788 -0.1585 -0.4646 -0.1146
  398MOL   Cl5148485   5.587   3.796   0.623 -0.0997 -0.1045 -0.1378
  398MOL   Cl5248486   5.400   3.939   0.777 -0.0968  0.2347 -0.3080
  398MOL    C5348487   5.514   3.702   0.870 -0.5419 -0.1195 -0.0373
  398MOL    H5448488   5.607   3.648   0.886 -0.2171 -0.0120 -1.4570
  398MOL    H5548489   5.501   3.736   0.972  1.8198  2.2738 -0.4704
  398MOL    C5648490   5.398   3.610   0.839  0.0271  0.0012  0.3241
  398MOL   Cl5748491   5.422   3.473   0.949  0.1531 -0.6808  0.4251
  398MOL   Cl5848492   5.419   3.541   0.674  0.2632 -0.0993  0.5762
  398MOL    C5948493   5.253   3.662   0.842 -0.0491 -1.4145 -0.0818
  398MOL    H6048494   5.235   3.744   0.774 -0.7644 -1.3781  0.1561
  398MOL    H6148495   5.187   3.588   0.797 -0.5747 -0.3380 -1.0895
  398MOL    C6248496   5.188   3.695   0.977 -0.0178 -1.0489 -0.3536
  398MOL   Cl6348497   5.049   3.800   0.934  0.0845  0.2463 -0.2985
  398MOL   Cl6448498   5.281   3.809   1.086 -0.2212 -0.2053  0.1632
  398MOL    C6548499   5.135   3.576   1.060  0.2336  0.1033  0.8248
  398MOL    H6648500   5.095   3.500   0.993  1.4880  0.6972 -0.6370
  398MOL    H6748501   5.218   3.516   1.098  0.6107  0.3110  0.3324
  398MOL    C6848502   5.026   3.582   1.169 -0.5049  0.4555  0.5420
  398MOL   Cl6948503   5.009   3.423   1.242 -0.2975 -0.1250  0.1792
  398MOL   Cl7048504   4.869   3.611   1.090 -0.1808  0.1914  0.0767
  398MOL    C7148505   5.038   3.696   1.279 -0.4272 -0.9003  0.4647
  398MOL    H7248506   5.051   3.787   1.221  2.9976 -0.4653  1.8056
  398MOL    H7348507   4.947   3.736   1.323  0.5941  0.3039  1.5295
  398MOL    C7448508   5.148   3.699   1.392  0.0182 -0.0868  0.5520
  398MOL   Cl7548509   5.179   3.872   1.413  0.3929  0.4997  0.0335
  398MOL   Cl7648510   5.294   3.622   1.331 -0.2992  0.5655 -0.1326
  398MOL    C7748511   5.113   3.627   1.531 -0.2629 -0.8961 -0.3372
  398MOL    H7848512   5.099   3.520   1.514  0.6288 -1.5092  2.4928
  398MOL    H7948513   5.203   3.625   1.592 -1.6869 -0.5131  1.8512
  398MOL    C8048514   4.994   3.655   1.625 -0.3246  0.2635  0.0902
  398MOL   Cl8148515   4.839   3.622   1.543 -0.0483  0.5255 -0.1736
  398MOL   Cl8248516   4.997   3.826   1.680  0.2356  0.2137 -0.3345
  398MOL    C8348517   4.997   3.578   1.758  0.2629  0.7658 -0.2419
  398MOL    H8448518   5.070   3.629   1.820  0.2662  0.3059  0.1430
  398MOL    H8548519   4.900   3.586   1.808  1.1544 -1.6807  2.0320
  398MOL    C8648520   5.024   3.431   1.776  0.5174 -0.0360 -0.0947
  398MOL   Cl8748521   5.198   3.403   1.778 -0.4776  0.2573  0.0516
  398MOL   Cl8848522   4.965   3.335   1.628 -0.3391  0.1421 -0.2171
  398MOL    C8948523   4.957   3.360   1.895 -0.8461 -0.2693 -0.8371
  398MOL    H9048524   4.850   3.374   1.882 -0.7934 -0.3293 -1.3514
  398MOL    H9148525   4.989   3.256   1.893  2.9020  0.7383  1.7271
  398MOL    C9248526   4.982   3.409   2.050  0.1888  0.2517  0.5660
  398MOL   Cl9348527   4.929   3.574   2.071 -0.0399  0.0147 -0.2711
  398MOL   Cl9448528   5.152   3.408   2.098 -0.0993  0.1790  0.1250
  398MOL    C9548529   4.903   3.315   2.151  0.3395  0.5500 -0.7627
  398MOL    H9648530   4.817   3.282   2.093  1.8620 -2.7888 -1.1880
  398MOL    H9748531   4.965   3.228   2.171  0.4816  1.0212  0.9131
  398MOL    C9848532   4.859   3.353   2.299 -0.0081 -0.6533  0.5128
  398MOL   Cl9948533   4.823   3.199   2.373  0.3614  0.1726  0.0499
  398MOL  Cl10048534   4.721   3.465   2.305  0.3022 -0.1273 -0.0596
  398MOL   C10148535   4.977   3.410   2.393  0.4187  0.6677 -0.0081
  398MOL   H10248536   5.050   3.329   2.402  0.2573  0.5355  0.1180
  398MOL   H10348537   5.025   3.487   2.333 -1.3833  1.7722 -0.0509
  398MOL   C10448538   4.950   3.486   2.529 -0.7686  1.4308 -0.2058
  398MOL  Cl10548539   4.892   3.648   2.496 -0.0685 -0.3028  0.1469
  398MOL  Cl10648540   5.104   3.501   2.611 -0.3712 -0.1744  0.6380
  398MOL   C10748541   4.854   3.411   2.627  0.0008  0.4474  0.7164
  398MOL   H10848542   4.754   3.416   2.584  0.2317  1.0988  0.2429
  398MOL   H10948543   4.872   3.304   2.623 -1.5433  0.2406 -1.7058
  398MOL   C11048544   4.836   3.451   2.780 -0.7762  0.1636 -0.4668
  398MOL  Cl11148545   4.974   3.387   2.869  0.0498 -0.3224 -0.1361
  398MOL  Cl11248546   4.683   3.375   2.842 -0.1253  0.2502  0.3320
  398MOL   C11348547   4.830   3.609   2.810  0.3405 -0.8780  0.5426
  398MOL   H11448548   4.913   3.655   2.758  0.6797 -0.8144  1.1375
  398MOL   H11548549   4.731   3.633   2.771  2.3423  1.6922 -3.2714
  398MOL   C11648550   4.846   3.667   2.947  0.5738 -0.0387  0.5397
  398MOL  Cl11748551   4.805   3.836   2.933  0.2636 -0.3246  0.6113
  398MOL  Cl11848552   5.013   3.669   3.015  0.0025 -0.4337  0.2126
  398MOL   C11948553   4.746   3.602   3.045 -0.2121  0.0624  0.3593
  398MOL   H12048554   4.766   3.648   3.142  0.5692 -0.7903  0.6098
  398MOL   H12148555   4.641   3.621   3.020 -0.4198  1.4932  2.1931
  398MOL   H12248556   4.765   3.495   3.052 -2.0332 -0.3513 -0.6055
  399MOL     C148557   7.558   7.671   4.771  0.3160  0.7432 -0.0425
  399MOL    Cl248558   7.554   7.678   4.943 -0.5063  0.0432 -0.1629
  399MOL    Cl348559   7.399   7.719   4.716  0.0054  0.1068  0.0742
  399MOL     C448560   7.665   7.761   4.707 -0.2345 -0.3212  0.5216
  399MOL     H548561   7.635   7.763   4.602  0.7832 -1.1093  0.2128
  399MOL     H648562   7.675   7.863   4.743 -1.2774  0.0081 -0.1005
  399MOL     H748563   7.572   7.567   4.741 -0.1273  0.2752  1.3545
  399MOL     C848564   7.808   7.704   4.711  0.5285  0.3001 -0.0498
  399MOL    Cl948565   7.906   7.815   4.625 -0.2795 -0.1354  0.3319
  399MOL   Cl1048566   7.812   7.552   4.614  0.3393 -0.4396  0.1746
  399MOL    C1148567   7.853   7.679   4.856  0.2706  0.1178  0.2929
  399MOL    H1248568   7.802   7.757   4.913  2.5328  0.4468  1.9492
  399MOL    H1348569   7.809   7.586   4.890 -2.4515  1.2692  0.0178
  399MOL    C1448570   8.001   7.681   4.904 -0.4683  0.1860 -0.0306
  399MOL   Cl1548571   8.080   7.845   4.893  0.2493 -0.0934  0.2061
  399MOL   Cl1648572   8.100   7.569   4.803  0.0487  0.7469 -0.0267
  399MOL    C1748573   8.021   7.636   5.056  0.5124  0.4646 -0.1638
  399MOL    H1848574   8.126   7.621   5.082 -0.1258 -2.7580  0.7783
  399MOL    H1948575   7.985   7.720   5.114  1.6263  0.3734  0.6723
  399MOL    C2048576   7.940   7.516   5.129  0.2193 -0.1942  0.9621
  399MOL   Cl2148577   7.937   7.369   5.026  0.2979 -0.1583 -0.2310
  399MOL   Cl2248578   7.767   7.545   5.161  0.0216  0.3022 -0.1184
  399MOL    C2348579   8.009   7.457   5.256 -0.3568  0.3264 -0.4924
  399MOL    H2448580   7.955   7.366   5.281  0.4996 -0.5890 -1.9519
  399MOL    H2548581   8.108   7.423   5.226 -0.7425 -3.5521  2.2710
  399MOL    C2648582   8.010   7.529   5.390  0.1255  0.2775  0.2240
  399MOL   Cl2748583   7.850   7.518   5.470 -0.0973  0.2777 -0.2783
  399MOL   Cl2848584   8.063   7.696   5.375 -0.0247  0.0108  0.1818
  399MOL    C2948585   8.110   7.473   5.497  0.2860 -0.2770  0.7315
  399MOL    H3048586   8.210   7.503   5.465  0.1840 -0.8178 -0.1012
  399MOL    H3148587   8.088   7.525   5.590 -0.9200  2.2700 -0.9246
  399MOL    C3248588   8.111   7.322   5.533  0.4641 -0.3385 -0.7264
  399MOL   Cl3348589   8.161   7.223   5.389 -0.0127 -0.1205  0.3569
  399MOL   Cl3448590   7.955   7.267   5.596 -0.3167 -0.1742 -0.0816
  399MOL    C3548591   8.228   7.287   5.638 -0.1992 -0.3452  0.2853
  399MOL    H3648592   8.257   7.182   5.635 -1.5349 -0.6888 -1.6415
  399MOL    H3748593   8.315   7.339   5.598 -0.5977 -1.0766 -1.6047
  399MOL    C3848594   8.209   7.328   5.791  0.3117 -0.3747 -0.0675
  399MOL   Cl3948595   8.097   7.207   5.869 -0.4114  0.0812  0.4734
  399MOL   Cl4048596   8.149   7.493   5.827  0.1356  0.3409 -0.2087
  399MOL    C4148597   8.343   7.314   5.863  0.3111  0.1251  0.2172
  399MOL    H4248598   8.335   7.341   5.969  1.9917 -0.1527  0.4296
  399MOL    H4348599   8.360   7.207   5.874 -2.7143 -0.1965  2.0706
  399MOL    C4448600   8.474   7.365   5.797  0.2478 -0.2751 -0.1634
  399MOL   Cl4548601   8.455   7.519   5.714 -0.0679  0.1246  0.2710
  399MOL   Cl4648602   8.525   7.239   5.684  0.0458 -0.1964 -0.1437
  399MOL    C4748603   8.600   7.369   5.887 -0.2626 -0.7555  0.0053
  399MOL    H4848604   8.622   7.268   5.921 -0.4645  0.1113  2.8798
  399MOL    H4948605   8.685   7.397   5.824 -0.5872  2.8001  1.0401
  399MOL    C5048606   8.614   7.456   6.011  0.7670  0.1035  0.1855
  399MOL   Cl5148607   8.497   7.385   6.141  0.3112 -0.8404  0.2192
  399MOL   Cl5248608   8.562   7.619   5.989  0.1223  0.0479  0.3236
  399MOL    C5348609   8.752   7.456   6.078  0.3035  0.1204  0.4051
  399MOL    H5448610   8.731   7.505   6.173  0.9066  1.5548 -0.1845
  399MOL    H5548611   8.783   7.354   6.102 -1.4080 -0.8520 -1.3036
  399MOL    C5648612   8.888   7.504   6.026  0.9039  0.1500 -0.4411
  399MOL   Cl5748613   8.933   7.406   5.889 -0.3691 -0.4038 -0.1506
  399MOL   Cl5848614   9.011   7.468   6.148 -0.1013  0.3246 -0.1195
  399MOL    C5948615   8.885   7.657   5.994  0.3855 -0.7325 -0.1871
  399MOL    H6048616   8.829   7.672   5.902  2.4866  3.6514 -0.8463
  399MOL    H6148617   8.834   7.707   6.075 -0.7754 -0.3704 -1.1303
  399MOL    C6248618   9.021   7.743   5.975  0.6758 -0.0713  0.2354
  399MOL   Cl6348619   9.140   7.652   5.882  0.4492  0.1102 -0.4427
  399MOL   Cl6448620   9.091   7.778   6.129 -0.3990 -0.1148 -0.1933
  399MOL    C6548621   8.998   7.876   5.897 -1.0656  0.1838 -0.3340
  399MOL    H6648622   9.096   7.920   5.876 -0.0057 -2.2484 -0.5956
  399MOL    H6748623   8.985   7.845   5.794  0.9557  1.2976 -0.9402
  399MOL    C6848624   8.883   7.974   5.934 -0.4512 -0.3692 -0.0756
  399MOL   Cl6948625   8.847   7.983   6.106 -0.3460 -0.0258 -0.4735
  399MOL   Cl7048626   8.728   7.922   5.863 -0.2177  0.3234  0.2840
  399MOL    C7148627   8.918   8.118   5.888 -0.6765 -0.0946  0.6242
  399MOL    H7248628   8.855   8.192   5.937  2.5317  1.9883  1.6911
  399MOL    H7348629   9.012   8.131   5.941 -0.4109  0.4451  0.0176
  399MOL    C7448630   8.931   8.155   5.739  0.4265 -0.0390 -0.4547
  399MOL   Cl7548631   8.758   8.203   5.689 -0.2429  0.0799  0.1641
  399MOL   Cl7648632   8.969   8.019   5.625 -0.0519  0.1298  0.1113
  399MOL    C7748633   9.020   8.277   5.714 -0.3346  0.6165  0.0367
  399MOL    H7848634   9.012   8.299   5.607  0.1509 -0.3985 -0.2206
  399MOL    H7948635   8.984   8.370   5.758 -0.7384  0.7512 -0.5604
  399MOL    C8048636   9.170   8.279   5.754 -0.6070  0.0570  0.9109
  399MOL   Cl8148637   0.059   8.116   5.772  0.1356  0.1806  0.2704
  399MOL   Cl8248638   9.174   8.332   5.922  0.1309 -0.0830  0.4294
  399MOL    C8348639   0.074   8.380   5.679 -0.0003 -0.4932  0.2308
  399MOL    H8448640   0.009   8.468   5.678  0.4124 -0.1917 -0.0514
  399MOL    H8548641   0.162   8.405   5.739 -1.4566  1.5349  1.5998
  399MOL    C8648642   0.135   8.340   5.547  0.7880 -0.4638 -0.1531
  399MOL   Cl8748643   0.032   8.230   5.457  0.3617  0.0281  0.3556
  399MOL   Cl8848644   0.287   8.248   5.562 -0.2093 -0.1952 -0.0563
  399MOL    C8948645   0.186   8.460   5.449  0.7714 -0.3272 -0.5393
  399MOL    H9048646   0.239   8.526   5.518 -1.9939 -0.8025  2.1188
  399MOL    H9148647   0.263   8.420   5.382  1.4357 -4.6482  2.6297
  399MOL    C9248648   0.084   8.529   5.362 -0.3655 -0.6343  0.1662
  399MOL   Cl9348649   0.145   8.682   5.310 -0.1237  0.2577  0.1175
  399MOL   Cl9448650   9.112   8.569   5.460  0.1952 -0.2170 -0.0538
  399MOL    C9548651   0.034   8.450   5.239  0.0767  0.4252 -0.1677
  399MOL    H9648652   0.094   8.362   5.214  0.6627  1.2905 -1.8322
  399MOL    H9748653   9.135   8.386   5.276 -1.8560  2.5714 -0.5215
  399MOL    C9848654   9.155   8.507   5.109  0.7007  0.2252 -0.4076
  399MOL   Cl9948655   9.095   8.367   5.025  0.1137 -0.4190 -0.1622
  399MOL  Cl10048656   0.105   8.579   5.013 -0.1819  0.3830  0.1508
  399MOL   C10148657   9.040   8.615   5.125 -0.5955  0.1661  0.5194
  399MOL   H10248658   8.979   8.595   5.213 -1.5826 -1.4967 -0.5044
  399MOL   H10348659   9.087   8.708   5.158 -2.2064  1.2575 -0.2076
  399MOL   C10448660   8.937   8.641   5.013 -0.7322 -0.0220 -0.4939
  399MOL  Cl10548661   8.811   8.510   5.002 -0.3424  0.2632 -0.1358
  399MOL  Cl10648662   9.007   8.665   4.845 -0.2432  0.1231  0.0369
  399MOL   C10748663   8.860   8.771   5.038  0.2627 -0.1330  1.0258
  399MOL   H10848664   8.931   8.849   5.011  1.8530  0.2113  5.8137
  399MOL   H10948665   8.779   8.775   4.965 -0.0758  0.0686  1.4085
  399MOL   C11048666   8.800   8.810   5.176 -0.5406 -0.2200 -0.3041
  399MOL  Cl11148667   8.930   8.860   5.289 -0.1294  0.3537  0.1129
  399MOL  Cl11248668   8.709   8.673   5.248  0.1123 -0.7134 -0.1654
  399MOL   C11348669   8.719   8.936   5.169  0.3067  0.5735  0.6444
  399MOL   H11448670   8.786   9.012   5.130  0.4109 -0.5811 -1.5595
  399MOL   H11548671   8.657   8.919   5.080  0.4810  0.8711  0.4674
  399MOL   C11648672   8.624   8.984   5.283 -0.1083  0.0729 -0.3519
  399MOL  Cl11748673   8.468   8.898   5.256  0.0505  0.5055  0.3469
  399MOL  Cl11848674   8.604   9.159   5.282  0.4416 -0.0475  0.0247
  399MOL   C11948675   8.666   8.943   5.421 -0.5669 -0.5038 -0.1204
  399MOL   H12048676   8.764   8.977   5.457 -1.1070  0.7340  0.2128
  399MOL   H12148677   8.601   8.982   5.499  0.1569  0.4145  0.0498
  399MOL   H12248678   8.667   8.835   5.431  0.3312 -0.6488 -1.6504
  400MOL     C148679   4.198   0.671   5.916  0.7905  0.3533 -0.3020
  400MOL    Cl248680   4.124   0.559   5.807 -0.1441 -0.1518  0.1069
  400MOL    Cl348681   4.361   0.613   5.932  0.5984  0.3555  0.0113
  400MOL     C448682   4.188   0.818   5.870 -0.2167  0.0343  0.2381
  400MOL     H548683   4.209   0.824   5.763  0.9356  2.8905  0.5851
  400MOL     H648684   4.084   0.848   5.871 -0.2264  0.0045  1.4131
  400MOL     H748685   4.150   0.645   6.011 -1.0461  1.1233 -0.9988
  400MOL     C848686   4.275   0.928   5.941 -0.2135 -0.0208  0.3244
  400MOL    Cl948687   4.279   0.887   6.116 -0.1182 -0.0209 -0.2203
  400MOL   Cl1048688   4.190   1.087   5.918  0.1848 -0.1529 -0.1164
  400MOL    C1148689   4.426   0.947   5.885  0.5038  0.0917 -0.1526
  400MOL    H1248690   4.487   0.857   5.879  1.9175  1.0504 -0.3535
  400MOL    H1348691   4.416   0.967   5.778 -0.6956  1.7941  0.2798
  400MOL    C1448692   4.533   1.047   5.940  0.7922 -0.6394 -0.0821
  400MOL   Cl1548693   4.563   1.016   6.108  0.1852 -0.1978  0.2563
  400MOL   Cl1648694   4.464   1.212   5.923  0.4823  0.1840  0.2579
  400MOL    C1748695   4.665   1.033   5.859 -0.1210 -0.0893 -0.4338
  400MOL    H1848696   4.707   0.940   5.897 -1.9478  0.5425  3.4110
  400MOL    H1948697   4.650   1.018   5.752  2.1670 -0.9098 -0.6516
  400MOL    C2048698   4.780   1.140   5.860  0.3415 -0.2281 -0.2886
  400MOL   Cl2148699   4.743   1.254   5.730 -0.4421  0.3713  0.1397
  400MOL   Cl2248700   4.930   1.051   5.807  0.0105 -0.3825 -0.2156
  400MOL    C2348701   4.804   1.215   6.003  0.6934  0.2149 -0.4476
  400MOL    H2448702   4.710   1.265   6.027  0.8337  0.2068  0.1187
  400MOL    H2548703   4.801   1.129   6.070 -1.6219  0.8459  0.3255
  400MOL    C2648704   4.920   1.310   6.039  0.4070 -0.6776  0.5847
  400MOL   Cl2748705   4.933   1.443   5.926  0.1980 -0.2799  0.2987
  400MOL   Cl2848706   5.074   1.224   6.029 -0.1200  0.3519 -0.2498
  400MOL    C2948707   4.899   1.367   6.180  0.5916  0.1363 -0.1604
  400MOL    H3048708   4.807   1.425   6.182 -0.0271 -0.7933 -1.2129
  400MOL    H3148709   4.876   1.282   6.245  1.2025  0.9292  1.1335
  400MOL    C3248710   5.026   1.444   6.252  0.3942 -0.8039  0.3007
  400MOL   Cl3348711   5.107   1.555   6.143 -0.0956 -0.3274 -0.0074
  400MOL   Cl3448712   5.155   1.325   6.312 -0.0282 -0.2667  0.1844
  400MOL    C3548713   4.992   1.533   6.380 -0.5267  0.5362 -0.3689
  400MOL    H3648714   5.083   1.561   6.433 -0.3180 -0.7386 -0.0333
  400MOL    H3748715   4.940   1.622   6.347 -0.0003  0.5145 -1.2882
  400MOL    C3848716   4.895   1.476   6.483  0.1872 -0.6055 -0.1538
  400MOL   Cl3948717   4.930   1.303   6.512  0.1116  0.2272 -0.0419
  400MOL   Cl4048718   4.723   1.485   6.418  0.2057  0.0017 -0.2921
  400MOL    C4148719   4.909   1.557   6.621 -0.4359 -0.3606  0.9284
  400MOL    H4248720   4.874   1.487   6.697 -0.8702 -1.8078 -0.5895
  400MOL    H4348721   5.016   1.569   6.637 -0.3335  1.0218 -0.6771
  400MOL    C4448722   4.845   1.699   6.645 -0.1336 -0.1412 -0.9033
  400MOL   Cl4548723   4.887   1.807   6.507  0.2219  0.1259 -0.4090
  400MOL   Cl4648724   4.916   1.769   6.787  0.1297 -0.1485  0.0005
  400MOL    C4748725   4.689   1.714   6.649  0.1588  0.0735 -0.4956
  400MOL    H4848726   4.678   1.820   6.671 -1.0426 -0.5289  1.9840
  400MOL    H4948727   4.657   1.692   6.547  0.0356 -0.9270 -0.2416
  400MOL    C5048728   4.602   1.634   6.746 -0.1430  0.1799 -0.0315
  400MOL   Cl5148729   4.667   1.627   6.905  0.1629  0.1486 -0.1821
  400MOL   Cl5248730   4.585   1.464   6.696 -0.2364  0.1245 -0.0071
  400MOL    C5348731   4.453   1.673   6.748 -0.2490  0.5640  0.6575
  400MOL    H5448732   4.407   1.631   6.658  0.3388  0.2471  0.4986
  400MOL    H5548733   4.410   1.608   6.825 -1.5318 -2.2853 -2.3224
  400MOL    C5648734   4.402   1.811   6.781 -1.2980  0.1784  0.4612
  400MOL   Cl5748735   4.223   1.817   6.780  0.0003  0.3009  0.1539
  400MOL   Cl5848736   4.454   1.939   6.668  0.3280  0.0104  0.0222
  400MOL    C5948737   4.455   1.843   6.925 -0.1080  0.0396  0.0670
  400MOL    H6048738   4.448   1.755   6.989 -0.2994  1.9935  2.8552
  400MOL    H6148739   4.563   1.858   6.917 -0.2514  2.3003  1.8294
  400MOL    C6248740   4.398   1.956   7.018 -0.4766 -0.4763  0.1218
  400MOL   Cl6348741   4.518   1.975   7.150 -0.4836  0.0354 -0.4098
  400MOL   Cl6448742   4.250   1.890   7.089  0.4334 -0.6248 -0.4389
  400MOL    C6548743   4.377   2.096   6.955  0.4425 -0.0236  0.8512
  400MOL    H6648744   4.473   2.146   6.941  0.2423  0.1246 -0.0067
  400MOL    H6748745   4.344   2.087   6.851  1.2152  1.2646  0.4836
  400MOL    C6848746   4.273   2.199   7.023  0.3595 -0.1242  0.5484
  400MOL   Cl6948747   4.113   2.159   6.956 -0.0902  0.3259  0.3235
  400MOL   Cl7048748   4.331   2.356   6.953  0.5614  0.1565  0.1258
  400MOL    C7148749   4.280   2.200   7.173 -0.0413  0.3334 -0.6432
  400MOL    H7248750   4.278   2.104   7.225 -2.4615  0.8345  0.2850
  400MOL    H7348751   4.382   2.234   7.190  0.0175  0.1353 -0.5978
  400MOL    C7448752   4.184   2.291   7.257  0.3057  0.1896  0.2024
  400MOL   Cl7548753   4.006   2.254   7.238  0.2982  0.0139 -0.2604
  400MOL   Cl7648754   4.219   2.463   7.216 -0.1460  0.2425  0.3157
  400MOL    C7748755   4.196   2.274   7.416  0.1708  0.0853  0.1065
  400MOL    H7848756   4.128   2.346   7.462  1.1393  1.1288 -0.0621
  400MOL    H7948757   4.160   2.173   7.438 -0.4977  0.7126  2.0228
  400MOL    C8048758   4.324   2.282   7.500 -0.1580 -0.6822  1.0610
  400MOL   Cl8148759   4.422   2.148   7.453  0.2837 -0.3322  0.2217
  400MOL   Cl8248760   4.279   2.255   7.667 -0.6052 -0.0369 -0.2855
  400MOL    C8348761   4.395   2.424   7.479 -0.0530 -0.1608 -0.2345
  400MOL    H8448762   4.445   2.442   7.384 -0.7299 -1.0120 -0.7610
  400MOL    H8548763   4.313   2.497   7.480  1.0242  1.0732  2.7344
  400MOL    C8648764   4.508   2.473   7.579  0.3722  0.3431 -0.3242
  400MOL   Cl8748765   4.434   2.515   7.746  0.0883  0.4253 -0.0181
  400MOL   Cl8848766   4.559   2.625   7.506 -0.3669  0.1460 -0.2534
  400MOL    C8948767   4.633   2.388   7.578 -0.3549 -0.4226  0.6771
  400MOL    H9048768   4.601   2.287   7.603 -0.7362 -0.8674 -1.4943
  400MOL    H9148769   4.661   2.376   7.473 -1.7135 -0.5810  0.3284
  400MOL    C9248770   4.761   2.406   7.669 -0.0681  0.4035  0.1641
  400MOL   Cl9348771   4.851   2.262   7.624  0.2739 -0.1249 -0.0025
  400MOL   Cl9448772   4.723   2.399   7.846 -0.2564  0.5778 -0.0905
  400MOL    C9548773   4.844   2.531   7.640 -0.0446  0.0127 -0.0560
  400MOL    H9648774   4.837   2.563   7.536  1.8091  0.0354 -0.1830
  400MOL    H9748775   4.782   2.607   7.688  0.9931  0.0439  1.2665
  400MOL    C9848776   4.988   2.553   7.681  0.0266  0.3487  0.0931
  400MOL   Cl9948777   5.012   2.729   7.682  0.3521 -0.4019  0.1509
  400MOL  Cl10048778   5.092   2.478   7.556 -0.0496  0.1538 -0.0846
  400MOL   C10148779   5.020   2.512   7.824  0.0490  0.3919  0.1672
  400MOL   H10248780   4.936   2.544   7.885 -2.0041 -1.0792 -1.8438
  400MOL   H10348781   5.011   2.404   7.840  0.5759  0.6213  2.2612
  400MOL   C10448782   5.158   2.551   7.894  0.4857 -0.6228  0.2144
  400MOL  Cl10548783   5.195   2.429   8.018 -0.0437 -0.0271  0.2773
  400MOL  Cl10648784   5.111   2.699   7.976  0.2154 -0.4728  0.1447
  400MOL   C10748785   5.283   2.572   7.797 -0.1673 -0.5176  0.0420
  400MOL   H10848786   5.304   2.494   7.724 -0.5801 -0.3647 -0.2423
  400MOL   H10948787   5.270   2.664   7.740 -1.5095  0.6923  2.2382
  400MOL   C11048788   5.425   2.601   7.860 -0.2288 -0.5801  0.2594
  400MOL  Cl11148789   5.549   2.652   7.739  0.4981  0.1925 -0.3644
  400MOL  Cl11248790   5.484   2.438   7.906  0.0611 -0.4940  0.1902
  400MOL   C11348791   5.427   2.692   7.985  0.0511  0.1518 -0.1513
  400MOL   H11448792   5.366   2.781   7.969  0.6482  0.5769 -0.1012
  400MOL   H11548793   5.370   2.649   8.067 -0.7004 -0.0121 -0.7537
  400MOL   C11648794   5.569   2.729   8.044 -0.4699 -0.3450  0.5116
  400MOL  Cl11748795   5.549   2.760   8.216  0.3074 -0.1845  0.2198
  400MOL  Cl11848796   5.627   2.883   7.986 -0.0836 -0.3080 -0.2429
  400MOL   C11948797   5.695   2.636   8.039  0.2621  0.4194  0.3488
  400MOL   H12048798   5.784   2.675   8.089  0.9404 -0.8662  0.1826
  400MOL   H12148799   5.658   2.561   8.110  0.1112  1.6346  1.5751
  400MOL   H12248800   5.719   2.596   7.941  1.3586  0.4508  0.5934
  401MOL     C148801   8.527   1.885   7.410  0.3322  0.7020  0.0855
  401MOL    Cl248802   8.585   2.002   7.533  0.4430 -0.1036  0.0679
  401MOL    Cl348803   8.454   1.751   7.494  0.0137  0.3687 -0.2795
  401MOL     C448804   8.423   1.942   7.309  0.0592  0.6577 -0.1715
  401MOL     H548805   8.335   1.958   7.371  0.9297  1.6828  0.8192
  401MOL     H648806   8.467   2.037   7.278 -0.5492  0.3656 -2.0031
  401MOL     H748807   8.617   1.851   7.360  0.5202  0.6613  0.4468
  401MOL     C848808   8.403   1.873   7.171  0.5957 -0.2423  0.5836
  401MOL    Cl948809   8.304   1.987   7.089  0.4034 -0.1946 -0.2573
  401MOL   Cl1048810   8.310   1.728   7.177  0.3219  0.1150 -0.2443
  401MOL    C1148811   8.535   1.861   7.093 -0.0615 -0.8255 -0.5032
  401MOL    H1248812   8.602   1.941   7.122 -2.0661  1.6668 -2.4163
  401MOL    H1348813   8.586   1.773   7.132 -1.2403 -1.6008 -0.6524
  401MOL    C1448814   8.543   1.855   6.931  0.1412  0.3982  0.0581
  401MOL   Cl1548815   8.713   1.810   6.900 -0.3200  0.0001  0.4523
  401MOL   Cl1648816   8.522   2.029   6.878  0.2487  0.0611  0.0041
  401MOL    C1748817   8.445   1.756   6.861  0.4708  0.1539  0.1991
  401MOL    H1848818   8.434   1.671   6.928 -4.3010  1.5233  1.3103
  401MOL    H1948819   8.349   1.807   6.865  1.0587  1.2049  1.6009
  401MOL    C2048820   8.456   1.713   6.711  0.0308  0.8540  0.1512
  401MOL   Cl2148821   8.297   1.664   6.663 -0.2002 -0.1513  0.0302
  401MOL   Cl2248822   8.556   1.567   6.700 -0.0695 -0.2088  0.1476
  401MOL    C2348823   8.510   1.817   6.607 -0.1372 -0.1026 -0.5307
  401MOL    H2448824   8.425   1.883   6.591 -0.9557 -1.0023  0.0826
  401MOL    H2548825   8.579   1.887   6.655 -4.0566  2.6685  1.3397
  401MOL    C2648826   8.567   1.779   6.466  0.1921  0.4860  0.2641
  401MOL   Cl2748827   8.732   1.722   6.479 -0.1881 -0.2721 -0.0849
  401MOL   Cl2848828   8.587   1.930   6.373  0.0109  0.1420  0.3506
  401MOL    C2948829   8.483   1.668   6.394  0.4685  0.1155 -0.8938
  401MOL    H3048830   8.506   1.572   6.440  0.8161  0.6703  0.0989
  401MOL    H3148831   8.378   1.684   6.415  0.1744 -0.1266 -2.1275
  401MOL    C3248832   8.498   1.636   6.241  0.3319  0.3957  0.1085
  401MOL   Cl3348833   8.454   1.463   6.219 -0.2855  0.0344 -0.1061
  401MOL   Cl3448834   8.661   1.649   6.176 -0.0727  0.2958 -0.0645
  401MOL    C3548835   8.418   1.733   6.150  0.1845  0.7429 -0.0779
  401MOL    H3648836   8.457   1.835   6.152 -0.8181  1.2387 -3.3254
  401MOL    H3748837   8.432   1.693   6.050 -2.2949  2.4723 -1.1615
  401MOL    C3848838   8.265   1.765   6.158  0.1449 -0.3600  0.4296
  401MOL   Cl3948839   8.226   1.861   6.020  0.2386 -0.0802  0.4088
  401MOL   Cl4048840   8.239   1.873   6.297  0.2133  0.1016  0.0785
  401MOL    C4148841   8.179   1.637   6.174  0.0356 -0.2764 -0.4239
  401MOL    H4248842   8.187   1.578   6.082  0.4292 -1.4228  0.3278
  401MOL    H4348843   8.212   1.578   6.260 -1.9220  1.7243  1.7712
  401MOL    C4448844   8.025   1.633   6.208 -0.4432  0.4999  0.1282
  401MOL   Cl4548845   7.979   1.467   6.208  0.2147  0.4754  0.3715
  401MOL   Cl4648846   7.928   1.708   6.076  0.1543  0.4640  0.2735
  401MOL    C4748847   7.995   1.693   6.349  0.2478  0.1133  0.0304
  401MOL    H4848848   8.077   1.665   6.416  0.7289 -0.4872 -0.8058
  401MOL    H4948849   7.996   1.801   6.336  0.3238  0.2290  0.9386
  401MOL    C5048850   7.875   1.646   6.439 -0.0584 -0.0973  0.8675
  401MOL   Cl5148851   7.721   1.639   6.338 -0.0546 -0.2367 -0.2088
  401MOL   Cl5248852   7.833   1.780   6.547 -0.0062  0.0886 -0.1141
  401MOL    C5348853   7.913   1.533   6.529  0.6661  0.4496  0.2381
  401MOL    H5448854   7.979   1.470   6.470 -0.4705 -1.2676  0.7393
  401MOL    H5548855   7.975   1.567   6.612  0.8240 -0.1544  0.3761
  401MOL    C5648856   7.798   1.443   6.580 -0.5553  0.0266  0.4614
  401MOL   Cl5748857   7.669   1.528   6.673  0.2520 -0.1306 -0.1725
  401MOL   Cl5848858   7.867   1.347   6.712  0.2471  0.2457 -0.1126
  401MOL    C5948859   7.733   1.346   6.480  0.0394 -0.0326 -0.4644
  401MOL    H6048860   7.729   1.400   6.385  1.5018  1.0248  0.0630
  401MOL    H6148861   7.811   1.273   6.461  0.9567  0.9845 -0.6656
  401MOL    C6248862   7.594   1.275   6.506  0.4194  0.0076  0.1005
  401MOL   Cl6348863   7.463   1.399   6.485 -0.1669 -0.0746 -0.0256
  401MOL   Cl6448864   7.590   1.188   6.664  0.1525  0.0027  0.0501
  401MOL    C6548865   7.547   1.175   6.396 -0.3589  0.2894 -0.5165
  401MOL    H6648866   7.457   1.123   6.430  0.8055 -0.4223  1.5594
  401MOL    H6748867   7.521   1.236   6.309  3.4125 -0.4329 -2.2583
  401MOL    C6848868   7.644   1.067   6.333 -0.8527 -0.3137 -0.9671
  401MOL   Cl6948869   7.762   1.159   6.223  0.0806  0.0167  0.0718
  401MOL   Cl7048870   7.526   0.985   6.219  0.2270  0.3415 -0.2627
  401MOL    C7148871   7.705   0.962   6.430 -0.8270 -0.4177 -0.6688
  401MOL    H7248872   7.791   1.011   6.476  0.9821 -0.6400 -3.6572
  401MOL    H7348873   7.636   0.954   6.514 -1.0789  0.6227 -0.7630
  401MOL    C7448874   7.743   0.813   6.391 -0.2992  0.1528 -0.5669
  401MOL   Cl7548875   7.819   0.830   6.236  0.1928  0.1341 -0.3119
  401MOL   Cl7648876   7.588   0.727   6.386  0.2342  0.2389  0.0223
  401MOL    C7748877   7.836   0.738   6.491 -0.0437  0.3008 -0.3658
  401MOL    H7848878   7.934   0.781   6.472  0.8907 -1.8421 -0.5216
  401MOL    H7948879   7.808   0.762   6.593  1.4413 -1.1098  0.3895
  401MOL    C8048880   7.861   0.588   6.495  0.2946 -0.0451 -0.5991
  401MOL   Cl8148881   7.747   0.517   6.611  0.0036 -0.0821  0.1738
  401MOL   Cl8248882   8.012   0.581   6.581 -0.1306  0.0234 -0.3110
  401MOL    C8348883   7.870   0.516   6.355  0.7194 -0.2465 -0.1129
  401MOL    H8448884   7.782   0.537   6.294  0.4020  0.6097  0.6181
  401MOL    H8548885   7.948   0.563   6.294  0.2555  1.1736  0.3586
  401MOL    C8648886   7.912   0.367   6.344  1.1184  0.7755  0.0958
  401MOL   Cl8748887   7.810   0.264   6.457  0.0016 -0.0914 -0.3972
  401MOL   Cl8848888   8.081   0.344   6.386 -0.3838  0.0815 -0.1430
  401MOL    C8948889   7.896   0.303   6.200  0.0009  0.0194  0.1293
  401MOL    H9048890   7.924   0.199   6.218  0.7093  0.2453  0.3548
  401MOL    H9148891   7.789   0.297   6.180  0.0306 -1.3655  0.3511
  401MOL    C9248892   7.965   0.351   6.070  0.1372  0.3952  0.5453
  401MOL   Cl9348893   8.140   0.322   6.075 -0.1022  0.1288 -0.0636
  401MOL   Cl9448894   7.935   0.526   6.044 -0.3337 -0.0226  0.3040
  401MOL    C9548895   7.913   0.262   5.953 -0.2993 -0.3361  0.0908
  401MOL    H9648896   7.976   0.177   5.976  1.1003  0.6418 -0.0243
  401MOL    H9748897   7.808   0.241   5.969 -0.5574  1.9383  1.6397
  401MOL    C9848898   7.938   0.297   5.811  0.6238 -0.2846 -0.3826
  401MOL   Cl9948899   8.080   0.393   5.780  0.5067 -0.0761  0.1745
  401MOL  Cl10048900   7.804   0.407   5.773  0.0453 -0.1425 -0.2767
  401MOL   C10148901   7.925   0.175   5.711  0.5199  0.9803 -0.7374
  401MOL   H10248902   7.826   0.131   5.717  0.1491  1.2125 -3.9492
  401MOL   H10348903   7.933   0.222   5.612  1.1247  1.3172 -0.5353
  401MOL   C10448904   8.032   0.061   5.719 -0.2925 -0.0343 -0.2580
  401MOL  Cl10548905   8.006   9.146   5.565  0.4427  0.0987 -0.1541
  401MOL  Cl10648906   7.983   9.135   5.851 -0.1636 -0.0787 -0.5025
  401MOL   C10748907   8.181   0.107   5.735 -0.4949 -1.0601 -0.1273
  401MOL   H10848908   8.198   0.191   5.668 -1.1504  0.4391  1.5287
  401MOL   H10948909   8.190   0.163   5.828 -1.2086 -0.8877 -0.1577
  401MOL   C11048910   8.310   0.018   5.728  0.2611 -0.1433 -0.1126
  401MOL  Cl11148911   8.312   9.115   5.568  0.0032 -0.5046 -0.0684
  401MOL  Cl11248912   8.304   9.066   5.848 -0.1882  0.4084 -0.0220
  401MOL   C11348913   8.451   0.087   5.724  0.3380  0.2623 -0.1360
  401MOL   H11448914   8.519   0.005   5.700 -0.0088 -0.2819  0.6959
  401MOL   H11548915   8.453   0.143   5.631  0.5809 -1.6205 -1.2724
  401MOL   C11648916   8.493   0.188   5.837  0.1581  0.7171 -0.6637
  401MOL  Cl11748917   8.420   0.345   5.813 -0.2501  0.1578  0.5447
  401MOL  Cl11848918   8.669   0.214   5.809 -0.3353 -0.0159  0.0780
  401MOL   C11948919   8.473   0.140   5.980  0.3142 -0.0837  0.6540
  401MOL   H12048920   8.489   0.228   6.041  3.5317 -1.6701  2.2492
  401MOL   H12148921   8.376   0.099   6.007 -0.6233  1.5536 -0.2034
  401MOL   H12248922   8.540   0.056   6.001  0.5326 -0.1575 -0.2900
  402MOL     C148923   5.803   8.164   2.463  0.3012  0.1780 -0.1511
  402MOL    Cl248924   5.957   8.069   2.480  0.2106 -0.4847 -0.0883
  402MOL    Cl348925   5.744   8.151   2.299  0.3684 -0.1272 -0.3003
  402MOL     C448926   5.701   8.122   2.568  0.1182 -0.2073  0.1015
  402MOL     H548927   5.643   8.038   2.527 -1.7469  1.3578 -0.5646
  402MOL     H648928   5.753   8.082   2.654  1.6509 -1.1369 -1.2262
  402MOL     H748929   5.819   8.269   2.485  1.1301  0.5863 -2.6331
  402MOL     C848930   5.592   8.229   2.620  0.4380 -0.3550  0.1252
  402MOL    Cl948931   5.496   8.292   2.481 -0.3755 -0.1871 -0.8107
  402MOL   Cl1048932   5.672   8.363   2.689 -0.1733  0.2496  0.3451
  402MOL    C1148933   5.500   8.179   2.735 -0.6910  0.1215 -0.0881
  402MOL    H1248934   5.564   8.168   2.823 -0.6739 -1.6080 -0.3076
  402MOL    H1348935   5.439   8.268   2.748 -0.3874  0.2268  0.6744
  402MOL    C1448936   5.417   8.052   2.721 -0.8820  0.7457  0.2404
  402MOL   Cl1548937   5.523   7.911   2.755  0.0037  0.3436 -0.1653
  402MOL   Cl1648938   5.356   8.041   2.552  0.2012 -0.0420  0.3248
  402MOL    C1748939   5.299   8.042   2.821 -0.4920 -0.6640 -0.0073
  402MOL    H1848940   5.212   8.091   2.777  1.3058  1.9594 -0.7947
  402MOL    H1948941   5.273   7.936   2.819 -1.6841 -0.3718 -1.5574
  402MOL    C2048942   5.315   8.073   2.976 -0.1421  0.2194 -0.4469
  402MOL   Cl2148943   5.365   8.241   3.011  0.2897  0.0334  0.2576
  402MOL   Cl2248944   5.447   7.970   3.029  0.3166  0.1655  0.3829
  402MOL    C2348945   5.186   8.047   3.066  0.1064 -1.1295  0.1023
  402MOL    H2448946   5.221   8.059   3.169  0.5596  0.2541 -0.2156
  402MOL    H2548947   5.116   8.127   3.040  0.8707 -0.1223  1.1184
  402MOL    C2648948   5.105   7.916   3.051  0.1558 -0.1173 -0.3375
  402MOL   Cl2748949   5.199   7.767   3.058  0.5044 -0.0901 -0.6771
  402MOL   Cl2848950   5.030   7.904   2.889 -0.4470  0.1745 -0.4239
  402MOL    C2948951   5.002   7.893   3.168 -0.6213 -0.4885  0.2950
  402MOL    H3048952   4.984   7.786   3.165  2.0563 -0.9690 -0.3707
  402MOL    H3148953   5.059   7.888   3.261  0.2862  1.3251 -0.1451
  402MOL    C3248954   4.875   7.974   3.184 -0.0236 -0.4770 -0.5783
  402MOL   Cl3348955   4.755   7.949   3.043 -0.3372 -0.0338 -0.2502
  402MOL   Cl3448956   4.895   8.152   3.188  0.4276  0.1162  0.1397
  402MOL    C3548957   4.816   7.950   3.327 -0.3734  0.1907  0.2323
  402MOL    H3648958   4.895   7.959   3.402  1.8918  0.2725 -2.0807
  402MOL    H3748959   4.738   8.025   3.344 -0.3016  0.3423 -0.0934
  402MOL    C3848960   4.744   7.819   3.370 -0.2153 -0.1169  0.2510
  402MOL   Cl3948961   4.852   7.681   3.337  0.3130  0.1951  0.5631
  402MOL   Cl4048962   4.597   7.792   3.276  0.0769 -0.2097 -0.6624
  402MOL    C4148963   4.692   7.825   3.526 -0.5471 -0.0278  0.3467
  402MOL    H4248964   4.605   7.891   3.528 -1.0586 -0.6748 -0.1765
  402MOL    H4348965   4.642   7.733   3.557 -0.2572 -0.8121 -1.4330
  402MOL    C4448966   4.790   7.864   3.643  0.1148 -0.2434 -0.6506
  402MOL   Cl4548967   4.845   8.030   3.626  0.0783 -0.1093  0.1730
  402MOL   Cl4648968   4.921   7.751   3.632 -0.1662 -0.4863 -0.3624
  402MOL    C4748969   4.698   7.838   3.770 -0.1884  0.0592  0.4358
  402MOL    H4848970   4.628   7.921   3.770 -1.2524 -0.8244  0.4435
  402MOL    H4948971   4.643   7.745   3.755 -0.6379  0.3969 -0.0283
  402MOL    C5048972   4.754   7.816   3.911 -0.1052  0.2752 -0.4548
  402MOL   Cl5148973   4.892   7.919   3.933  0.0496  0.4116  0.4901
  402MOL   Cl5248974   4.825   7.650   3.911  0.0792 -0.1128 -0.0693
  402MOL    C5348975   4.643   7.841   4.020 -0.4374  0.5634  0.0668
  402MOL    H5448976   4.608   7.943   4.003  0.8272  0.9456 -0.3171
  402MOL    H5548977   4.562   7.773   3.992 -0.4777  0.6475 -0.0197
  402MOL    C5648978   4.661   7.822   4.174  0.4421 -0.8841  0.1473
  402MOL   Cl5748979   4.517   7.895   4.244 -0.3137 -0.0242  0.1368
  402MOL   Cl5848980   4.803   7.917   4.235  0.0205 -0.0516 -0.0400
  402MOL    C5948981   4.675   7.674   4.213  0.0801  0.0687 -0.2173
  402MOL    H6048982   4.600   7.610   4.166  0.8548 -0.5681 -0.6134
  402MOL    H6148983   4.770   7.635   4.177 -0.8191 -1.9561 -0.5159
  402MOL    C6248984   4.689   7.631   4.365 -0.8015  0.6686 -0.6568
  402MOL   Cl6348985   4.863   7.655   4.416  0.0389  0.0258  0.2074
  402MOL   Cl6448986   4.687   7.454   4.370 -0.3739  0.1509  0.0600
  402MOL    C6548987   4.591   7.698   4.467 -0.4590  0.4124 -0.2959
  402MOL    H6648988   4.624   7.801   4.477 -0.7578  0.6127 -1.2870
  402MOL    H6748989   4.494   7.714   4.419 -1.7683 -0.9852  1.8006
  402MOL    C6848990   4.571   7.640   4.611  0.3330  0.6476 -0.0456
  402MOL   Cl6948991   4.470   7.486   4.612 -0.2858  0.3436 -0.0173
  402MOL   Cl7048992   4.488   7.758   4.708 -0.3674 -0.3819 -0.3891
  402MOL    C7148993   4.706   7.602   4.690 -0.0040 -0.1912 -0.0077
  402MOL    H7248994   4.734   7.508   4.644  1.6919  0.8719 -1.2379
  402MOL    H7348995   4.784   7.677   4.677  0.9055 -0.3751  3.7436
  402MOL    C7448996   4.701   7.579   4.845  0.2824 -0.2233 -0.0414
  402MOL   Cl7548997   4.781   7.731   4.917  0.1289  0.0849  0.1335
  402MOL   Cl7648998   4.828   7.451   4.864  0.5537  0.3416  0.1022
  402MOL    C7748999   4.568   7.529   4.912 -0.8282 -0.1304  0.4785
  402MOL    H7849000   4.475   7.573   4.877 -0.5217  0.2063  0.0737
  402MOL    H7949001   4.571   7.423   4.888  1.1090 -0.6672  2.7979
  402MOL    C8049002   4.548   7.533   5.068  0.2361 -0.1619  0.4201
  402MOL   Cl8149003   4.518   7.700   5.117  0.0958  0.0111  0.1211
  402MOL   Cl8249004   4.688   7.481   5.157  0.0390 -0.1033 -0.3670
  402MOL    C8349005   4.432   7.442   5.106  0.1517  0.3580 -0.1326
  402MOL    H8449006   4.352   7.449   5.033 -0.4133 -1.5374  0.2879
  402MOL    H8549007   4.485   7.347   5.097  1.4921  1.1284 -0.4920
  402MOL    C8649008   4.353   7.445   5.235 -0.3598 -0.5403  0.0137
  402MOL   Cl8749009   4.266   7.286   5.241  0.3037  0.1380  0.0174
  402MOL   Cl8849010   4.238   7.578   5.217 -0.0938  0.0403 -0.5841
  402MOL    C8949011   4.445   7.458   5.360 -0.7189 -0.5655 -0.2045
  402MOL    H9049012   4.491   7.360   5.374 -0.0798 -0.4778 -1.5674
  402MOL    H9149013   4.529   7.525   5.342  1.6329 -3.1514  0.6788
  402MOL    C9249014   4.396   7.513   5.495  0.0500 -0.3566  0.0193
  402MOL   Cl9349015   4.381   7.691   5.475  0.1505  0.0257  0.3967
  402MOL   Cl9449016   4.523   7.475   5.615  0.0974  0.1082 -0.0381
  402MOL    C9549017   4.256   7.459   5.549  0.2217  0.8820  0.1455
  402MOL    H9649018   4.194   7.473   5.461 -0.9619 -2.1141  0.4029
  402MOL    H9749019   4.275   7.353   5.567  2.6269  1.2829  0.0788
  402MOL    C9849020   4.182   7.525   5.668 -0.1123 -1.2271 -0.4213
  402MOL   Cl9949021   4.286   7.615   5.788  0.1333  0.3551  0.2952
  402MOL  Cl10049022   4.100   7.395   5.760 -0.3489  0.0679  0.2058
  402MOL   C10149023   4.071   7.624   5.617  0.0281  0.4190  0.0993
  402MOL   H10249024   4.107   7.684   5.534 -1.7000 -1.1282 -1.8282
  402MOL   H10349025   3.997   7.559   5.570  0.5551 -0.4386  0.4288
  402MOL   C10449026   3.999   7.730   5.712  0.4835  0.3381 -0.3085
  402MOL  Cl10549027   3.858   7.804   5.637 -0.4348  0.2968 -0.2442
  402MOL  Cl10649028   4.118   7.863   5.717 -0.0220  0.1446  0.1865
  402MOL   C10749029   3.960   7.665   5.845  0.1799  0.2853  0.0662
  402MOL   H10849030   3.888   7.589   5.814 -0.8219  1.6515 -1.0526
  402MOL   H10949031   4.044   7.612   5.889 -1.7578 -2.4185  0.6575
  402MOL   C11049032   3.917   7.741   5.964  0.0078 -0.0776 -0.4804
  402MOL  Cl11149033   3.767   7.827   5.930 -0.2824  0.1801 -0.3501
  402MOL  Cl11249034   4.038   7.861   6.018  0.1928 -0.0381  0.0879
  402MOL   C11349035   3.881   7.656   6.085  0.0121 -0.2191  0.1370
  402MOL   H11449036   3.839   7.717   6.166  2.2300  0.1364  1.0514
  402MOL   H11549037   3.794   7.595   6.061 -0.9200  0.9323  0.5288
  402MOL   C11649038   3.974   7.561   6.170 -0.6306  0.6485  0.2980
  402MOL  Cl11749039   4.126   7.641   6.226  0.1342 -0.0990 -0.3757
  402MOL  Cl11849040   4.010   7.409   6.087  0.4430 -0.0418 -0.4026
  402MOL   C11949041   3.903   7.522   6.294  0.0192  0.1516  0.2155
  402MOL   H12049042   3.870   7.607   6.355 -1.1802  0.9027 -1.4427
  402MOL   H12149043   3.819   7.458   6.268 -1.5922  3.0624 -2.1229
  402MOL   H12249044   3.976   7.468   6.354  1.5900  0.9354 -0.9475
  403MOL     C149045   2.519   2.737   8.260  0.6636 -0.2314  0.1978
  403MOL    Cl249046   2.451   2.827   8.394  0.2077  0.5008  0.0909
  403MOL    Cl349047   2.658   2.641   8.315 -0.2013 -0.1753 -0.2299
  403MOL     C449048   2.414   2.649   8.190  0.1259 -0.0167 -0.8560
  403MOL     H549049   2.458   2.559   8.147 -1.1329 -0.8283 -0.4638
  403MOL     H649050   2.353   2.608   8.271 -1.2382  1.6787 -0.9915
  403MOL     H749051   2.561   2.807   8.187 -1.6721  3.0575  1.8726
  403MOL     C849052   2.328   2.724   8.090  0.2934 -0.1063  0.4524
  403MOL    Cl949053   2.434   2.759   7.950 -0.3626  0.0238  0.2465
  403MOL   Cl1049054   2.289   2.896   8.137 -0.1026 -0.7821 -0.1273
  403MOL    C1149055   2.211   2.643   8.039  0.6320 -0.2100  0.0746
  403MOL    H1249056   2.154   2.708   7.973 -0.9913 -0.3707  1.2861
  403MOL    H1349057   2.252   2.565   7.974  0.4309  0.1769 -0.5218
  403MOL    C1449058   2.099   2.594   8.140 -0.1455  0.1823 -0.0332
  403MOL   Cl1549059   2.159   2.443   8.213  0.5243 -0.2277 -0.4052
  403MOL   Cl1649060   1.963   2.552   8.024 -0.1454  0.0278  0.1075
  403MOL    C1749061   2.058   2.691   8.255  0.3649 -0.3475  0.2593
  403MOL    H1849062   2.034   2.630   8.343  2.2850  1.0995  1.8530
  403MOL    H1949063   2.147   2.751   8.275  0.7539 -0.2696 -1.6889
  403MOL    C2049064   1.941   2.785   8.228  0.0141 -0.3377  0.2954
  403MOL   Cl2149065   1.780   2.702   8.238 -0.5075 -0.2441  0.2114
  403MOL   Cl2249066   1.950   2.854   8.067  0.8710 -0.0065  0.0245
  403MOL    C2349067   1.936   2.911   8.315  0.1899 -0.0377  0.4586
  403MOL    H2449068   2.020   2.970   8.277 -0.8034  0.7201 -0.6107
  403MOL    H2549069   1.849   2.973   8.295  0.5283 -0.4881 -2.6931
  403MOL    C2649070   1.958   2.909   8.469 -0.4568  0.3252  0.1465
  403MOL   Cl2749071   1.894   3.064   8.534  0.3175 -0.5395  0.1433
  403MOL   Cl2849072   2.140   2.905   8.490 -0.0224  0.4996 -0.2307
  403MOL    C2949073   1.867   2.807   8.541 -0.1135  0.0538  0.4491
  403MOL    H3049074   1.766   2.847   8.542 -0.1589  0.0029 -0.9397
  403MOL    H3149075   1.871   2.714   8.484 -2.2239 -0.5540  1.2583
  403MOL    C3249076   1.907   2.768   8.690  0.7043 -0.2345  0.5016
  403MOL   Cl3349077   2.027   2.630   8.664  0.4101 -0.4317 -0.1175
  403MOL   Cl3449078   1.752   2.700   8.756 -0.0079 -0.1343 -0.0346
  403MOL    C3549079   1.966   2.874   8.793  0.6026 -0.3760  0.5296
  403MOL    H3649080   2.033   2.941   8.738  0.8956 -0.1059  1.2139
  403MOL    H3749081   1.874   2.924   8.821 -0.1718 -0.2538 -2.1014
  403MOL    C3849082   2.051   2.840   8.922  0.3973 -0.1371  1.0703
  403MOL   Cl3949083   2.052   2.982   9.036 -0.3092 -0.1909 -0.0128
  403MOL   Cl4049084   2.220   2.820   8.862 -0.2940 -0.2848  0.0215
  403MOL    C4149085   1.998   2.709   8.992 -0.0544  0.7385 -1.0076
  403MOL    H4249086   1.891   2.730   8.993  0.6667  4.7117  1.2138
  403MOL    H4349087   2.018   2.621   8.931  1.9071  0.7769 -0.4278
  403MOL    C4449088   2.050   2.664   9.129  0.0957  0.8466  0.4910
  403MOL   Cl4549089   1.998   2.502   9.155  0.3538 -0.1734 -0.4093
  403MOL   Cl4649090   1.964   2.764   0.074  0.2293 -0.2796 -0.0745
  403MOL    C4749091   2.208   2.672   9.165  0.6465 -0.5513  0.3209
  403MOL    H4849092   2.251   2.763   9.125 -0.5912 -0.0094  0.2172
  403MOL    H4949093   2.221   2.679   0.093  1.4758 -0.7099  0.2368
  403MOL    C5049094   2.309   2.563   9.126 -0.2411  0.4618  0.9254
  403MOL   Cl5149095   2.469   2.656   9.108 -0.1316  0.3704  0.2641
  403MOL   Cl5249096   2.252   2.490   8.970 -0.0137 -0.0807 -0.0530
  403MOL    C5349097   2.328   2.453   0.050 -0.0020 -0.4272 -0.5154
  403MOL    H5449098   2.371   2.505   0.136  0.4732  0.0054 -1.0100
  403MOL    H5549099   2.235   2.418   0.094  0.5209 -1.5615 -0.2791
  403MOL    C5649100   2.409   2.320   0.040  0.1907  0.8852 -0.5380
  403MOL   Cl5749101   2.438   2.271   0.208  0.0201  0.2536 -0.2760
  403MOL   Cl5849102   2.571   2.357   9.145 -0.3833 -0.2211 -0.5422
  403MOL    C5949103   2.336   2.208   9.124 -0.1540  0.2708  0.0308
  403MOL    H6049104   2.243   2.183   9.175  0.1534  1.0795  1.0096
  403MOL    H6149105   2.315   2.262   9.032  0.0937  0.8185  0.2930
  403MOL    C6249106   2.408   2.071   9.080  0.8396 -0.0256 -0.5818
  403MOL   Cl6349107   2.550   2.097   8.975 -0.2775 -0.0702  0.1329
  403MOL   Cl6449108   2.284   1.991   8.977  0.1661  0.3292  0.0017
  403MOL    C6549109   2.445   1.975   0.023  0.3091  0.5008  0.5736
  403MOL    H6649110   2.526   2.031   0.069  0.8372 -0.0621  0.3369
  403MOL    H6749111   2.376   1.974   0.107 -0.5606 -3.2400 -0.1005
  403MOL    C6849112   2.488   1.827   9.177 -0.2173 -0.2398 -0.8541
  403MOL   Cl6949113   2.547   1.773   0.159 -0.0841  0.0869  0.1361
  403MOL   Cl7049114   2.622   1.810   9.065 -0.6294 -0.1590 -0.0393
  403MOL    C7149115   2.369   1.735   9.128 -0.4371  0.3257 -0.7254
  403MOL    H7249116   2.286   1.790   9.173  0.9597 -0.3628  2.8784
  403MOL    H7349117   2.356   1.750   9.021 -1.9188  0.1034 -0.5933
  403MOL    C7449118   2.356   1.585   9.154  0.0406 -0.9157 -0.1970
  403MOL   Cl7549119   2.326   1.568   0.155 -0.0348 -0.2576  0.1667
  403MOL   Cl7649120   2.512   1.508   9.119  0.1466  0.1285  0.1096
  403MOL    C7749121   2.252   1.514   9.061  0.0798 -0.1767  0.1977
  403MOL    H7849122   2.295   1.488   8.964 -0.1115 -2.1360  0.6391
  403MOL    H7949123   2.245   1.414   9.102  0.1461  0.6693  2.3641
  403MOL    C8049124   2.109   1.564   9.039  0.0141 -0.0408 -0.1911
  403MOL   Cl8149125   2.035   1.436   8.941 -0.1143 -0.3806 -0.0941
  403MOL   Cl8249126   2.109   1.705   8.928 -0.2076  0.4003 -0.4046
  403MOL    C8349127   2.024   1.585   9.171 -0.3387 -0.6341 -0.0481
  403MOL    H8449128   2.007   1.490   0.040 -0.0069 -1.4077 -1.3709
  403MOL    H8549129   2.085   1.647   0.056  0.9142  0.9033 -2.5687
  403MOL    C8649130   1.894   1.672   9.168 -0.0456  1.5933  0.1817
  403MOL   Cl8749131   1.943   1.844   9.154  0.1063 -0.0328 -0.2692
  403MOL   Cl8849132   1.819   1.645   0.154  0.3695 -0.0368  0.5026
  403MOL    C8949133   1.798   1.636   9.051  0.8555  0.0782 -0.5729
  403MOL    H9049134   1.832   1.685   8.960  0.5458  0.4554 -0.4880
  403MOL    H9149135   1.801   1.528   9.039  3.0942  0.2272 -1.6640
  403MOL    C9249136   1.644   1.667   9.063 -0.4247 -0.1186  0.0422
  403MOL   Cl9349137   1.621   1.822   9.152  0.4596  0.2273  0.3285
  403MOL   Cl9449138   1.560   1.553   9.169 -0.1561  0.2606  0.0562
  403MOL    C9549139   1.579   1.677   8.922  0.3229  0.0646 -0.6146
  403MOL    H9649140   1.600   1.780   8.895 -1.5839  1.0745  1.6394
  403MOL    H9749141   1.630   1.622   8.843 -2.4451 -0.7848 -1.8495
  403MOL    C9849142   1.427   1.656   8.906 -0.4967  0.2123  0.5917
  403MOL   Cl9949143   1.388   1.728   8.742  0.2958 -0.1580 -0.1306
  403MOL  Cl10049144   1.332   1.747   9.030 -0.0507 -0.4119  0.2039
  403MOL   C10149145   1.378   1.515   8.905  0.0029 -0.6564  0.1899
  403MOL   H10249146   1.361   1.478   9.006 -0.5882 -1.7744 -0.3116
  403MOL   H10349147   1.276   1.525   8.868  0.0804  0.6974  0.3154
  403MOL   C10449148   1.451   1.398   8.823  0.3831  0.9271  0.1586
  403MOL  Cl10549149   1.592   1.355   8.916 -0.0741 -0.5432  0.0320
  403MOL  Cl10649150   1.486   1.443   8.651  0.0890 -0.0487 -0.2950
  403MOL   C10749151   1.353   1.277   8.812 -0.8257  0.8765  0.3997
  403MOL   H10849152   1.308   1.261   8.909  0.6760  0.7011  1.0872
  403MOL   H10949153   1.275   1.314   8.745  1.2570  3.3857 -0.7740
  403MOL   C11049154   1.395   1.133   8.765 -0.3189  0.7706 -0.0964
  403MOL  Cl11149155   1.451   1.142   8.594 -0.4321  0.2895 -0.2111
  403MOL  Cl11249156   1.236   1.044   8.761  0.2383 -0.1868 -0.0583
  403MOL   C11349157   1.495   1.045   8.853  0.7205  0.3566 -0.2941
  403MOL   H11449158   1.511   0.951   8.800 -0.0481 -0.0800  0.2272
  403MOL   H11549159   1.593   1.092   8.861  1.0716 -0.2170 -1.0987
  403MOL   C11649160   1.465   0.995   8.996 -0.3542  0.4412 -0.3959
  403MOL  Cl11749161   1.357   0.857   8.990 -0.3947 -0.2201  0.2963
  403MOL  Cl11849162   1.405   1.130   9.095  0.2599  0.2483  0.1722
  403MOL   C11949163   1.588   0.949   9.065 -0.7171  0.4560 -0.4614
  403MOL   H12049164   1.566   0.916   9.166 -0.2265  1.0010 -0.1737
  403MOL   H12149165   1.642   0.869   9.014  0.1605  0.5429  0.3257
  403MOL   H12249166   1.662   1.029   9.071  0.4001 -0.5987 -0.0730
  404MOL     C149167   6.783   6.855   2.515  0.0696  0.1606  0.3408
  404MOL    Cl249168   6.772   6.748   2.371  0.1943 -0.3419  0.0190
  404MOL    Cl349169   6.624   6.854   2.581  0.0898  0.2328  0.4496
  404MOL     C449170   6.894   6.812   2.615 -0.0751 -0.7273 -0.2153
  404MOL     H549171   6.872   6.864   2.708  2.4127  1.5348 -0.8384
  404MOL     H649172   6.897   6.704   2.631  0.6295 -1.1740 -3.1192
  404MOL     H749173   6.795   6.956   2.476 -2.6319 -0.0751 -1.2092
  404MOL     C849174   7.039   6.856   2.581 -0.5076  0.4294 -0.1136
  404MOL    Cl949175   7.033   7.037   2.567  0.4547 -0.0341 -0.1183
  404MOL   Cl1049176   7.102   6.781   2.425  0.1363 -0.1896 -0.2351
  404MOL    C1149177   7.140   6.823   2.700  0.3440  0.1155  0.7467
  404MOL    H1249178   7.229   6.882   2.679  1.9800 -2.7314 -0.5992
  404MOL    H1349179   7.084   6.875   2.777 -0.9684 -0.4765  0.2190
  404MOL    C1449180   7.166   6.676   2.752  0.0230 -0.2729 -0.1809
  404MOL   Cl1549181   7.182   6.565   2.611  0.6222  0.5351  0.1011
  404MOL   Cl1649182   7.027   6.627   2.851 -0.1236 -0.4677 -0.3679
  404MOL    C1749183   7.299   6.663   2.839  0.0964  0.6568  0.2161
  404MOL    H1849184   7.320   6.556   2.851 -2.5573  0.1326  0.4857
  404MOL    H1949185   7.380   6.700   2.777 -0.2965  0.0977 -0.6419
  404MOL    C2049186   7.300   6.724   2.985 -0.1324  0.1645 -0.4922
  404MOL   Cl2149187   7.262   6.897   2.981 -0.5618 -0.2846  0.0334
  404MOL   Cl2249188   7.471   6.710   3.029  0.1696 -0.3601 -0.0415
  404MOL    C2349189   7.216   6.647   3.094  0.1314  1.2573 -0.5826
  404MOL    H2449190   7.111   6.675   3.087 -0.6690 -1.2176  0.9975
  404MOL    H2549191   7.213   6.542   3.064  3.7119  1.6265 -2.4374
  404MOL    C2649192   7.254   6.650   3.252 -0.4824  1.0924 -0.1304
  404MOL   Cl2749193   7.412   6.557   3.275 -0.3149  0.1463 -0.1585
  404MOL   Cl2849194   7.116   6.563   3.333  0.3108 -0.1539 -0.2541
  404MOL    C2949195   7.252   6.796   3.298  0.1095  0.3585  0.4554
  404MOL    H3049196   7.346   6.835   3.260  1.2883 -1.3760  1.5317
  404MOL    H3149197   7.170   6.849   3.249  0.8103  0.2406 -0.8705
  404MOL    C3249198   7.243   6.832   3.451 -0.1881  0.6868 -0.0806
  404MOL   Cl3349199   7.317   6.710   3.552  0.0599 -0.1100  0.1589
  404MOL   Cl3449200   7.071   6.828   3.495  0.1850 -0.0378 -0.0691
  404MOL    C3549201   7.296   6.964   3.489  0.0231 -0.4682 -0.0531
  404MOL    H3649202   7.302   6.974   3.597  0.3685  0.6597 -0.1661
  404MOL    H3749203   7.397   6.981   3.451 -0.1923 -1.3613 -1.0629
  404MOL    C3849204   7.225   7.100   3.450 -0.7194 -0.1631 -0.6346
  404MOL   Cl3949205   7.101   7.139   3.577  0.2538  0.3241  0.2044
  404MOL   Cl4049206   7.129   7.096   3.306  0.2600  0.2102  0.1018
  404MOL    C4149207   7.324   7.218   3.460 -0.5054 -0.2544  0.4511
  404MOL    H4249208   7.259   7.305   3.447 -0.0975 -0.0513 -0.2362
  404MOL    H4349209   7.375   7.210   3.556  0.9465  0.3250 -0.2566
  404MOL    C4449210   7.442   7.240   3.350  0.3339  0.8935 -0.3375
  404MOL   Cl4549211   7.389   7.209   3.186 -0.2606 -0.1427  0.1600
  404MOL   Cl4649212   7.577   7.120   3.359  0.0921  0.1919 -0.0270
  404MOL    C4749213   7.507   7.383   3.357  0.2483  0.2396  0.1850
  404MOL    H4849214   7.590   7.385   3.286 -0.9821 -0.1408 -1.2880
  404MOL    H4949215   7.433   7.449   3.312  0.9825  0.2161 -1.1029
  404MOL    C5049216   7.552   7.449   3.498 -0.2673 -0.2065 -0.9133
  404MOL   Cl5149217   7.656   7.335   3.578  0.4683  0.1101  0.0961
  404MOL   Cl5249218   7.408   7.488   3.595  0.1828 -0.0928 -0.3783
  404MOL    C5349219   7.639   7.575   3.481 -0.0053 -0.3805  0.3293
  404MOL    H5449220   7.666   7.622   3.576 -0.4442  2.1117 -0.7388
  404MOL    H5549221   7.736   7.538   3.448 -0.2226 -0.2530 -0.4666
  404MOL    C5649222   7.604   7.700   3.391 -0.4938 -0.2230  0.0375
  404MOL   Cl5749223   7.455   7.775   3.448 -0.1805  0.6261 -0.2348
  404MOL   Cl5849224   7.564   7.651   3.223  0.0792 -0.0119  0.1540
  404MOL    C5949225   7.706   7.809   3.386 -0.3386  0.1714 -0.7110
  404MOL    H6049226   7.676   7.887   3.316 -2.5572 -0.2148 -0.2236
  404MOL    H6149227   7.700   7.866   3.479 -0.3385  0.9699 -1.1978
  404MOL    C6249228   7.862   7.777   3.363  0.7144 -0.2547 -0.2029
  404MOL   Cl6349229   7.927   7.917   3.262 -0.2254  0.2402 -0.1737
  404MOL   Cl6449230   7.894   7.634   3.257 -0.3017 -0.3768  0.1321
  404MOL    C6549231   7.952   7.759   3.484 -0.3276 -0.4393 -0.4556
  404MOL    H6649232   7.935   7.656   3.516 -0.1213 -0.6349 -0.9646
  404MOL    H6749233   8.055   7.770   3.449 -0.3567  0.9225 -0.1549
  404MOL    C6849234   7.958   7.845   3.612  0.0515 -0.1983  0.2230
  404MOL   Cl6949235   7.818   7.813   3.714 -0.1277 -0.3541  0.0328
  404MOL   Cl7049236   7.931   8.011   3.566 -0.0303 -0.1833  0.0234
  404MOL    C7149237   8.071   7.825   3.715 -0.6069 -0.0982 -0.1087
  404MOL    H7249238   8.053   7.861   3.817  3.1885 -0.3171  0.7254
  404MOL    H7349239   8.089   7.717   3.723  0.8661  0.2271  1.3699
  404MOL    C7449240   8.207   7.901   3.693 -0.9224  0.2891 -0.8169
  404MOL   Cl7549241   8.263   7.893   3.527  0.0736  0.0236 -0.1678
  404MOL   Cl7649242   8.319   7.795   3.784  0.3744 -0.0975 -0.3076
  404MOL    C7749243   8.203   8.047   3.748 -0.2388 -0.2447  0.4658
  404MOL    H7849244   8.113   8.098   3.714  0.0320  0.4105  0.7435
  404MOL    H7949245   8.203   8.038   3.856 -0.2071 -2.3829  0.3131
  404MOL    C8049246   8.314   8.148   3.709  0.5844 -0.0524  0.6541
  404MOL   Cl8149247   8.293   8.192   3.530 -0.1846 -0.3984 -0.5126
  404MOL   Cl8249248   8.478   8.073   3.726  0.2588  0.0727 -0.1085
  404MOL    C8349249   8.310   8.291   3.779 -0.6438  0.1877 -0.0844
  404MOL    H8449250   8.397   8.338   3.734 -0.8419  1.0148  0.3912
  404MOL    H8549251   8.229   8.357   3.748 -0.6589 -1.6536 -4.3549
  404MOL    C8649252   8.304   8.289   3.932  0.4998 -0.1013 -0.2129
  404MOL   Cl8749253   8.399   8.163   4.013 -0.2231 -0.4969 -0.0672
  404MOL   Cl8849254   8.130   8.274   3.975 -0.0566 -0.1174  0.1197
  404MOL    C8949255   8.342   8.424   3.991 -0.5349  0.6694  0.4803
  404MOL    H9049256   8.253   8.486   3.979  0.9185  2.3361 -2.0260
  404MOL    H9149257   8.346   8.401   4.097  0.1921 -2.7205 -0.2031
  404MOL    C9249258   8.464   8.506   3.945 -0.0426  0.4741 -0.2890
  404MOL   Cl9349259   8.445   8.570   3.783  0.3243  0.2886 -0.0760
  404MOL   Cl9449260   8.597   8.382   3.933 -0.2757 -0.2492 -0.1269
  404MOL    C9549261   8.501   8.607   4.051  0.0992 -0.1136  0.0060
  404MOL    H9649262   8.409   8.636   4.102 -0.9614 -3.4413  0.0568
  404MOL    H9749263   8.552   8.541   4.121 -0.0746 -0.6197 -0.3479
  404MOL    C9849264   8.569   8.739   4.014 -0.3956 -0.6784 -0.0017
  404MOL   Cl9949265   8.603   8.815   4.169  0.2136  0.3031  0.1281
  404MOL  Cl10049266   8.458   8.851   3.930 -0.2941 -0.2284  0.1560
  404MOL   C10149267   8.714   8.731   3.943 -0.2155  0.1505 -0.8768
  404MOL   H10249268   8.773   8.697   4.029 -1.5594  2.0715  0.8724
  404MOL   H10349269   8.720   8.656   3.865 -2.3274  0.1783 -1.0928
  404MOL   C10449270   8.783   8.858   3.876 -0.2342 -0.3568  0.2554
  404MOL  Cl10549271   8.690   8.895   3.725 -0.2709 -0.0645  0.5754
  404MOL  Cl10649272   8.946   8.799   3.832 -0.1509 -0.1925  0.2840
  404MOL   C10749273   8.804   8.975   3.975 -0.3146  0.4217 -0.4235
  404MOL   H10849274   8.701   8.987   4.010 -0.3061  2.2880 -0.9544
  404MOL   H10949275   8.863   8.943   4.061  0.8795  0.5419 -1.1964
  404MOL   C11049276   8.849   9.112   3.934  0.6769 -0.4439  0.4577
  404MOL  Cl11149277   8.852   0.028   4.084 -0.2615 -0.3772 -0.3450
  404MOL  Cl11249278   8.721   0.001   3.829  0.1460  0.0455  0.2845
  404MOL   C11349279   8.983   9.114   3.851 -0.1311 -0.9153  0.2456
  404MOL   H11449280   9.057   9.073   3.921  0.6956 -1.0765 -0.7178
  404MOL   H11549281   8.984   9.039   3.772 -0.2978 -0.7166  0.0539
  404MOL   C11649282   9.048   0.072   3.803 -0.3199 -0.1451  0.2728
  404MOL  Cl11749283   8.994   0.103   3.633 -0.1421 -0.3324 -0.5836
  404MOL  Cl11849284   0.049   0.033   3.793 -0.0414  0.1168 -0.0506
  404MOL   C11949285   9.038   0.190   3.897  0.1153 -1.2519  0.4383
  404MOL   H12049286   9.091   0.273   3.851 -0.1963 -0.9164  0.6880
  404MOL   H12149287   8.937   0.215   3.927  0.4263 -1.2844  1.5142
  404MOL   H12249288   9.095   0.159   3.985  1.2009 -0.9448 -0.1402
  405MOL     C149289   6.316   8.200   2.935 -0.1244 -0.4507 -0.3915
  405MOL    Cl249290   6.462   8.301   2.904  0.1411  0.3450 -0.0313
  405MOL    Cl349291   6.356   8.056   3.020 -0.0116  0.1617  0.3318
  405MOL     C449292   6.205   8.269   3.013  0.5015 -0.0610  0.4241
  405MOL     H549293   6.134   8.194   3.048  0.4300 -0.3025 -0.2396
  405MOL     H649294   6.247   8.323   3.098 -0.8128 -0.0415  1.0826
  405MOL     H749295   6.286   8.164   2.836 -0.2666  2.0113 -1.2858
  405MOL     C849296   6.128   8.377   2.935  0.0602 -0.3906 -0.0060
  405MOL    Cl949297   6.044   8.301   2.795  0.0558 -0.0279  0.1119
  405MOL   Cl1049298   6.226   8.514   2.882 -0.0083 -0.3239 -0.1195
  405MOL    C1149299   5.997   8.412   3.013  0.3311  0.2434  0.2590
  405MOL    H1249300   5.955   8.493   2.953  0.0599 -0.9699 -1.2134
  405MOL    H1349301   5.935   8.323   3.025  1.7343 -0.6217  1.3192
  405MOL    C1449302   6.005   8.473   3.158  0.4911  0.4596 -0.5744
  405MOL   Cl1549303   6.136   8.600   3.168 -0.0286  0.2181  0.4906
  405MOL   Cl1649304   6.067   8.348   3.276 -0.4015  0.3631  0.6271
  405MOL    C1749305   5.877   8.537   3.211 -0.3831  0.5847 -0.0037
  405MOL    H1849306   5.897   8.590   3.304  0.5156 -0.7829  0.6031
  405MOL    H1949307   5.849   8.604   3.129  0.7764  0.7776 -0.2472
  405MOL    C2049308   5.751   8.454   3.236 -0.3733  0.0260 -0.5035
  405MOL   Cl2149309   5.682   8.378   3.083 -0.0134 -0.3879 -0.0884
  405MOL   Cl2249310   5.631   8.563   3.293 -0.1197  0.1667  0.3484
  405MOL    C2349311   5.766   8.336   3.338 -0.1629  0.3544  0.8381
  405MOL    H2449312   5.835   8.258   3.305 -0.0484  0.4764  0.7895
  405MOL    H2549313   5.804   8.395   3.421 -0.9422  1.1334  0.6457
  405MOL    C2649314   5.656   8.245   3.397  0.5868  0.3918 -1.0850
  405MOL   Cl2749315   5.729   8.148   3.523 -0.4970  0.1808  0.0379
  405MOL   Cl2849316   5.606   8.131   3.268  0.4821 -0.1529 -0.3192
  405MOL    C2949317   5.535   8.326   3.459 -0.2729  0.4698 -0.2526
  405MOL    H3049318   5.585   8.407   3.511  0.8004 -0.6862  0.5517
  405MOL    H3149319   5.478   8.380   3.384  0.6615  1.5256 -0.2105
  405MOL    C3249320   5.421   8.261   3.547  0.3478 -0.0129  0.0321
  405MOL   Cl3349321   5.290   8.377   3.562 -0.2259  0.1742  0.1544
  405MOL   Cl3449322   5.483   8.239   3.717  0.2543 -0.0492 -0.3567
  405MOL    C3549323   5.377   8.120   3.500 -0.4383  0.1388  0.2219
  405MOL    H3649324   5.370   8.120   3.391  1.7439 -0.8066  0.0430
  405MOL    H3749325   5.456   8.046   3.511 -0.0999  0.5804  0.8231
  405MOL    C3849326   5.244   8.056   3.539 -0.0971 -0.1462  0.1035
  405MOL   Cl3949327   5.244   7.894   3.464 -0.0442 -0.6865  0.4875
  405MOL   Cl4049328   5.110   8.141   3.465  0.5749  0.1758  0.2130
  405MOL    C4149329   5.221   8.047   3.690 -0.3319  0.4645  0.3652
  405MOL    H4249330   5.232   8.148   3.728 -1.0965  1.2596 -1.4450
  405MOL    H4349331   5.117   8.025   3.712  0.1011  0.3609  2.4321
  405MOL    C4449332   5.305   7.942   3.773  0.0832 -0.1245  0.6292
  405MOL   Cl4549333   5.332   8.032   3.926 -0.3324 -0.1189  0.3995
  405MOL   Cl4649334   5.475   7.918   3.726  0.0680  0.2755 -0.5194
  405MOL    C4749335   5.224   7.804   3.788 -0.2457 -0.0192 -0.0907
  405MOL    H4849336   5.122   7.838   3.806 -0.8318 -1.8691  0.1737
  405MOL    H4949337   5.233   7.753   3.693 -0.4938 -2.0623  0.9471
  405MOL    C5049338   5.251   7.700   3.910 -0.7244 -0.6852 -0.4809
  405MOL   Cl5149339   5.166   7.561   3.837  0.0815  0.0190 -0.1621
  405MOL   Cl5249340   5.163   7.756   4.057 -0.5342 -0.4548 -0.2527
  405MOL    C5349341   5.402   7.680   3.949 -0.0458 -0.7236 -0.6760
  405MOL    H5449342   5.474   7.676   3.867  0.8581  1.7171 -0.0466
  405MOL    H5549343   5.434   7.775   3.993 -2.5623 -0.1033 -0.1254
  405MOL    C5649344   5.455   7.567   4.043 -0.2380 -0.4115  0.4398
  405MOL   Cl5749345   5.632   7.584   4.050  0.0840  0.0389 -0.0159
  405MOL   Cl5849346   5.425   7.409   3.975  0.4309 -0.2010  0.2292
  405MOL    C5949347   5.392   7.573   4.188 -0.3894  0.1427  0.6418
  405MOL    H6049348   5.385   7.678   4.218  0.1607  0.3334  0.1304
  405MOL    H6149349   5.293   7.532   4.173 -0.6618  0.1739  2.2701
  405MOL    C6249350   5.458   7.494   4.309 -0.1513 -0.5485  0.2560
  405MOL   Cl6349351   5.329   7.496   4.434 -0.2269 -0.2557  0.1052
  405MOL   Cl6449352   5.601   7.575   4.373 -0.2734  0.1022  0.4500
  405MOL    C6549353   5.486   7.346   4.263 -0.6252 -0.6768  0.9280
  405MOL    H6649354   5.393   7.315   4.215  0.2186 -0.0861 -1.1592
  405MOL    H6749355   5.565   7.343   4.187 -2.0790  0.3465 -0.6507
  405MOL    C6849356   5.542   7.241   4.357  0.7053 -0.2958 -0.4885
  405MOL   Cl6949357   5.708   7.286   4.399  0.0385  0.1040  0.3791
  405MOL   Cl7049358   5.539   7.085   4.261 -0.0816 -0.1051 -0.2666
  405MOL    C7149359   5.456   7.225   4.488 -0.3326 -0.3254  0.3161
  405MOL    H7249360   5.498   7.305   4.550 -0.0540  0.2833 -0.6403
  405MOL    H7349361   5.349   7.240   4.474 -0.9243 -2.8739  1.7854
  405MOL    C7449362   5.467   7.092   4.571 -0.1161 -0.6218 -0.1667
  405MOL   Cl7549363   5.367   6.969   4.486 -0.0443 -0.0144 -0.4103
  405MOL   Cl7649364   5.385   7.126   4.724 -0.2381 -0.0081  0.2874
  405MOL    C7749365   5.612   7.046   4.580 -0.6146 -0.6931  0.0211
  405MOL    H7849366   5.653   7.034   4.480 -1.3357  0.0424 -0.3748
  405MOL    H7949367   5.669   7.122   4.634  0.3349 -0.9787 -0.5707
  405MOL    C8049368   5.650   6.921   4.670 -0.5724  0.3870  0.7286
  405MOL   Cl8149369   5.610   6.953   4.845 -0.2825 -0.1438 -0.2032
  405MOL   Cl8249370   5.831   6.901   4.650  0.4663  0.4470  0.2575
  405MOL    C8349371   5.583   6.784   4.632 -0.5125  0.5615 -0.3646
  405MOL    H8449372   5.496   6.782   4.698  0.2316  0.0721  0.6138
  405MOL    H8549373   5.546   6.789   4.529  0.2714 -2.4840 -0.8389
  405MOL    C8649374   5.646   6.647   4.645  0.3318  0.3261 -0.7191
  405MOL   Cl8749375   5.769   6.625   4.520 -0.1598 -0.1799 -0.3850
  405MOL   Cl8849376   5.528   6.517   4.614  0.6100 -0.5181 -0.0225
  405MOL    C8949377   5.696   6.614   4.795 -0.5005  0.2946 -0.6741
  405MOL    H9049378   5.726   6.704   4.849 -1.2803  0.9498 -1.3167
  405MOL    H9149379   5.611   6.576   4.852  0.0018 -2.3623 -1.6472
  405MOL    C9249380   5.811   6.517   4.819 -0.4760 -0.0043  0.6956
  405MOL   Cl9349381   5.810   6.500   4.996  0.0921  0.3909  0.4069
  405MOL   Cl9449382   5.971   6.590   4.762 -0.0156  0.0125  0.3682
  405MOL    C9549383   5.778   6.375   4.756  0.3097  0.5043  0.2571
  405MOL    H9649384   5.695   6.329   4.809  1.5529 -1.6310  0.3875
  405MOL    H9749385   5.755   6.380   4.649 -0.2027 -0.1382  0.3328
  405MOL    C9849386   5.892   6.267   4.753  0.2779 -0.5393  0.0815
  405MOL   Cl9949387   5.974   6.244   4.909 -0.0507  0.0776  0.0521
  405MOL  Cl10049388   6.008   6.328   4.631 -0.2296 -0.1166 -0.1122
  405MOL   C10149389   5.853   6.125   4.715  0.2244  1.1268  0.4786
  405MOL   H10249390   5.946   6.068   4.714 -0.2425  0.3586  0.2358
  405MOL   H10349391   5.803   6.082   4.802  1.4466 -3.1600 -0.8308
  405MOL   C10449392   5.770   6.092   4.590 -0.4125  0.6543  0.1728
  405MOL  Cl10549393   5.610   6.157   4.612  0.3839  0.0487 -0.3892
  405MOL  Cl10649394   5.756   5.912   4.591  0.2223 -0.3695 -0.1703
  405MOL   C10749395   5.805   6.154   4.452 -0.3673 -0.0216  0.3204
  405MOL   H10849396   5.711   6.151   4.398  0.4326  2.9099 -1.3638
  405MOL   H10949397   5.813   6.262   4.467  1.3576 -0.1347  0.3984
  405MOL   C11049398   5.924   6.091   4.365 -0.6482 -0.2467 -0.1665
  405MOL  Cl11149399   5.865   5.945   4.287 -0.5162 -0.1222 -0.1992
  405MOL  Cl11249400   6.063   6.050   4.477 -0.2316 -0.0500  0.4394
  405MOL   C11349401   5.971   6.205   4.264 -0.1473  0.5682 -0.6221
  405MOL   H11449402   5.885   6.247   4.212 -1.7866 -0.5553  1.1394
  405MOL   H11549403   6.016   6.280   4.329 -0.5313 -1.5627  2.2019
  405MOL   C11649404   6.069   6.182   4.153 -1.3151  0.2222 -0.3661
  405MOL  Cl11749405   6.104   6.345   4.089 -0.0008 -0.1797 -0.0883
  405MOL  Cl11849406   6.007   6.079   4.022 -0.1948 -0.4883  0.0472
  405MOL   C11949407   6.197   6.119   4.203  0.5166  0.2801  0.1076
  405MOL   H12049408   6.187   6.012   4.223 -1.6261  0.1154 -1.6243
  405MOL   H12149409   6.273   6.116   4.125  0.6514  0.9487  0.2149
  405MOL   H12249410   6.230   6.164   4.297  0.4317  0.3650  0.0967
  406MOL     C149411   3.960   7.036   2.199  0.1264  0.0180  0.1510
  406MOL    Cl249412   3.885   6.888   2.259  0.3214 -0.3737  0.2569
  406MOL    Cl349413   3.829   7.138   2.114 -0.2318 -0.2194  0.0784
  406MOL     C449414   4.022   7.108   2.323 -0.2555  0.0385 -0.5440
  406MOL     H549415   3.948   7.151   2.391  0.1074 -0.2225  0.0233
  406MOL     H649416   4.050   7.019   2.379 -0.6101  0.0948 -0.2748
  406MOL     H749417   4.026   7.003   2.118  0.4835 -0.5428  0.6663
  406MOL     C849418   4.140   7.204   2.286 -0.4576  0.1383  0.5959
  406MOL    Cl949419   4.079   7.340   2.190  0.0366  0.2836  0.0667
  406MOL   Cl1049420   4.255   7.101   2.190 -0.0252  0.1791 -0.0571
  406MOL    C1149421   4.227   7.264   2.403  0.3810  0.9503  0.2786
  406MOL    H1249422   4.282   7.184   2.452 -0.8423  0.4493  0.8562
  406MOL    H1349423   4.304   7.333   2.367  0.0785  2.0113  1.6010
  406MOL    C1449424   4.164   7.338   2.525  0.6518  0.5146  0.0919
  406MOL   Cl1549425   4.293   7.370   2.644 -0.0577  0.7502  0.4430
  406MOL   Cl1649426   4.055   7.224   2.614 -0.2852 -0.2129  0.0879
  406MOL    C1749427   4.073   7.460   2.507  0.1490 -0.5685 -0.0001
  406MOL    H1849428   4.020   7.443   2.413 -1.0934  0.0307  0.5767
  406MOL    H1949429   4.009   7.472   2.594 -0.1887 -0.6217 -0.2414
  406MOL    C2049430   4.135   7.600   2.482  0.6338 -0.1183 -0.2692
  406MOL   Cl2149431   4.260   7.599   2.359 -0.1215  0.2205 -0.0725
  406MOL   Cl2249432   4.199   7.678   2.624  0.0962  0.3790  0.0724
  406MOL    C2349433   4.027   7.695   2.425 -0.2103  0.0648  0.3224
  406MOL    H2449434   4.074   7.788   2.395  1.0623 -0.7290 -0.1978
  406MOL    H2549435   3.999   7.660   2.325 -1.7136 -0.8370  1.0292
  406MOL    C2649436   3.891   7.737   2.498  0.0424 -1.1325 -0.6776
  406MOL   Cl2749437   3.785   7.603   2.531 -0.1413 -0.1869  0.2835
  406MOL   Cl2849438   3.812   7.834   2.378 -0.2209  0.6984 -0.2658
  406MOL    C2949439   3.904   7.821   2.640 -0.8231 -0.6895 -0.1359
  406MOL    H3049440   3.914   7.748   2.721 -0.7199  0.1343  0.6021
  406MOL    H3149441   4.005   7.861   2.637 -0.7972 -0.8770 -2.2186
  406MOL    C3249442   3.800   7.925   2.686 -0.2687 -0.2165  0.2701
  406MOL   Cl3349443   3.848   7.958   2.858  0.1527 -0.1451  0.0324
  406MOL   Cl3449444   3.637   7.864   2.674  0.2667 -0.3686 -0.3855
  406MOL    C3549445   3.801   8.063   2.614  0.3920 -0.8978  0.5612
  406MOL    H3649446   3.740   8.044   2.526 -1.7967  0.6971  1.6866
  406MOL    H3749447   3.733   8.130   2.667  1.2482  1.6695 -1.4805
  406MOL    C3849448   3.935   8.140   2.572  1.1733 -0.0173  0.6244
  406MOL   Cl3949449   4.022   8.051   2.444 -0.1188 -0.6300 -0.1241
  406MOL   Cl4049450   4.047   8.165   2.710 -0.2014 -0.1566 -0.0812
  406MOL    C4149451   3.898   8.284   2.511  0.1761 -0.4416  0.6030
  406MOL    H4249452   3.996   8.330   2.496 -0.2572  0.6077  0.9597
  406MOL    H4349453   3.853   8.251   2.417 -0.8805  1.0986  0.5582
  406MOL    C4449454   3.790   8.380   2.584 -0.2272 -0.3817  0.1978
  406MOL   Cl4549455   3.813   8.377   2.754  0.1097  0.1854  0.1347
  406MOL   Cl4649456   3.623   8.337   2.541 -0.2201 -0.5103  0.1810
  406MOL    C4749457   3.796   8.532   2.542 -0.0636  0.7134 -0.1027
  406MOL    H4849458   3.740   8.535   2.448 -1.8040 -1.0400  0.8351
  406MOL    H4949459   3.739   8.582   2.619 -0.1042 -1.8736  1.6186
  406MOL    C5049460   3.935   8.598   2.515 -0.6641 -0.0213 -0.3592
  406MOL   Cl5149461   4.013   8.541   2.365 -0.3848 -0.1081  0.3995
  406MOL   Cl5249462   4.048   8.569   2.660 -0.0241  0.2672  0.1782
  406MOL    C5349463   3.921   8.755   2.494 -0.0190  0.1643  0.3287
  406MOL    H5449464   4.023   8.792   2.487  0.6573 -1.2289  2.2956
  406MOL    H5549465   3.879   8.778   2.396  2.6828  0.4438 -0.8033
  406MOL    C5649466   3.868   8.864   2.595 -0.0382  0.3856 -0.0104
  406MOL   Cl5749467   3.902   8.807   2.762  0.2465  0.3938  0.4570
  406MOL   Cl5849468   3.692   8.887   2.576 -0.0493  0.1723 -0.3475
  406MOL    C5949469   3.935   9.000   2.587  0.1346 -0.2217  0.6204
  406MOL    H6049470   3.891   9.063   2.664 -0.5237 -0.3816  0.3774
  406MOL    H6149471   4.036   8.989   2.625  0.4912  2.3022  0.4929
  406MOL    C6249472   3.941   9.092   2.457 -0.1860  0.3218  0.6695
  406MOL   Cl6349473   4.012   9.013   2.314  0.3698  0.1072  0.2227
  406MOL   Cl6449474   4.051   0.036   2.500 -0.2255 -0.1484 -0.1469
  406MOL    C6549475   3.801   9.138   2.418 -0.5809  0.1846  0.7097
  406MOL    H6649476   3.753   9.057   2.364  1.7020 -0.1989 -0.8390
  406MOL    H6749477   3.740   9.142   2.508 -2.4108  0.0325 -0.4961
  406MOL    C6849478   3.781   0.089   2.333 -1.0740  0.3862 -0.3755
  406MOL   Cl6949479   3.901   0.114   2.208  0.3989 -0.2291 -0.1134
  406MOL   Cl7049480   3.799   0.221   2.444 -0.1959 -0.1470 -0.2923
  406MOL    C7149481   3.630   0.079   2.281  0.0372  0.4853 -0.2275
  406MOL    H7249482   3.642   0.006   2.201 -1.4600 -0.5523  0.4714
  406MOL    H7349483   3.563   0.036   2.355  0.2514 -0.3813 -0.5301
  406MOL    C7449484   3.560   0.198   2.209 -0.1137  0.2983  0.2205
  406MOL   Cl7549485   3.407   0.127   2.146 -0.0123 -0.1995 -0.2544
  406MOL   Cl7649486   3.655   0.268   2.080 -0.0943 -0.3869 -0.0087
  406MOL    C7749487   3.528   0.316   2.309 -0.7162  0.0705 -0.1109
  406MOL    H7849488   3.479   0.273   2.396  0.5944  0.4170  0.8014
  406MOL    H7949489   3.621   0.366   2.337 -0.7631  1.1106 -1.7251
  406MOL    C8049490   3.425   0.432   2.273  0.8513 -0.8968 -0.1619
  406MOL   Cl8149491   3.507   0.514   2.136  0.0067 -0.0440  0.3714
  406MOL   Cl8249492   3.420   0.543   2.411  0.3159  0.1994  0.0905
  406MOL    C8349493   3.276   0.389   2.239  0.3354 -0.2776  0.0062
  406MOL    H8449494   3.274   0.357   2.134 -2.2913  0.0037 -0.0699
  406MOL    H8549495   3.250   0.299   2.294 -1.8214  0.0060 -0.4989
  406MOL    C8649496   3.152   0.481   2.246  0.0927  0.3404  0.0032
  406MOL   Cl8749497   3.105   0.515   2.414 -0.1444 -0.3117 -0.0412
  406MOL   Cl8849498   3.027   0.393   2.158  0.1888  0.2432  0.2776
  406MOL    C8949499   3.183   0.611   2.163  0.1043  0.5257 -0.1106
  406MOL    H9049500   3.267   0.661   2.210  0.0208  1.0175 -0.4834
  406MOL    H9149501   3.221   0.576   2.067 -0.0875  2.1092 -0.7753
  406MOL    C9249502   3.084   0.732   2.130  0.4398  0.1824  0.9046
  406MOL   Cl9349503   3.185   0.842   2.040  0.2692  0.2950  0.1867
  406MOL   Cl9449504   3.039   0.810   2.285  0.3063  0.1442  0.2500
  406MOL    C9549505   2.957   0.699   2.063  0.0410 -0.2924  0.2409
  406MOL    H9649506   2.984   0.642   1.974 -0.4575 -1.0973  0.6080
  406MOL    H9749507   2.903   0.629   2.126  2.9864 -2.6902  0.1722
  406MOL    C9849508   2.847   0.793   2.008 -0.0196  0.1963 -1.0771
  406MOL   Cl9949509   2.735   0.679   1.926 -0.2307  0.3065  0.2669
  406MOL  Cl10049510   2.913   0.898   1.884  0.0717  0.1112  0.1393
  406MOL   C10149511   2.772   0.874   2.120 -0.4171  0.2124 -0.1471
  406MOL   H10249512   2.759   0.802   2.201  1.4757  1.7354  1.5820
  406MOL   H10349513   2.838   0.954   2.154 -0.7604  0.3541  0.1818
  406MOL   C10449514   2.637   0.943   2.099  0.1188 -0.4316  0.3158
  406MOL  Cl10549515   2.596   1.014   2.257 -0.4533  0.0724  0.3198
  406MOL  Cl10649516   2.509   0.816   2.080 -0.3522  0.4001 -0.1096
  406MOL   C10749517   2.617   1.049   1.984  0.7859 -0.5450  0.7275
  406MOL   H10849518   2.654   1.004   1.891 -0.2122 -1.3820  0.7222
  406MOL   H10949519   2.511   1.067   1.969  0.7631  0.8073  2.4328
  406MOL   C11049520   2.684   1.191   1.988 -0.0907  0.3973 -0.0408
  406MOL  Cl11149521   2.698   1.250   1.822  0.1009 -0.0458 -0.1082
  406MOL  Cl11249522   2.852   1.195   2.028 -0.3031  0.0829 -0.1022
  406MOL   C11349523   2.627   1.305   2.080  0.0762 -0.6847 -0.2879
  406MOL   H11449524   2.659   1.288   2.183  1.5060  0.2632 -0.5558
  406MOL   H11549525   2.682   1.396   2.056 -1.9531  0.6048 -0.1775
  406MOL   C11649526   2.475   1.349   2.073  0.4284 -0.0427 -0.4349
  406MOL  Cl11749527   2.457   1.486   2.182  0.0917  0.4723 -0.3689
  406MOL  Cl11849528   2.364   1.218   2.117  0.1297  0.2093  0.3394
  406MOL   C11949529   2.422   1.404   1.937 -0.6156  0.8015  0.8345
  406MOL   H12049530   2.491   1.471   1.887  2.4862 -1.7003  1.5780
  406MOL   H12149531   2.401   1.316   1.875  1.4957  1.7445 -1.3310
  406MOL   H12249532   2.320   1.436   1.955 -1.0520 -0.8150  1.3962
  407MOL     C149533   2.373   1.097   6.169  0.2963 -0.3498 -0.0834
  407MOL    Cl249534   2.496   1.023   6.277 -0.1007 -0.3696 -0.4251
  407MOL    Cl349535   2.213   1.106   6.264 -0.1108  0.0533  0.1251
  407MOL     C449536   2.410   1.241   6.130  0.6975 -0.1553  0.1748
  407MOL     H549537   2.318   1.296   6.113  0.1583 -0.9757  0.4308
  407MOL     H649538   2.442   1.298   6.218 -2.2215  3.0868 -0.7633
  407MOL     H749539   2.353   1.033   6.083 -0.7190 -0.1862  0.0189
  407MOL     C849540   2.505   1.268   6.012 -1.0335 -0.6535  0.4054
  407MOL    Cl949541   2.432   1.186   5.871 -0.1767  0.0692  0.3217
  407MOL   Cl1049542   2.665   1.190   6.038 -0.3167 -0.0686 -0.2668
  407MOL    C1149543   2.528   1.422   5.974 -0.5360  0.3568 -0.3127
  407MOL    H1249544   2.608   1.423   5.899  0.0547  0.8262  0.3196
  407MOL    H1349545   2.438   1.469   5.932 -1.2462 -1.8294 -1.2903
  407MOL    C1449546   2.558   1.530   6.075  0.0510  0.7995 -0.0958
  407MOL   Cl1549547   2.703   1.482   6.167 -0.2054  0.0350 -0.0818
  407MOL   Cl1649548   2.426   1.557   6.192  0.3329  0.4732 -0.1775
  407MOL    C1749549   2.591   1.671   6.002  0.2918  0.6658  0.1666
  407MOL    H1849550   2.620   1.740   6.081  1.5367 -2.0550  2.1790
  407MOL    H1949551   2.681   1.662   5.939  1.6821 -0.4259  2.2547
  407MOL    C2049552   2.488   1.738   5.895 -0.6114 -0.4699 -0.7171
  407MOL   Cl2149553   2.326   1.750   5.965  0.0829  0.0198  0.1454
  407MOL   Cl2249554   2.488   1.634   5.748 -0.1470  0.0904 -0.1198
  407MOL    C2349555   2.522   1.884   5.847  0.1772 -0.3320  0.5617
  407MOL    H2449556   2.458   1.892   5.759  0.3205  0.4099  0.5227
  407MOL    H2549557   2.489   1.942   5.933 -1.6083 -1.4665  0.6610
  407MOL    C2649558   2.672   1.922   5.797  0.1054 -0.0230 -0.8825
  407MOL   Cl2749559   2.745   1.795   5.694 -0.2039 -0.0925 -0.1685
  407MOL   Cl2849560   2.763   1.944   5.947 -0.0061  0.0883 -0.1200
  407MOL    C2949561   2.683   2.045   5.702 -0.0528 -0.2894  0.3100
  407MOL    H3049562   2.788   2.052   5.673 -0.7801  0.1312 -2.3430
  407MOL    H3149563   2.635   2.016   5.609 -2.1165  0.6398  1.0622
  407MOL    C3249564   2.622   2.191   5.733  0.1485 -0.2829  0.4881
  407MOL   Cl3349565   2.696   2.247   5.891  0.5757 -0.0808  0.0350
  407MOL   Cl3449566   2.443   2.179   5.744  0.0937  0.0704 -0.2383
  407MOL    C3549567   2.663   2.285   5.612 -0.0654 -0.2797 -0.1314
  407MOL    H3649568   2.758   2.256   5.566  0.4095 -2.6040  2.2063
  407MOL    H3749569   2.585   2.273   5.537 -0.8443  0.9163  0.4797
  407MOL    C3849570   2.657   2.444   5.627 -0.5709 -0.4915 -0.1287
  407MOL   Cl3949571   2.503   2.488   5.708  0.1669  0.2709 -0.1720
  407MOL   Cl4049572   2.645   2.495   5.454  0.2200 -0.2972 -0.0576
  407MOL    C4149573   2.781   2.516   5.693 -0.6413 -0.7588  0.3943
  407MOL    H4249574   2.769   2.623   5.678 -1.6908 -0.6999  1.5784
  407MOL    H4349575   2.772   2.485   5.797 -1.4357 -1.7160  0.0488
  407MOL    C4449576   2.933   2.485   5.657  0.3291  0.2752  0.3168
  407MOL   Cl4549577   2.954   2.509   5.478  0.1017  0.6042  0.1064
  407MOL   Cl4649578   2.971   2.314   5.690 -0.0383 -0.1598 -0.5215
  407MOL    C4749579   3.037   2.581   5.722 -0.5825  0.5815  0.6013
  407MOL    H4849580   3.137   2.544   5.698 -1.1405 -1.2668  1.0324
  407MOL    H4949581   3.027   2.675   5.668 -1.2237 -0.1020 -0.4922
  407MOL    C5049582   3.058   2.591   5.877 -0.0671 -0.5403 -0.0656
  407MOL   Cl5149583   2.910   2.672   5.939 -0.2165  0.2473 -0.0085
  407MOL   Cl5249584   3.190   2.708   5.898 -0.1278 -0.2416  0.0119
  407MOL    C5349585   3.090   2.455   5.954  0.3539 -0.1187 -0.0282
  407MOL    H5449586   2.997   2.397   5.958 -0.7133  1.5633  0.3866
  407MOL    H5549587   3.164   2.398   5.899  1.5405  1.1762  0.2015
  407MOL    C5649588   3.131   2.445   6.105 -0.4790  0.9292 -0.4264
  407MOL   Cl5749589   3.186   2.275   6.138  0.4385 -0.0245 -0.1738
  407MOL   Cl5849590   2.975   2.476   6.192  0.0209 -0.0792  0.1174
  407MOL    C5949591   3.239   2.542   6.170  0.1432 -0.1625  0.3386
  407MOL    H6049592   3.198   2.642   6.154 -1.6048 -1.2932 -2.6967
  407MOL    H6149593   3.231   2.538   6.279  0.0793 -0.8128  0.3101
  407MOL    C6249594   3.395   2.527   6.135 -0.2617 -0.0964 -0.3478
  407MOL   Cl6349595   3.425   2.509   5.955  0.0419  0.0890 -0.2208
  407MOL   Cl6449596   3.457   2.390   6.227  0.2788 -0.1115 -0.1505
  407MOL    C6549597   3.457   2.660   6.184  0.6832 -0.2229  0.7877
  407MOL    H6649598   3.394   2.744   6.154  0.2466 -0.0158  2.2432
  407MOL    H6749599   3.448   2.663   6.293 -0.0155 -0.1462  0.7308
  407MOL    C6849600   3.597   2.716   6.145 -0.8996 -0.2802 -0.7648
  407MOL   Cl6949601   3.621   2.857   6.259 -0.0562 -0.0709  0.0235
  407MOL   Cl7049602   3.578   2.798   5.987  0.2246  0.0112  0.0008
  407MOL    C7149603   3.709   2.614   6.136 -0.0935  0.2223  0.1845
  407MOL    H7249604   3.719   2.549   6.222  3.0685  1.2860  0.6986
  407MOL    H7349605   3.670   2.545   6.061  1.3110 -0.6316  0.2217
  407MOL    C7449606   3.866   2.650   6.120 -0.4369  0.6209 -0.0990
  407MOL   Cl7549607   3.912   2.716   6.277 -0.3255  0.2430 -0.1054
  407MOL   Cl7649608   3.891   2.779   5.995  0.0387 -0.1766 -0.2784
  407MOL    C7749609   3.967   2.533   6.079  0.1488 -0.0432  0.1742
  407MOL    H7849610   4.070   2.567   6.087 -0.1161  0.7545  0.3130
  407MOL    H7949611   3.956   2.464   6.162  1.7700 -1.4489 -0.7486
  407MOL    C8049612   3.942   2.446   5.954  0.3944  0.5120 -0.0662
  407MOL   Cl8149613   3.810   2.326   5.989 -0.2304 -0.1839  0.1228
  407MOL   Cl8249614   4.092   2.341   5.959  0.1712  0.5888  0.2764
  407MOL    C8349615   3.947   2.524   5.815 -0.0098  0.3199  0.0269
  407MOL    H8449616   3.881   2.611   5.811 -0.2184  0.1356 -0.8132
  407MOL    H8549617   4.044   2.571   5.799  0.7791 -1.1037  0.5475
  407MOL    C8649618   3.908   2.460   5.678  0.2645 -0.1653 -0.5708
  407MOL   Cl8749619   3.949   2.592   5.559  0.1469  0.0006 -0.2041
  407MOL   Cl8849620   3.735   2.419   5.674 -0.3829  0.0455  0.1761
  407MOL    C8949621   3.995   2.334   5.647  0.2580 -0.4704 -0.3568
  407MOL    H9049622   4.088   2.341   5.703  0.1725 -0.2950 -0.2401
  407MOL    H9149623   3.956   2.254   5.710 -1.5051 -0.4847 -1.4404
  407MOL    C9249624   4.037   2.282   5.508 -0.2574 -0.7146 -0.0204
  407MOL   Cl9349625   4.175   2.379   5.438  0.3246 -0.1256 -0.4847
  407MOL   Cl9449626   3.889   2.310   5.403 -0.1259  0.0925 -0.4668
  407MOL    C9549627   4.068   2.123   5.511 -0.1242  0.3558 -0.6248
  407MOL    H9649628   4.143   2.097   5.585  0.0993  1.0781 -0.5989
  407MOL    H9749629   3.975   2.075   5.542 -1.2858  0.8102 -3.2646
  407MOL    C9849630   4.105   2.045   5.375 -0.7468  0.3373 -0.4468
  407MOL   Cl9949631   4.248   2.121   5.302 -0.0457  0.0519  0.2630
  407MOL  Cl10049632   3.974   2.048   5.255  0.0806 -0.3597 -0.2952
  407MOL   C10149633   4.127   1.890   5.408 -0.8938 -0.2031 -0.8235
  407MOL   H10249634   4.031   1.838   5.415 -0.5844 -0.6811 -0.0609
  407MOL   H10349635   4.170   1.858   5.313 -2.2298  1.3154 -1.9680
  407MOL   C10449636   4.207   1.834   5.524  0.0031 -0.0649 -0.0866
  407MOL  Cl10549637   4.096   1.813   5.661  0.4561 -0.1531  0.2433
  407MOL  Cl10649638   4.349   1.933   5.568 -0.2661  0.1468  0.1190
  407MOL   C10749639   4.268   1.691   5.498 -0.8396 -0.0939  0.9702
  407MOL   H10849640   4.359   1.700   5.439 -2.1880  0.6664 -1.0663
  407MOL   H10949641   4.295   1.660   5.598 -1.0114 -0.3168  0.9497
  407MOL   C11049642   4.179   1.576   5.433  0.3556  0.2918 -0.5313
  407MOL  Cl11149643   4.165   1.614   5.266 -0.1922  0.2755 -0.0545
  407MOL  Cl11249644   4.013   1.569   5.496 -0.0641 -0.1629  0.3259
  407MOL   C11349645   4.238   1.432   5.430 -0.3530  0.5895  0.2381
  407MOL   H11449646   4.164   1.359   5.398  2.4379 -1.6326 -1.3448
  407MOL   H11549647   4.308   1.426   5.347 -1.7174  0.0238 -0.8846
  407MOL   C11649648   4.306   1.367   5.551 -0.1150  0.2754 -0.4038
  407MOL  Cl11749649   4.184   1.352   5.679 -0.0997  0.0670 -0.4654
  407MOL  Cl11849650   4.448   1.464   5.611 -0.1660  0.0372 -0.1100
  407MOL   C11949651   4.354   1.220   5.529 -0.3272  0.0252  0.5065
  407MOL   H12049652   4.413   1.183   5.612 -0.6303  0.3293  0.8578
  407MOL   H12149653   4.263   1.161   5.513 -0.5357  0.0832  1.4503
  407MOL   H12249654   4.414   1.220   5.438 -0.0900 -1.1352  0.6535
  408MOL     C149655   5.641   1.751   3.409  0.0312 -0.0847 -0.5429
  408MOL    Cl249656   5.698   1.714   3.578 -0.3056  0.0886  0.4623
  408MOL    Cl349657   5.466   1.794   3.401  0.4217 -0.0183 -0.1300
  408MOL     C449658   5.737   1.852   3.342  0.0647 -0.4439 -0.4718
  408MOL     H549659   5.706   1.945   3.390 -1.1609 -0.8785 -0.4042
  408MOL     H649660   5.837   1.817   3.369  0.0854 -1.4482 -1.8466
  408MOL     H749661   5.647   1.660   3.350  0.5874  0.1378 -0.8398
  408MOL     C849662   5.736   1.861   3.188  0.1506 -0.8170 -0.1918
  408MOL    Cl949663   5.791   1.700   3.129 -0.2268  0.4740  0.1504
  408MOL   Cl1049664   5.845   1.985   3.133 -0.4972 -0.2559  0.0718
  408MOL    C1149665   5.596   1.893   3.120 -0.0557  0.2402  0.6808
  408MOL    H1249666   5.529   1.809   3.141  0.3182 -0.0737  0.6374
  408MOL    H1349667   5.551   1.963   3.190  2.6935  0.8577  1.8964
  408MOL    C1449668   5.564   1.938   2.972  0.7486  0.5245 -0.0987
  408MOL   Cl1549669   5.597   2.119   2.965  0.3095  0.2642  0.2197
  408MOL   Cl1649670   5.394   1.908   2.937 -0.0990  0.0904  0.3003
  408MOL    C1749671   5.653   1.859   2.866  0.4255 -0.3407 -0.2121
  408MOL    H1849672   5.753   1.846   2.909  0.5066 -0.9408 -0.5714
  408MOL    H1949673   5.608   1.759   2.866 -1.4272  0.4369 -3.3706
  408MOL    C2049674   5.659   1.904   2.714  0.0488 -0.0036 -0.1540
  408MOL   Cl2149675   5.701   2.078   2.682 -0.1025 -0.0894  0.0396
  408MOL   Cl2249676   5.499   1.890   2.647 -0.2383 -0.0674 -0.1176
  408MOL    C2349677   5.757   1.812   2.642 -0.0696  0.3228 -0.4024
  408MOL    H2449678   5.778   1.863   2.548 -0.6198  2.1513  0.4466
  408MOL    H2549679   5.856   1.822   2.686  0.7834 -0.3409 -2.1293
  408MOL    C2649680   5.716   1.667   2.595  0.2637 -0.3813  0.0327
  408MOL   Cl2749681   5.661   1.555   2.726 -0.5479 -0.1009  0.1248
  408MOL   Cl2849682   5.871   1.607   2.538 -0.3174 -0.0990 -0.2049
  408MOL    C2949683   5.622   1.670   2.467  0.4505 -0.6322  0.1189
  408MOL    H3049684   5.521   1.692   2.501 -0.0769 -0.7301 -1.3649
  408MOL    H3149685   5.659   1.750   2.404 -0.4420 -0.0960  0.2678
  408MOL    C3249686   5.600   1.547   2.375 -0.5357  0.0848  0.0434
  408MOL   Cl3349687   5.733   1.529   2.265  0.3413  0.1598  0.0662
  408MOL   Cl3449688   5.454   1.581   2.266 -0.2749 -0.4544 -0.2697
  408MOL    C3549689   5.582   1.411   2.455 -0.2129  0.3319 -0.2407
  408MOL    H3649690   5.680   1.382   2.494 -1.0890 -2.7886 -0.2065
  408MOL    H3749691   5.526   1.419   2.548  1.5514 -1.4100  1.0148
  408MOL    C3849692   5.521   1.281   2.386 -0.1427  0.5936  0.1169
  408MOL   Cl3949693   5.343   1.303   2.372  0.1024  0.4956 -0.1909
  408MOL   Cl4049694   5.542   1.154   2.513 -0.1708 -0.1163  0.4702
  408MOL    C4149695   5.585   1.233   2.250  0.2589 -0.0682 -0.7140
  408MOL    H4249696   5.526   1.290   2.179 -1.7327 -1.8157 -0.5156
  408MOL    H4349697   5.689   1.263   2.237  0.2773 -0.0106 -0.4433
  408MOL    C4449698   5.575   1.090   2.195  0.6981 -0.5627  0.6843
  408MOL   Cl4549699   5.661   0.968   2.294  0.3733  0.0386 -0.1203
  408MOL   Cl4649700   5.652   1.097   2.037 -0.3455  0.4679  0.3132
  408MOL    C4749701   5.425   1.049   2.182 -0.1423 -0.1134 -0.1349
  408MOL    H4849702   5.389   1.056   2.284  0.1063 -1.4800  0.0552
  408MOL    H4949703   5.376   1.131   2.130 -0.6463 -0.5136 -0.2921
  408MOL    C5049704   5.379   0.924   2.115 -0.4283  0.5800  0.5533
  408MOL   Cl5149705   5.403   0.938   1.940 -0.2164 -0.3023 -0.4988
  408MOL   Cl5249706   5.207   0.903   2.131  0.0438 -0.5265 -0.0121
  408MOL    C5349707   5.451   0.793   2.162  0.3365 -0.4001  0.3889
  408MOL    H5449708   5.546   0.805   2.110 -0.2017  0.3374 -0.4409
  408MOL    H5549709   5.467   0.798   2.270 -2.6176  0.5439  0.8291
  408MOL    C5649710   5.398   0.647   2.137  0.1920 -0.3054  0.2551
  408MOL   Cl5749711   5.536   0.548   2.154 -0.0918 -0.3743  0.0763
  408MOL   Cl5849712   5.353   0.624   1.962 -0.0806  0.1660 -0.3506
  408MOL    C5949713   5.284   0.602   2.226  0.4644 -0.1964 -1.1402
  408MOL    H6049714   5.196   0.646   2.178  1.7281  1.8214 -1.6790
  408MOL    H6149715   5.284   0.495   2.208 -0.4739 -0.3047 -0.5812
  408MOL    C6249716   5.279   0.620   2.382  0.1387 -0.4415 -0.3827
  408MOL   Cl6349717   5.274   0.800   2.432  0.4542  0.1593  0.0154
  408MOL   Cl6449718   5.434   0.567   2.449  0.2427  0.4060 -0.1246
  408MOL    C6549719   5.162   0.553   2.451  0.5478 -0.0404  0.1177
  408MOL    H6649720   5.189   0.448   2.464 -1.7107 -0.5284  1.2021
  408MOL    H6749721   5.164   0.591   2.553 -1.8330 -1.2674  0.6717
  408MOL    C6849722   5.012   0.558   2.399  0.6794 -0.2401  0.6136
  408MOL   Cl6949723   4.924   0.468   2.523  0.0135 -0.5299 -0.1218
  408MOL   Cl7049724   4.997   0.457   2.260  0.2211  0.2278  0.4623
  408MOL    C7149725   4.941   0.691   2.386 -0.7337  0.2047  0.6036
  408MOL    H7249726   4.929   0.737   2.484 -2.8911 -1.5803  1.2148
  408MOL    H7349727   5.029   0.745   2.350  2.5212 -3.7711  2.2618
  408MOL    C7449728   4.816   0.728   2.289  0.2472 -0.6956  0.8745
  408MOL   Cl7549729   4.687   0.611   2.323 -0.0130 -0.6388 -0.0867
  408MOL   Cl7649730   4.856   0.716   2.108  0.1299  0.2680  0.1689
  408MOL    C7749731   4.752   0.865   2.318 -0.2488 -0.2657 -0.2102
  408MOL    H7849732   4.655   0.873   2.269 -0.8099  0.7667  1.0532
  408MOL    H7949733   4.733   0.853   2.425 -0.6806 -1.3948 -0.4051
  408MOL    C8049734   4.823   1.003   2.309 -0.1924  0.3178 -0.1189
  408MOL   Cl8149735   4.865   1.026   2.138 -0.1051 -0.3682  0.2078
  408MOL   Cl8249736   4.976   1.030   2.386  0.1584 -0.3563 -0.0684
  408MOL    C8349737   4.726   1.124   2.350 -0.1368 -0.3082  0.2481
  408MOL    H8449738   4.765   1.220   2.315 -1.2618 -0.6440 -2.0362
  408MOL    H8549739   4.637   1.098   2.294  0.5106  2.1596 -2.0519
  408MOL    C8649740   4.659   1.144   2.489  0.0693  0.1409  0.0264
  408MOL   Cl8749741   4.790   1.157   2.603 -0.2782  0.0289  0.6871
  408MOL   Cl8849742   4.575   0.994   2.538 -0.0402 -0.0967  0.2312
  408MOL    C8949743   4.569   1.275   2.503 -0.0601 -0.1873 -0.7120
  408MOL    H9049744   4.519   1.269   2.600 -1.4533 -2.5849 -1.5512
  408MOL    H9149745   4.627   1.368   2.507 -2.4000  1.3175 -0.4680
  408MOL    C9249746   4.465   1.300   2.393 -1.0242 -0.5963 -0.4253
  408MOL   Cl9349747   4.386   1.154   2.348 -0.3725 -0.0895 -0.4165
  408MOL   Cl9449748   4.547   1.359   2.250  0.1553 -0.0913  0.0291
  408MOL    C9549749   4.372   1.411   2.449 -0.5244  0.0787 -0.1698
  408MOL    H9649750   4.344   1.375   2.548 -0.1192  0.0435 -0.0668
  408MOL    H9749751   4.435   1.498   2.466 -2.6138  1.5273  0.3542
  408MOL    C9849752   4.250   1.452   2.371 -0.1173  0.0235  0.2471
  408MOL   Cl9949753   4.295   1.592   2.267  0.0388  0.1917  0.2502
  408MOL  Cl10049754   4.153   1.521   2.502 -0.2012 -0.2412  0.1664
  408MOL   C10149755   4.165   1.348   2.293  0.5347  1.2659  0.1515
  408MOL   H10249756   4.225   1.320   2.206  2.9500  0.0524  2.1214
  408MOL   H10349757   4.157   1.261   2.360 -0.3109  1.1440 -0.1059
  408MOL   C10449758   4.017   1.377   2.237 -0.1916  0.5782  0.0561
  408MOL  Cl10549759   3.904   1.391   2.363 -0.0752 -0.0557 -0.6279
  408MOL  Cl10649760   3.984   1.230   2.139  0.3787  0.0651 -0.1465
  408MOL   C10749761   4.012   1.500   2.146 -0.3596 -0.0601  0.8572
  408MOL   H10849762   4.025   1.591   2.204  2.8006 -0.8398  1.4745
  408MOL   H10949763   4.101   1.487   2.085 -0.6068  1.1764  0.2164
  408MOL   C11049764   3.901   1.533   2.041  0.0800  0.1346 -0.2266
  408MOL  Cl11149765   3.740   1.498   2.099  0.0379  0.1919 -0.2222
  408MOL  Cl11249766   3.925   1.428   1.902 -0.0422 -0.2957 -0.3936
  408MOL   C11349767   3.905   1.676   1.981 -0.3034  0.2572 -0.1725
  408MOL   H11449768   4.008   1.686   1.944 -0.8676  1.3277 -1.5237
  408MOL   H11549769   3.840   1.690   1.894  0.5696  4.2046 -0.3135
  408MOL   C11649770   3.890   1.805   2.070  0.1745 -0.1004  0.0995
  408MOL  Cl11749771   3.826   1.928   1.963 -0.2578 -0.1401 -0.0918
  408MOL  Cl11849772   4.051   1.854   2.126  0.3412 -0.1531 -0.5656
  408MOL   C11949773   3.790   1.796   2.193  0.1852 -0.2046 -0.7676
  408MOL   H12049774   3.685   1.777   2.170  0.0519  0.0588 -0.3796
  408MOL   H12149775   3.825   1.712   2.254  1.9717 -0.3730 -1.9705
  408MOL   H12249776   3.791   1.891   2.247  0.8071 -1.5175  1.5847
  409MOL     C149777   0.371   2.875   2.338  0.3726 -0.3822  0.1596
  409MOL    Cl249778   0.547   2.849   2.336 -0.2918  0.0703  0.5786
  409MOL    Cl349779   0.298   2.741   2.428  0.2731  0.2434 -0.3548
  409MOL     C449780   0.339   3.014   2.391  0.3169 -0.1603  0.2987
  409MOL     H549781   0.376   3.003   2.493  0.9607  0.6181  0.1514
  409MOL     H649782   0.408   3.091   2.357  1.1312 -0.6705  0.7830
  409MOL     H749783   0.332   2.859   2.237 -2.4037 -0.7527  1.2465
  409MOL     C849784   0.195   3.076   2.371 -0.0527 -0.7191 -0.4785
  409MOL    Cl949785   0.069   2.972   2.434 -0.4069  0.0048 -0.1054
  409MOL   Cl1049786   0.164   3.105   2.195 -0.1946 -0.4530  0.2880
  409MOL    C1149787   0.194   3.203   2.452  0.3783 -0.3199 -0.1657
  409MOL    H1249788   0.194   3.192   2.561  1.3658 -0.8383 -0.2144
  409MOL    H1349789   0.289   3.256   2.440  0.6806 -0.6884  0.5205
  409MOL    C1449790   0.100   3.327   2.415 -0.7238  0.2979 -0.0858
  409MOL   Cl1549791   9.122   3.263   2.377 -0.0046 -0.3184 -0.5043
  409MOL   Cl1649792   0.157   3.415   2.268  0.0417 -0.0884 -0.0232
  409MOL    C1749793   0.080   3.420   2.541 -0.6544  0.0187  0.5408
  409MOL    H1849794   9.179   3.486   2.509 -0.7551 -0.9180 -1.2327
  409MOL    H1949795   0.047   3.355   2.623 -0.9963 -1.6899 -0.9020
  409MOL    C2049796   0.204   3.509   2.598  0.4095 -0.1770  1.1317
  409MOL   Cl2149797   0.238   3.638   2.480 -0.4009  0.2866 -0.1591
  409MOL   Cl2249798   0.357   3.432   2.621  0.2421  0.1199 -0.2913
  409MOL    C2349799   0.182   3.575   2.741  0.1056  0.3427  0.0583
  409MOL    H2449800   0.208   3.498   2.813  0.9710  2.1270  1.6872
  409MOL    H2549801   0.265   3.644   2.755  0.7538 -0.0028 -1.8756
  409MOL    C2649802   0.051   3.654   2.785 -0.0030 -0.1637 -0.4931
  409MOL   Cl2749803   0.091   3.718   2.947 -0.2251  0.2194 -0.8346
  409MOL   Cl2849804   9.098   3.540   2.821  0.1683  0.3722 -0.0714
  409MOL    C2949805   0.013   3.765   2.679  0.8036  0.2021  0.3265
  409MOL    H3049806   0.108   3.803   2.642 -0.2682  2.0230 -0.6008
  409MOL    H3149807   9.144   3.712   2.598 -2.0475 -0.5398  2.4662
  409MOL    C3249808   9.103   3.890   2.720 -0.0626  0.3511 -0.1283
  409MOL   Cl3349809   0.005   4.027   2.800 -0.2878  0.2613 -0.1532
  409MOL   Cl3449810   8.975   3.835   2.827  0.0449  0.4419  0.0549
  409MOL    C3549811   9.045   3.953   2.588 -0.3849 -0.0239  0.5739
  409MOL    H3649812   9.129   4.003   2.541  0.2015  0.8165  2.4547
  409MOL    H3749813   9.022   3.876   2.514 -1.4425  0.8250 -0.0003
  409MOL    C3849814   8.914   4.043   2.589  0.5045  0.3115 -0.1805
  409MOL   Cl3949815   8.777   3.927   2.602 -0.1249  0.3192  0.0725
  409MOL   Cl4049816   8.907   4.098   2.424 -0.0257  0.1371  0.2960
  409MOL    C4149817   8.916   4.158   2.691  0.2949 -0.2301 -0.0739
  409MOL    H4249818   8.907   4.094   2.779  0.1930 -0.2941 -0.1313
  409MOL    H4349819   9.020   4.192   2.697  0.8722 -2.1445  1.7054
  409MOL    C4449820   8.812   4.273   2.702 -0.5863  0.4539  0.1483
  409MOL   Cl4549821   8.814   4.379   2.551 -0.4651 -0.2804  0.2408
  409MOL   Cl4649822   8.856   4.388   2.824  0.4045 -0.2181 -0.0964
  409MOL    C4749823   8.668   4.218   2.751  0.0779 -0.0836  0.3253
  409MOL    H4849824   8.650   4.134   2.683 -0.2545  0.6535 -0.5112
  409MOL    H4949825   8.680   4.177   2.851  3.7950  1.4016  0.5595
  409MOL    C5049826   8.534   4.306   2.728 -0.0742 -0.0287 -0.0372
  409MOL   Cl5149827   8.407   4.212   2.809 -0.0426 -0.2763  0.3521
  409MOL   Cl5249828   8.501   4.308   2.555  0.1118  0.0385  0.2086
  409MOL    C5349829   8.534   4.454   2.793 -0.2548  0.2226 -0.1285
  409MOL    H5449830   8.550   4.432   2.898 -0.5663  1.2389  0.1317
  409MOL    H5549831   8.630   4.495   2.760  0.7004 -0.5468  1.6601
  409MOL    C5649832   8.419   4.553   2.764  0.0979 -0.0356  0.3087
  409MOL   Cl5749833   8.260   4.483   2.802  0.2086  0.4281 -0.1007
  409MOL   Cl5849834   8.419   4.599   2.592 -0.3054 -0.4384 -0.0232
  409MOL    C5949835   8.418   4.678   2.862  0.1785  0.7514 -0.6084
  409MOL    H6049836   8.327   4.729   2.831 -0.5696 -0.4296 -0.3865
  409MOL    H6149837   8.388   4.644   2.962  3.9014  2.6534  1.2529
  409MOL    C6249838   8.537   4.781   2.891  0.4434  0.7088  0.3787
  409MOL   Cl6349839   8.557   4.881   2.742 -0.4753 -0.1042  0.4030
  409MOL   Cl6449840   8.692   4.690   2.909 -0.4881 -0.3029 -0.6626
  409MOL    C6549841   8.527   4.874   3.010  0.1887  0.1413  0.0056
  409MOL    H6649842   8.528   4.813   3.101 -0.4915  0.3927  0.1817
  409MOL    H6749843   8.621   4.928   3.019  0.2208 -0.0974  1.3179
  409MOL    C6849844   8.414   4.974   3.025  0.4949  0.7104  0.0258
  409MOL   Cl6949845   8.466   5.078   3.166  0.3423  0.2590  0.4504
  409MOL   Cl7049846   8.278   4.870   3.068 -0.4236 -0.0734 -0.2042
  409MOL    C7149847   8.372   5.060   2.897 -0.7221 -0.1675 -0.9832
  409MOL    H7249848   8.469   5.102   2.868  1.0421 -4.3782 -1.4560
  409MOL    H7349849   8.336   4.997   2.816  0.8117 -1.6064 -0.5714
  409MOL    C7449850   8.276   5.184   2.904  0.4576 -0.0995  0.8389
  409MOL   Cl7549851   8.235   5.221   2.733  0.1601 -0.2664  0.0354
  409MOL   Cl7649852   8.368   5.323   2.967 -0.1557 -0.2905 -0.5410
  409MOL    C7749853   8.149   5.155   2.982  0.3728  0.7649 -0.0473
  409MOL    H7849854   8.118   5.058   2.943 -1.5823  1.1195  0.5857
  409MOL    H7949855   8.185   5.149   3.085  1.9989  0.5241 -0.6188
  409MOL    C8049856   8.025   5.245   2.977  0.0061 -0.4620  1.1730
  409MOL   Cl8149857   7.927   5.250   2.825 -0.4125 -0.4930 -0.1795
  409MOL   Cl8249858   8.079   5.416   3.001  0.1390  0.0247 -0.1691
  409MOL    C8349859   7.928   5.230   3.100  0.1789  0.0991  0.1139
  409MOL    H8449860   7.985   5.246   3.191 -0.4273 -0.5458  0.6119
  409MOL    H8549861   7.847   5.303   3.097  0.6540  0.6882  1.4122
  409MOL    C8649862   7.846   5.100   3.125  0.0513 -0.0542  0.2349
  409MOL   Cl8749863   7.952   4.960   3.127 -0.3819  0.0352 -0.3641
  409MOL   Cl8849864   7.718   5.080   2.997  0.2253 -0.1473  0.2542
  409MOL    C8949865   7.773   5.104   3.260 -0.7672 -0.5363  0.3659
  409MOL    H9049866   7.834   5.152   3.337 -0.7525  0.5128 -0.3004
  409MOL    H9149867   7.697   5.181   3.257  1.1832  1.5192  1.6041
  409MOL    C9249868   7.722   4.973   3.321 -0.5753 -0.0855  0.3351
  409MOL   Cl9349869   7.833   4.905   3.438 -0.1191  0.2376 -0.2527
  409MOL   Cl9449870   7.667   4.849   3.201 -0.1955  0.0672 -0.1667
  409MOL    C9549871   7.596   5.002   3.416 -0.0348 -0.4844  0.4636
  409MOL    H9649872   7.625   5.075   3.491 -3.0675  0.4046  0.8241
  409MOL    H9749873   7.535   5.070   3.356  1.3955 -0.0423 -0.5170
  409MOL    C9849874   7.501   4.894   3.488  1.1375  0.2369  0.6095
  409MOL   Cl9949875   7.365   4.874   3.374  0.0183  0.2316  0.2275
  409MOL  Cl10049876   7.438   4.973   3.638  0.1204  0.4237 -0.1003
  409MOL   C10149877   7.571   4.763   3.537 -0.2263  0.0258  0.6859
  409MOL   H10249878   7.639   4.735   3.456 -1.3499 -0.7296 -0.0093
  409MOL   H10349879   7.634   4.783   3.624  0.5717 -0.8401  0.3140
  409MOL   C10449880   7.498   4.632   3.582 -0.3553 -0.2507 -0.5861
  409MOL  Cl10549881   7.405   4.664   3.737 -0.1180 -0.5163 -0.5467
  409MOL  Cl10649882   7.627   4.514   3.618  0.0423  0.1141 -0.4641
  409MOL   C10749883   7.389   4.570   3.491 -0.0762 -0.1109  0.0799
  409MOL   H10849884   7.304   4.631   3.523 -0.8844 -1.0912 -0.1709
  409MOL   H10949885   7.417   4.594   3.388  1.3389 -1.3931  0.1486
  409MOL   C11049886   7.343   4.426   3.500 -0.0944  0.5832  0.0780
  409MOL  Cl11149887   7.463   4.308   3.431  0.1347 -0.0996 -0.2445
  409MOL  Cl11249888   7.207   4.442   3.376  0.5301  0.0387 -0.0620
  409MOL   C11349889   7.292   4.382   3.643  0.1222  0.2954  0.1725
  409MOL   H11449890   7.378   4.352   3.703 -0.9506 -1.6239  0.8182
  409MOL   H11549891   7.243   4.467   3.689  0.2851  1.7000 -2.1720
  409MOL   C11649892   7.184   4.262   3.649  0.3428  0.6642  0.2214
  409MOL  Cl11749893   7.020   4.298   3.595 -0.0284  0.4038  0.5410
  409MOL  Cl11849894   7.163   4.220   3.822  0.0716  0.2260  0.0058
  409MOL   C11949895   7.223   4.128   3.582 -0.3264 -0.2135  0.5842
  409MOL   H12049896   7.321   4.089   3.609  0.0312 -1.6230 -2.4832
  409MOL   H12149897   7.146   4.054   3.606  0.2878 -1.5087 -1.2481
  409MOL   H12249898   7.214   4.144   3.474 -0.2716  0.6919  0.7114
   9.18040   9.18040   9.18040
